
   OpenMP run-time library returned nthreads = 28
 operating system is UNIX !

 dscf (c-19-414) : TURBOMOLE V7.3 ( 22142 ) 4 Jul 2018 at 18:12:42
 Copyright (C) 2018 TURBOMOLE GmbH, Karlsruhe


    2019-04-02 18:26:48.788 



                             d s c f - program

                   idea & directorship : reinhart ahlrichs
                   program development : marco haeser
                                         michael baer
                           dft version : oliver treutler


                          quantum chemistry group
                          universitaet  karlsruhe
                                  germany




                          References             
                                                 
          TURBOMOLE:                             
              R. Ahlrichs, M. Baer, M. Haeser, H. Horn, and
              C. Koelmel
              Electronic structure calculations on workstation
              computers: the program system TURBOMOLE
              Chem. Phys. Lett. 162: 165 (1989)
          Density Functional:                              
              O. Treutler and R. Ahlrichs                      
              Efficient Molecular Numerical Integration Schemes
              J. Chem. Phys. 102: 346 (1995)                   
          Parallel Version:                                
              Performance of parallel TURBOMOLE for Density    
              Functional Calculations                          
              M. v. Arnim and R. Ahlrichs                      
              J. Comp. Chem. 19: 1746 (1998)                   
                                         




              +--------------------------------------------------+
              | Atomic coordinate, charge and isotop information |
              +--------------------------------------------------+

                    atomic coordinates            atom    charge  isotop
          1.25931421    0.34735203    0.79318765    c      6.000     0
          2.32225010   -0.62338855    2.24170598    h      1.000     0
          2.32065089    1.31753242   -0.65688750    h      1.000     0
         -1.25850767    0.34576967    0.79295159    c      6.000     0
         -2.32043575   -0.62644213    2.24141049    h      1.000     0
         -2.32093191    1.31457995   -0.65714864    h      1.000     0
         -4.78622267   -0.74390812    7.83356202    c      6.000     0
         -4.84195720   -1.90234951    6.13055996    h      1.000     0
         -4.85450594   -2.01800044    9.45044385    h      1.000     0
         -6.48918973    0.41074560    7.86615213    h      1.000     0
         -2.40245318    0.86741490    7.90124811    c      6.000     0
         -2.40322015    2.03922193    9.60085635    h      1.000     0
         -2.38660150    2.16548350    6.29675646    h      1.000     0
         -0.00009298   -0.71533953    7.85033283    c      6.000     0
         -0.00038410   -2.01296289    9.46006205    h      1.000     0
          0.00017360   -1.90128977    6.15592408    h      1.000     0
          2.40216544    0.86746943    7.90211990    c      6.000     0
          2.40268134    2.03874201    9.60190099    h      1.000     0
          2.38667947    2.16585236    6.29791697    h      1.000     0
          4.78596308   -0.74394636    7.83442200    c      6.000     0
          4.84194333   -1.90207730    6.13119450    h      1.000     0
          6.48894290    0.41055568    7.86763968    h      1.000     0
          4.85383895   -2.01848364    9.45109350    h      1.000     0
 
       center of nuclear mass  :    0.00001927    0.01545689    5.88396937
       center of nuclear charge:    0.00001606    0.00356192    5.91252630

              +--------------------------------------------------+
              |               basis set information              |
              +--------------------------------------------------+

              we will work with the 1s 3p 5d 7f 9g ... basis set
              ...i.e. with spherical basis functions...

   type   atoms  prim   cont   basis
   ---------------------------------------------------------------------------
    c        7     50     30   cc-pVTZ   [4s3p2d1f|18s5p2d1f]
    h       16     16     14   cc-pVTZ   [3s2p1d|5s2p1d]
   ---------------------------------------------------------------------------
   total:   23    606    434
   ---------------------------------------------------------------------------

   total number of primitive shells          :   34
   total number of contracted shells         :  166
   total number of cartesian basis functions :  485
   total number of SCF-basis functions       :  434


 integral neglect threshold       :  0.69E-13
 integral storage threshold THIZE :  0.10E-04
 integral storage threshold THIME :         5


 DENSITY CONVERGENCE CHECK SWITCHED ON !
 SCF CONVERGENCE IF RMS(delta[D]) <     0.1000000000E-06


 symmetry group of the molecule :   c1 

 the group has the following generators :
   c1(z)

    1 symmetry operations found

 there are 1 real representations :   a   

 maximum number of shells which are related by symmetry :  1


    mo occupation :
   irrep   mo's   occupied
    a      434       29
 
 number of basis functions   :                    434
 number of occupied orbitals :                     29
 

 automatic virtual orbital shift switched on 
      shift if e(lumo)-e(homo) < 0.10000000    


          ------------------------
          nuclear repulsion energy  :   303.649513067    
          ------------------------


         -----------------
         -S,T+V- integrals
         -----------------

 1e-integrals will be neglected if expon. factor < 0.689064E-14
 
   Difference densities algorithm switched on.
   The maximal number of linear combinations of
   difference densities is                    20 .

 DIIS switched on: error vector is FDS-SDF
 Max. Iterations for DIIS is     :   5
 DIIS matrix (see manual) 
    Scaling factor of diagonals  :  1.200
    threshold for scaling factor :  0.000

 scf convergence criterion : increment of total energy < .1000000D-08
                  and increment of one-electron energy < .1000000D-05

  MOs are in ASCII format !


 reading orbital data $scfmo  from file mos
 orbital characterization : scfconv=9

 DSCF restart information will be dumped onto file mos

 
                                              current damping :  0.700
 ITERATION  ENERGY          1e-ENERGY        2e-ENERGY     RMS[dD(SAO)]   TOL
   1  -274.40124371136    -971.31172957     393.26097279    0.000D+00 0.687D-13
          max. resid. norm for Fia-block=  9.046D-02 for orbital      2a         
          max. resid. fock norm         =  1.684D-01 for orbital    433a         
          Delta Eig. =    20.8262596640 eV 
 
                                              current damping :  0.650
 ITERATION  ENERGY          1e-ENERGY        2e-ENERGY     RMS[dD(SAO)]   TOL
   2  -274.45139264513    -970.38867347     392.28776776    0.715D-03 0.438D-13
          Norm of current diis error: 0.49313    
          max. resid. norm for Fia-block=  4.410D-02 for orbital      2a         
          max. resid. fock norm         =  5.770D-02 for orbital    429a         
          Delta Eig. =     9.7698191847 eV 
 
                                              current damping :  0.600
 ITERATION  ENERGY          1e-ENERGY        2e-ENERGY     RMS[dD(SAO)]   TOL
   3  -274.46189783795    -970.57544031     392.46402941    0.363D-03 0.331D-13
          Norm of current diis error: 0.22139    
          max. resid. norm for Fia-block=  1.806D-02 for orbital      2a         
          max. resid. fock norm         =  2.537D-02 for orbital    429a         
          Delta Eig. =     3.7412264841 eV 
 
                                              current damping :  0.650
 ITERATION  ENERGY          1e-ENERGY        2e-ENERGY     RMS[dD(SAO)]   TOL
   4  -274.46412432885    -970.49328288     392.37964548    0.161D-03 0.292D-13
          Norm of current diis error: 0.89811E-01
          max. resid. norm for Fia-block=  6.756D-03 for orbital      2a         
          max. resid. fock norm         =  9.101D-03 for orbital    433a         
          Delta Eig. =     1.3676414360 eV 
 
                                              current damping :  0.500
 ITERATION  ENERGY          1e-ENERGY        2e-ENERGY     RMS[dD(SAO)]   TOL
   5  -274.46448603575    -970.47653713     392.36253803    0.637D-04 0.269D-13
          Norm of current diis error: 0.38098E-01
          max. resid. norm for Fia-block=  2.690D-03 for orbital     20a         
          max. resid. fock norm         =  3.619D-03 for orbital    429a         
 mo-orthogonalization: Cholesky decomposition
          Delta Eig. =     0.5905264047 eV 
 
                                              current damping :  0.350
 ITERATION  ENERGY          1e-ENERGY        2e-ENERGY     RMS[dD(SAO)]   TOL
   6  -274.46455550427    -970.46778868     392.35372011    0.292D-04 0.249D-13
          Norm of current diis error: 0.14049E-01
          max. resid. norm for Fia-block=  9.953D-04 for orbital     20a         
          max. resid. fock norm         =  1.205D-03 for orbital    429a         
          Delta Eig. =     0.2182298772 eV 
 
                                              current damping :  0.200
 ITERATION  ENERGY          1e-ENERGY        2e-ENERGY     RMS[dD(SAO)]   TOL
   7  -274.46456572849    -970.46385090     392.34977210    0.118D-04 0.230D-13
          Norm of current diis error: 0.42703E-02
          max. resid. norm for Fia-block=  3.047D-04 for orbital     20a         
          max. resid. fock norm         =  3.064D-04 for orbital     20a         
          Delta Eig. =     0.0646599957 eV 
 
                                              current damping :  0.050
 ITERATION  ENERGY          1e-ENERGY        2e-ENERGY     RMS[dD(SAO)]   TOL
   8  -274.46456677815    -970.46281314     392.34873330    0.409D-05 0.214D-13
          Norm of current diis error: 0.10011E-02
          max. resid. norm for Fia-block=  7.102D-05 for orbital     20a         
          max. resid. fock norm         =  7.155D-05 for orbital     20a         
          Delta Eig. =     0.0120389641 eV 
 
                                              current damping :  0.050
 ITERATION  ENERGY          1e-ENERGY        2e-ENERGY     RMS[dD(SAO)]   TOL
   9  -274.46456684757    -970.46225869     392.34817877    0.122D-05 0.201D-13
          Norm of current diis error: 0.17762E-03
          max. resid. norm for Fia-block=  1.480D-05 for orbital     26a         
          max. resid. fock norm         =  1.513D-05 for orbital     26a         
          Delta Eig. =     0.0008321281 eV 
 
                                              current damping :  0.050
 ITERATION  ENERGY          1e-ENERGY        2e-ENERGY     RMS[dD(SAO)]   TOL
  10  -274.46456685035    -970.46225601     392.34817609    0.310D-06 0.194D-13
          Norm of current diis error: 0.42841E-04
          max. resid. norm for Fia-block=  4.130D-06 for orbital     26a         
          max. resid. fock norm         =  4.158D-06 for orbital     26a         
 mo-orthogonalization: Cholesky decomposition
          Delta Eig. =     0.0000634432 eV 

 DENSITY CONVERGED !

 
                                              current damping :  0.050
 ITERATION  ENERGY          1e-ENERGY        2e-ENERGY     RMS[dD(SAO)]   TOL
  11  -274.46456685052    -970.46219488     392.34811496    0.952D-07 0.196D-13
          Norm of current diis error: 0.11081E-04
          max. resid. norm for Fia-block=  9.240D-07 for orbital     26a         
          max. resid. fock norm         =  1.007D-06 for orbital     28a         
          Delta Eig. =     0.0000635929 eV 

 DENSITY CONVERGED !

 
                                              current damping :  0.100
 ITERATION  ENERGY          1e-ENERGY        2e-ENERGY     RMS[dD(SAO)]   TOL
  12  -274.46456685053    -970.46221338     392.34813346    0.219D-07 0.196D-13
          Norm of current diis error: 0.29587E-05
          max. resid. norm for Fia-block=  2.263D-07 for orbital     29a         
          max. resid. fock norm         =  2.598D-07 for orbital     26a         
          Delta Eig. =     0.0000209702 eV 

 ENERGY & DENSITY CONVERGED !

 
                                              current damping :  0.150
 ITERATION  ENERGY          1e-ENERGY        2e-ENERGY     RMS[dD(SAO)]   TOL
  13  -274.46456685054    -970.46220613     392.34812621    0.432D-08 0.196D-13
          max. resid. norm for Fia-block=  6.146D-08 for orbital     28a         
          max. resid. fock norm         =  7.182D-08 for orbital     28a         

 convergence criteria satisfied after    13 iterations


                  ------------------------------------------ 
                 |  total energy      =   -274.46456685054  |
                  ------------------------------------------ 
                 :  kinetic energy    =    274.20786327496  :
                 :  potential energy  =   -548.67243012550  :
                 :  virial theorem    =      1.99906471142  :
                 :  wavefunction norm =      1.00000000000  :
                  .......................................... 


 orbitals $scfmo  will be written to file mos

    irrep                 25a         26a         27a         28a         29a   
 eigenvalues H         -0.47618    -0.46175    -0.45950    -0.44686    -0.37675
            eV         -12.9575    -12.5648    -12.5037    -12.1599    -10.2520
 occupation              2.0000      2.0000      2.0000      2.0000      2.0000 

    irrep                 30a         31a         32a         33a         34a   
 eigenvalues H          0.14331     0.14562     0.15440     0.16366     0.17031
            eV           3.8998      3.9625      4.2016      4.4535      4.6345
 
 
 
 
 ==============================================================================
                           electrostatic moments
 ==============================================================================

 reference point for electrostatic moments:    0.00000   0.00000   0.00000

 
              nuc           elec       ->  total
 ------------------------------------------------------------------------------
                          charge      
 ------------------------------------------------------------------------------
          58.000000     -58.000000      -0.000000
 
 ------------------------------------------------------------------------------
                       dipole moment  
 ------------------------------------------------------------------------------
   x       0.000932      -0.000942      -0.000010
   y       0.206591      -0.132895       0.073697
   z     342.926526    -342.926164       0.000361
 
   | dipole moment | =     0.0737 a.u. =     0.1873 debye 
 
 ------------------------------------------------------------------------------
                     quadrupole moment
 ------------------------------------------------------------------------------
  xx     585.872356    -622.120393     -36.248038
  yy      65.509938    -103.080777     -37.570840
  zz    2642.582368   -2678.284274     -35.701906
  xy       0.024066      -0.022675       0.001391
  xz       0.023784      -0.022901       0.000883
  yz     -41.938916      41.182327      -0.756588
 
     1/3  trace=     -36.506928
     anisotropy=       2.118437
 
 ==============================================================================
 


    ------------------------------------------------------------------------
         total  cpu-time : 15 minutes and 38 seconds
         total wall-time :  53.05 seconds
    ------------------------------------------------------------------------

   ****  dscf : all done  ****


    2019-04-02 18:27:41.772 

