           Doing BLAS/Lapack in the master proc. with  8 CPUs.
           SMPCPUS    set: Shared-memory Parallelization with   8 CPUs.

           SMP Parallelization Reference:
           C. van Wullen, J. Comput. Chem. 32 (2011) 1195--1201
 operating system is UNIX !

 ridft (c-18-81.gp.local) : TURBOMOLE V7.2 ( 21454 ) 4 Oct 2017 at 12:48:15
 Copyright (C) 2017 TURBOMOLE GmbH, Karlsruhe


    2018-04-24 21:11:53.779 



                                  r i d f t

                        DFT program with RI approximation 
                                for coulomb part 




                                                 
                                 References:     
                                                 
          TURBOMOLE:                             
              R. Ahlrichs, M. Baer, M. Haeser, H. Horn, and
              C. Koelmel
              Electronic structure calculations on workstation
              computers: the program system TURBOMOLE
              Chem. Phys. Lett. 162: 165 (1989)
          Density Functional:                              
              O. Treutler and R. Ahlrichs                      
              Efficient Molecular Numerical Integration Schemes
              J. Chem. Phys. 102: 346 (1995)                   
          Parallel Version:                                
              Performance of parallel TURBOMOLE for Density    
              Functional Calculations                          
              M. v. Arnim and R. Ahlrichs                      
              J. Comp. Chem. 19: 1746 (1998)                   
          RI-J Method:                                     
              Auxiliary Basis Sets to approximate Coulomb      
              Potentials                                       
              Chem. Phys. Lett. 240: 283 (1995)                
              K. Eichkorn, O. Treutler, H. Oehm, M. Haeser     
              and R. Ahlrichs                                  
              Chem. Phys. Lett. 242: 652 (1995)                
                                                           
              Auxiliary Basis Sets for Main Row Atoms and their
              Use to approximate Coulomb Potentials            
              K. Eichkorn, F. Weigend, O. Treutler and         
              R. Ahlrichs                                      
              Theo. Chem. Acc. 97: 119 (1997)                   
                                                           
              Accurate Coulomb-fitting basis sets for H to Rn 
              F. Weigend                                        
              Phys. Chem. Chem. Phys. 8: 1057 (2006)            
                                                           
          Multipole accelerated RI-J (MARI-J):             
              Fast evaluation of the Coulomb potential for     
              electron densities using multipole accelerated   
              resolution of identity approximation             
              M. Sierka, A. Hogekamp and R. Ahlrichs           
              J. Chem. Phys. 118: 9136 (2003)                  
          RI-JK Method:                                     
              A fully direct RI-HF algorithm: Implementation,
              optimised auxiliary basis sets, demonstration of
              accuracy and efficiency                         
              F. Weigend                                      
              Phys. Chem. Chem. Phys. 4: 4285 (2002)           
          Two-component HF and DFT with spin-orbit coupling:  
              Self-consistent treatment of spin-orbit         
              interactions with efficient Hartree-Fock and    
              density functional methods                      
              M. K. Armbruster, F. Weigend, C. van Wüllen and 
              W. Klopper                                      
              Phys. Chem. Chem. Phys. 10: 1748 (2008)         
          Relativistic all-electron 2c calculations           
              An efficient implementation of two-component    
              relativistic exact-decoupling methods for large 
              molecules                                       
              D. Peng, N. Middendorf, F. Weigend, M. Reiher   
              J. Chem. Phys. 138, 184105 (2013)               
                                         




              +--------------------------------------------------+
              |      general information about current run       |
              +--------------------------------------------------+

 

 DENSITY CONVERGENCE CHECK SWITCHED ON !
 SCF CONVERGENCE IF RMS(delta[D]) <     0.1000000000E-06

 PBE functional
 exchange:    LDA + PBE
 correlation: LDA (PW) + PBE
 A DFT calculation using the RI-J approximation will be carried out.
 Allocatable memory for RI due to $ricore (MB):                   500


              +--------------------------------------------------+
              | Atomic coordinate, charge and isotop information |
              +--------------------------------------------------+

                    atomic coordinates            atom    charge  isotop
          2.61043403   -0.00044121    0.24843046    n      7.000     0
          1.28378694   -2.15474030    0.17400534    c      6.000     0
          2.37863533   -3.88331583    0.23788555    h      1.000     0
         -1.34118081   -2.25465884    0.01259364    c      6.000     0
         -2.29429321   -4.06019307   -0.04782615    h      1.000     0
         -2.68646032    0.00025214   -0.07713276    c      6.000     0
         -4.72563086    0.00048674   -0.20630090    h      1.000     0
         -1.34057398    2.25477470    0.01232476    c      6.000     0
         -2.29320463    4.06054494   -0.04824151    h      1.000     0
          1.28435551    2.15420508    0.17365266    c      6.000     0
          2.37965791    3.88246293    0.23716531    h      1.000     0
          0.03704729    1.25938784    6.58998956    c      6.000     0
          1.75759381    2.31666263    6.28930608    h      1.000     0
         -1.68174839    2.32217781    6.88660192    h      1.000     0
          0.03767597   -1.25902618    6.59023945    c      6.000     0
          1.75871701   -2.31553896    6.28975328    h      1.000     0
         -1.68062950   -2.32261085    6.88709493    h      1.000     0
 
       center of nuclear mass  :   -0.00566454   -0.00002951    1.79247081
       center of nuclear charge:   -0.04275794   -0.00002147    1.88135323

              +--------------------------------------------------+
              |               basis set information              |
              +--------------------------------------------------+

              we will work with the 1s 3p 5d 7f 9g ... basis set
              ...i.e. with spherical basis functions...

   type   atoms  prim   cont   basis
   ---------------------------------------------------------------------------
    n        1     50     30   cc-pVTZ   [4s3p2d1f|18s5p2d1f]
    c        7     50     30   cc-pVTZ   [4s3p2d1f|18s5p2d1f]
    h        9     16     14   cc-pVTZ   [3s2p1d|5s2p1d]
   ---------------------------------------------------------------------------
   total:   17    544    366
   ---------------------------------------------------------------------------

   total number of primitive shells          :   60
   total number of contracted shells         :  134
   total number of cartesian basis functions :  415
   total number of SCF-basis functions       :  366


 integral neglect threshold       :  0.80E-13
 integral storage threshold THIZE :  0.10E-04
 integral storage threshold THIME :         5

 RI-J AUXILIARY BASIS SET information:

              we will work with the 1s 3p 5d 7f 9g ... basis set
              ...i.e. with spherical basis functions...

   type   atoms  prim   cont   basis
   ---------------------------------------------------------------------------
    n        1     70     49   cc-pVTZ   [6s4p3d1f1g|12s5p4d2f1g]
    c        7     70     49   cc-pVTZ   [6s4p3d1f1g|12s5p4d2f1g]
    h        9     16     11   cc-pVTZ   [3s1p1d|5s2p1d]
   ---------------------------------------------------------------------------
   total:   17    704    491
   ---------------------------------------------------------------------------

   total number of primitive shells          :   56
   total number of contracted shells         :  165
   total number of cartesian basis functions :  596
   total number of SCF-basis functions       :  491


 symmetry group of the molecule :   c1 

 the group has the following generators :
   c1(z)

    1 symmetry operations found

 there are 1 real representations :   a   

 maximum number of shells which are related by symmetry :  1


    mo occupation :
   irrep   mo's   occupied
    a      366       29
 
 number of basis functions   :                    366
 number of occupied orbitals :                     29
 
  
           ------------------
           density functional
           ------------------
 PBE functional
 exchange:    LDA + PBE
 correlation: LDA (PW) + PBE

 iterations will be done with small grid
  
 spherical integration : Lebedev's spherical grid
 spherical gridsize    :                     5
    i.e. gridpoints    :                   590
 value for diffuse not defined
 radial integration    : Chebyshev 2nd kind (scaling 3)
 radial gridsize       :                     8
 integration cells     :                    17
 partition function    : becke
 partition sharpness   :                     3
  

 biggest AO integral is expected to be     4.229423036
  
           ------------------------
               RI-J - INFORMATION
           ------------------------
 Contributions to RI integral batches: 
  neglected integral batches:                   765
  direct contribution:                            0
  memory contribution:                  8280
 Memory core needed for (P|Q) and Cholesky      2 MByte
 Memory core minimum needed except of (P|Q)     1 MByte
 Total minimum memory core needed (sum)         3 MByte
  
 ****************************************
 Memory allocated for RI-J   359 MByte
 ****************************************
                                            

          ------------------------
          nuclear repulsion energy  :   332.113075495    
          ------------------------


         -----------------
         -S,T+V- integrals
         -----------------

 1e-integrals will be neglected if expon. factor < 0.805292E-14
 Difference densities >>NOT<< switched on in parallel ridft!

 DIIS switched on: error vector is FDS-SDF
 Max. Iterations for DIIS is     :   4
 DIIS matrix (see manual) 
    Scaling factor of diagonals  :  1.200
    threshold for scaling factor :  0.000

 scf convergence criterion : increment of total energy < .1000000D-08
                  and increment of one-electron energy < .1000000D-05

  MOs are in ASCII format !


 automatic virtual orbital shift switched on 
      shift if e(lumo)-e(homo) < 0.10000000    


 reading orbital data $scfmo  from file mos
 orbital characterization : expanded
 mo provided and orthogonalized by Cholesky decomposition

 DSCF restart information will be dumped onto file mos


 Starting SCF iterations

          Overall gridpoints after grid construction =         80798

 ITERATION  ENERGY          1e-ENERGY        2e-ENERGY     RMS[dD(SAO)]   TOL
   1  -325.29010557365    -1084.9315819     427.52840085    0.000D+00 0.803D-13
                            Exc = -46.5311391337     Coul =  474.059539988    
                              N = 57.999967524    
                            current damping = 0.700
 
          max. resid. norm for Fia-block=  2.853D-01 for orbital     20a         
          max. resid. fock norm         =  5.095D+00 for orbital    363a         

 ITERATION  ENERGY          1e-ENERGY        2e-ENERGY     RMS[dD(SAO)]   TOL
   2  -326.30441441913    -1093.7048687     435.28737879    0.336D-02 0.803D-13
                            Exc = -47.2708672256     Coul =  482.558246012    
                              N = 57.999973759    
                            current damping = 0.650
 
          Norm of current diis error:  2.2918    
          max. resid. norm for Fia-block=  1.320D-01 for orbital      1a         
          max. resid. fock norm         =  2.240D-01 for orbital    363a         

 ITERATION  ENERGY          1e-ENERGY        2e-ENERGY     RMS[dD(SAO)]   TOL
   3  -326.48265821457    -1095.8160948     437.22036113    0.189D-02 0.803D-13
                            Exc = -47.5479930236     Coul =  484.768354155    
                              N = 57.999977638    
                            current damping = 0.550
 
          Norm of current diis error:  1.1342    
          max. resid. norm for Fia-block=  5.660D-02 for orbital     29a         
          max. resid. fock norm         =  6.091D-02 for orbital      9a         

 ITERATION  ENERGY          1e-ENERGY        2e-ENERGY     RMS[dD(SAO)]   TOL
   4  -326.53897861350    -1096.8617095     438.20965536    0.134D-02 0.803D-13
                            Exc = -47.6545425185     Coul =  485.864197879    
                              N = 57.999981976    
                            current damping = 0.450
 
          Norm of current diis error: 0.45511    
          max. resid. norm for Fia-block=  2.856D-02 for orbital      9a         
          max. resid. fock norm         =  5.075D-02 for orbital    362a         

 ITERATION  ENERGY          1e-ENERGY        2e-ENERGY     RMS[dD(SAO)]   TOL
   5  -326.54635250601    -1097.8118470     439.15241904    0.593D-03 0.803D-13
                            Exc = -47.7603811807     Coul =  486.912800216    
                              N = 57.999982965    
                            current damping = 0.350
 
          Norm of current diis error: 0.27495    
          max. resid. norm for Fia-block=  1.466D-02 for orbital     29a         
          max. resid. fock norm         =  1.594D-02 for orbital     29a         
          mo-orthogonalization: Cholesky decomposition

 ITERATION  ENERGY          1e-ENERGY        2e-ENERGY     RMS[dD(SAO)]   TOL
   6  -326.54970169378    -1097.6319584     438.96918117    0.509D-03 0.803D-13
                            Exc = -47.7491576985     Coul =  486.718338871    
                              N = 57.999984466    
                            current damping = 0.400
 
          Norm of current diis error: 0.10934    
          max. resid. norm for Fia-block=  3.640D-03 for orbital     27a         
          max. resid. fock norm         =  8.081D-03 for orbital    363a         

 ITERATION  ENERGY          1e-ENERGY        2e-ENERGY     RMS[dD(SAO)]   TOL
   7  -326.55014302994    -1097.7095955     439.04637697    0.111D-03 0.803D-13
                            Exc = -47.7559032354     Coul =  486.802280200    
                              N = 57.999984332    
                            current damping = 0.450
 
          Norm of current diis error: 0.44973E-01
          max. resid. norm for Fia-block=  1.633D-03 for orbital     17a         
          max. resid. fock norm         =  2.680D-03 for orbital    363a         

 ITERATION  ENERGY          1e-ENERGY        2e-ENERGY     RMS[dD(SAO)]   TOL
   8  -326.55021882696    -1097.7554834     439.09218907    0.355D-04 0.803D-13
                            Exc = -47.7607695731     Coul =  486.852958639    
                              N = 57.999984423    
                            current damping = 0.300
 
          Norm of current diis error: 0.99405E-02
          max. resid. norm for Fia-block=  3.334D-04 for orbital     29a         
          max. resid. fock norm         =  4.223D-04 for orbital    363a         

 ITERATION  ENERGY          1e-ENERGY        2e-ENERGY     RMS[dD(SAO)]   TOL
   9  -326.55022297860    -1097.7546884     439.09138990    0.123D-04 0.803D-13
                            Exc = -47.7609382003     Coul =  486.852328104    
                              N = 57.999984451    
                            current damping = 0.350
 
          Norm of current diis error: 0.21554E-02
          max. resid. norm for Fia-block=  1.282D-04 for orbital     28a         
          max. resid. fock norm         =  1.720D-04 for orbital     79a         

 ITERATION  ENERGY          1e-ENERGY        2e-ENERGY     RMS[dD(SAO)]   TOL
  10  -326.55022308574    -1097.7513975     439.08809892    0.287D-05 0.803D-13
                            Exc = -47.7605896044     Coul =  486.848688528    
                              N = 57.999984448    
                            current damping = 0.200
 
          Norm of current diis error: 0.14071E-02
          max. resid. norm for Fia-block=  5.501D-05 for orbital     27a         
          max. resid. fock norm         =  8.616D-05 for orbital    362a         
          mo-orthogonalization: Cholesky decomposition

 ITERATION  ENERGY          1e-ENERGY        2e-ENERGY     RMS[dD(SAO)]   TOL
  11  -326.55022312001    -1097.7530393     439.08974064    0.164D-05 0.803D-13
                            Exc = -47.7607467872     Coul =  486.850487430    
                              N = 57.999984447    
                            current damping = 0.250
 
          Norm of current diis error: 0.10321E-02
          max. resid. norm for Fia-block=  3.378D-05 for orbital     26a         
          max. resid. fock norm         =  5.475D-05 for orbital    363a         

 ITERATION  ENERGY          1e-ENERGY        2e-ENERGY     RMS[dD(SAO)]   TOL
  12  -326.55022316289    -1097.7528216     439.08952291    0.119D-05 0.803D-13
                            Exc = -47.7607289230     Coul =  486.850251831    
                              N = 57.999984451    
                            current damping = 0.300
 
          Norm of current diis error: 0.29217E-03
          max. resid. norm for Fia-block=  1.278D-05 for orbital     26a         
          max. resid. fock norm         =  1.994D-05 for orbital    363a         

 ITERATION  ENERGY          1e-ENERGY        2e-ENERGY     RMS[dD(SAO)]   TOL
  13  -326.55022316600    -1097.7529182     439.08961952    0.271D-06 0.803D-13
                            Exc = -47.7607424257     Coul =  486.850361947    
                              N = 57.999984450    
                            current damping = 0.350
 
          Norm of current diis error: 0.10428E-03
          max. resid. norm for Fia-block=  3.716D-06 for orbital     26a         
          max. resid. fock norm         =  4.889D-06 for orbital    157a         

 DENSITY CONVERGED !


 ITERATION  ENERGY          1e-ENERGY        2e-ENERGY     RMS[dD(SAO)]   TOL
  14  -326.55022316641    -1097.7528063     439.08950764    0.842D-07 0.803D-13
                            Exc = -47.7607295354     Coul =  486.850237176    
                              N = 57.999984450    
                            current damping = 0.400
 
          Norm of current diis error: 0.25305E-04
          max. resid. norm for Fia-block=  8.234D-07 for orbital     27a         
          max. resid. fock norm         =  1.168D-06 for orbital    364a         

 DENSITY CONVERGED !


 ITERATION  ENERGY          1e-ENERGY        2e-ENERGY     RMS[dD(SAO)]   TOL
  15  -326.55022316644    -1097.7528337     439.08953505    0.198D-07 0.803D-13
                            Exc = -47.7607319582     Coul =  486.850267006    
                              N = 57.999984450    
                            current damping = 0.450
 
          Norm of current diis error: 0.78358E-05
          max. resid. norm for Fia-block=  3.881D-07 for orbital     29a         
          max. resid. fock norm         =  5.153D-07 for orbital    362a         
          mo-orthogonalization: Cholesky decomposition

 ENERGY & DENSITY CONVERGED !

          Overall gridpoints after grid construction =        262728

 ITERATION  ENERGY          1e-ENERGY        2e-ENERGY     RMS[dD(SAO)]   TOL
  16  -326.55020709247    -1097.7528305     439.08954792    0.889D-08 0.803D-13
                            Exc = -47.7607156037     Coul =  486.850263520    
                              N = 58.000001657    
                            current damping = 0.500
 
          Norm of current diis error: 0.39341E-05
          max. resid. norm for Fia-block=  1.259D-07 for orbital     29a         
          max. resid. fock norm         =  1.713D-07 for orbital    362a         

 End of SCF iterations

   convergence criteria satisfied after    16 iterations


                  ------------------------------------------ 
                 |  total energy      =   -326.55020709247  |
                  ------------------------------------------ 
                 :  kinetic energy    =    324.50288157382  :
                 :  potential energy  =   -651.05308866630  :
                 :  virial theorem    =      1.99373044183  :
                 :  wavefunction norm =      1.00000000000  :
                  .......................................... 


 <geterg> : there is no data group $energy 


 <skperg> : $end is missing 


 orbitals $scfmo  will be written to file mos

    irrep                 25a         26a         27a         28a         29a   
 eigenvalues H         -0.30780    -0.26394    -0.24204    -0.23839    -0.21319
            eV          -8.3756     -7.1822     -6.5862     -6.4870     -5.8013
 occupation              2.0000      2.0000      2.0000      2.0000      2.0000 

    irrep                 30a         31a         32a         33a         34a   
 eigenvalues H         -0.06257    -0.04997    -0.02702     0.01836     0.04414
            eV          -1.7025     -1.3598     -0.7354      0.4997      1.2011
 
 
 
 
 ==============================================================================
                           electrostatic moments
 ==============================================================================

 reference point for electrostatic moments:    0.00000   0.00000   0.00000

 
              nuc           elec       ->  total
 ------------------------------------------------------------------------------
                          charge      
 ------------------------------------------------------------------------------
          58.000000     -58.000000       0.000000
 
 ------------------------------------------------------------------------------
                       dipole moment  
 ------------------------------------------------------------------------------
   x      -2.479961       1.653401      -0.826559
   y      -0.001245       0.001345       0.000099
   z     109.118488    -109.194200      -0.075712
 
   | dipole moment | =     0.8300 a.u. =     2.1097 debye 
 
 ------------------------------------------------------------------------------
                     quadrupole moment
 ------------------------------------------------------------------------------
  xx     188.391071    -224.568539     -36.177468
  yy     220.375764    -251.883798     -31.508034
  zz     696.121234    -735.960989     -39.839755
  xy      -0.005534       0.006238       0.000705
  xz      12.500730     -12.777215      -0.276485
  yz      -0.000116      -0.000652      -0.000768
 
     1/3  trace=     -35.841752
     anisotropy=       7.248869
 
 ==============================================================================
 


    ------------------------------------------------------------------------
         total  cpu-time :  2 minutes and 48 seconds
         total wall-time :  18.62 seconds
    ------------------------------------------------------------------------

   ****  ridft : all done  ****


    2018-04-24 21:12:12.391 

