
   OpenMP run-time library returned nthreads = 28

 ricc2 (c-16-23) : TURBOMOLE V7.3 ( 22142 ) 4 Jul 2018 at 18:12:42
 Copyright (C) 2018 TURBOMOLE GmbH, Karlsruhe


    2019-04-01 23:25:17.115 



                              R I C C 2 - PROGRAM

                          the quantum chemistry groups
                             at the universities in
                           Karlsruhe, Bochum & Mainz
                                   Germany



   *-----------------------------------------------------------------------*
   |                     program will use 28 thread(s)                     |
   *-----------------------------------------------------------------------*


              +--------------------------------------------------+
              | Atomic coordinate, charge and isotop information |
              +--------------------------------------------------+

                    atomic coordinates            atom    charge  isotop
          1.59696447    1.99917659    1.32177820    c      6.000     0
          2.84669479    3.59656793    1.57486441    h      1.000     0
          2.59933590   -0.41093104    0.96595418    c      6.000     0
          4.62450693   -0.68308418    0.95025318    h      1.000     0
          0.99034519   -2.46995580    0.62964224    c      6.000     0
          1.76826826   -4.33886110    0.34945392    h      1.000     0
         -1.62084784   -2.11925871    0.65457106    c      6.000     0
         -2.86932461   -3.71606718    0.39374948    h      1.000     0
         -2.62302623    0.29032691    1.01594227    c      6.000     0
         -4.64819249    0.56203454    1.03941040    h      1.000     0
         -1.01405189    2.34972744    1.34688117    c      6.000     0
         -1.79320698    4.21939237    1.62018759    h      1.000     0
 
       center of nuclear mass  :   -0.01187973   -0.06014086    0.98903979
       center of nuclear charge:   -0.01187944   -0.06013108    0.98896509

              +--------------------------------------------------+
              |               basis set information              |
              +--------------------------------------------------+

              we will work with the 1s 3p 5d 7f 9g ... basis set
              ...i.e. with spherical basis functions...

   type   atoms  prim   cont   basis
   ---------------------------------------------------------------------------
    c        6     50     30   cc-pVTZ   [4s3p2d1f|18s5p2d1f]
    h        6     16     14   cc-pVTZ   [3s2p1d|5s2p1d]
   ---------------------------------------------------------------------------
   total:   12    396    264
   ---------------------------------------------------------------------------

   total number of primitive shells          :   34
   total number of contracted shells         :   96
   total number of cartesian basis functions :  300
   total number of SCF-basis functions       :  264


 symmetry group of the molecule :   c1 

 the group has the following generators :
   c1(z)

    1 symmetry operations found

 there are 1 real representations :   a   


   =========================================================================


     restricted closed shell calculation for the wavefunction models:
               MP2        - Second Order Moeller Plesset PT


     global parameters for ricc2 program:

        hard restart (reuse of interm.) :  disabled
        soft restart (reuse of vectors) :  disabled
        threshold for vector function   :    0.100000E-05
        convergence threshold energy    :    0.100000E-06
        linear dependence threshold     :    0.100000E-13
        global print level              :      1
        maximum number of iterations    :   300
        maximum number DIIS vectors     :    10
        max. dim. of reduced space      :   100
        core memory limit (MB)          : *****


     MP2 energy only: Energy will be calculated directly from T2 amplitudes!

     Scratch Directory : 


   =========================================================================

    der. integral neglect threshold  :  0.10E-07
    integral neglect threshold       :  0.11E-10
    integral storage threshold THIZE :  0.10E-04
    integral storage threshold THIME :         5


                  +------------------------------------------+
                  |     Auxiliary basis set information      |
                  +------------------------------------------+

              we will work with the 1s 3p 5d 7f 9g ... basis set
              ...i.e. with spherical basis functions...

   type   atoms  prim   cont   basis
   ---------------------------------------------------------------------------
    c        6     81     81   cc-pVTZ   [8s6p5d3f1g|8s6p5d3f1g]
    h        6     30     30   cc-pVTZ   [4s3p2d1f|4s3p2d1f]
   ---------------------------------------------------------------------------
   total:   12    666    666
   ---------------------------------------------------------------------------

   total number of primitive shells          :   33
   total number of contracted shells         :  198
   total number of cartesian basis functions :  816
   total number of SCF-basis functions       :  666


 maximum number of shells which are related by symmetry :  1


 The symmetry information takes   1 MB

*---------------------------------------------------------------------*
|               simplified C1 algorithm will be applied               |
*---------------------------------------------------------------------*
  MOs are in ASCII format !


 reading orbital data $scfmo  from file mos
 orbital characterization : scfconv=9



              +--------------------------------------------+
              | list of orbitals that will be kept frozen: |
              +--------------------------------------------+
              |   irrep   index      energy     occ/vir    |
              +--------------------------------------------+
              |   a         1      -11.2341     occupied   |
              |   a         2      -11.2336     occupied   |
              |   a         3      -11.2335     occupied   |
              |   a         4      -11.2323     occupied   |
              |   a         5      -11.2323     occupied   |
              |   a         6      -11.2317     occupied   |
              +--------------------------------------------+



   Molecular Orbital Statistic:
   ============================

   -----------------------------
   orbitals in total:
   -----------------------------
    frozen occupied :      6
    active occupied :     15
    active virtual  :    243
    frozen virtual  :      0
    all together    :    264
   -----------------------------


     time in riccmos       cpu:  2.17 sec    wall:  0.11 sec    ratio: 20.1

     total memory allocated for calculation of (Q|P)**(-1/2) : 6 MiB


     calculation of (P|Q) ...
     time in lp2sym        cpu:  1.74 sec    wall:  0.07 sec    ratio: 24.5


     calculation of the Cholesky decomposition of (P|Q)**(-1) ...
     time in invmetri      cpu:  1.91 sec    wall:  0.07 sec    ratio: 26.6

   threshold for RMS(d[D]) in SCF was     :  0.10E-06
   integral neglect threshold             :  0.11E-10
   derivative integral neglect threshold  :  0.10E-07


   =========================================================================

     Energy of reference wave function is  -230.7794314494000
     Maximum orbital residual is           0.5214409272965E-07


     Number of symmetry-nonredundant auxiliary basis functions:      666

     Block lengths for integral files:
        frozen occupied (BOI):        1 MiB
        active occupied (BJI):        1 MiB
        active virtual  (BAI):        2 MiB
        frozen virtual  (BGI):        0 MiB
               general  (BTI):        2 MiB

   =========================================================================




   **************************************************************************
   *                                                                        *
   *          OPTIMIZATION OF THE GROUND STATE CLUSTER AMPLITUDES           *
   *                                                                        *
   **************************************************************************


   Iter.   MP2 energy       Norm(Omega)   Norm(t1)  Norm(t2)     cpu    wall
   ...........................................................................
    1   -231.7293484783     ------          0.00000   0.33587    0.10    0.00
   ...........................................................................


     time in total         cpu:  6.27 sec    wall:  0.26 sec    ratio: 24.1


     **********************************************************************
     *                                                                    *
     *   RHF  energy                             :   -230.7794314494      *
     *   MP2 correlation energy (doubles)        :     -0.9499170289      *
     *                                                                    *
     *   Final MP2 energy                        :   -231.7293484783      *
     *                                                                    *
     *    E(S)   =     -0.5934468472      E(T)   =     -0.3564701818      *
     *    E(OS)  =     -0.7122702411      E(SS)  =     -0.2376467879      *
     *                                                                    *
     *   SCS-MP2 energy                          :   -231.7133713347      *
     *   (computed with  C(OS) =   1.2000  and  C(SS) =   0.3333)         *
     *                                                                    *
     *   SOS-MP2 energy                          :   -231.7053827628      *
     *   (computed with  C(OS) =   1.3000)                                *
     *                                                                    *
     *   Norm of MP1 T2 amplitudes               :      0.3358745191      *
     *                                                                    *
     **********************************************************************



    ------------------------------------------------------------------------
         total  cpu-time :  29.28 seconds
         total wall-time :   1.25 seconds
    ------------------------------------------------------------------------

   ****  ricc2 : all done  ****


    2019-04-01 23:25:18.292 

