STARTING dscf ON 32 PROCESSORS!
RUNNING PROGRAM /beegfs/modfac/apps/TURBOMOLE/7.2.1-official/bin/em64t-unknown-linux-gnu_mpi/dscf_mpi.
PLEASE WAIT UNTIL dscf HAS FINISHED.
Look for the output in slave1.output.
MACHINEFILE is ./hostlist
 this is node-proc. number 1 running on node c-5-32.local
 the total number of node-proc. spawned is  33
  parallel platform: MPP or cluster with fast interconnect

 dscf (c-5-32.local) : TURBOMOLE V7.2 ( 21471 ) 7 Nov 2017 at 16:15:16
 Copyright (C) 2017 TURBOMOLE GmbH, Karlsruhe


    2018-02-20 19:32:36.941 


 SCF run will be profiled !



                             d s c f - program

                   idea & directorship : reinhart ahlrichs
                   program development : marco haeser
                                         michael baer
                           dft version : oliver treutler
           parallelized version : malte v. arnim, gina corongiu, GMD 


                          quantum chemistry group
                          universitaet  karlsruhe
                                  germany




                          References             
                                                 
          TURBOMOLE:                             
              R. Ahlrichs, M. Baer, M. Haeser, H. Horn, and
              C. Koelmel
              Electronic structure calculations on workstation
              computers: the program system TURBOMOLE
              Chem. Phys. Lett. 162: 165 (1989)
          Density Functional:                              
              O. Treutler and R. Ahlrichs                      
              Efficient Molecular Numerical Integration Schemes
              J. Chem. Phys. 102: 346 (1995)                   
          Parallel Version:                                
              Performance of parallel TURBOMOLE for Density    
              Functional Calculations                          
              M. v. Arnim and R. Ahlrichs                      
              J. Comp. Chem. 19: 1746 (1998)                   
                                         




              +--------------------------------------------------+
              | Atomic coordinate, charge and isotop information |
              +--------------------------------------------------+

                    atomic coordinates            atom    charge  isotop
         -1.54034638   -0.35658509    9.55484877    c      6.000     0
         -2.13653041   -2.70703174    8.27018611    n      7.000     0
         -0.01213374   -4.11582446    7.70341964    c      6.000     0
          2.07617955   -2.69586629    8.37160771    n      7.000     0
          1.40743458   -0.29642717    9.50856012    c      6.000     0
         -2.24382472    1.92347097    8.19817677    n      7.000     0
         -0.18242169    3.23173971    7.30258321    c      6.000     0
          1.96218390    1.92420097    7.97465959    n      7.000     0
          4.62936718   -3.68072088    8.21785940    c      6.000     0
          6.07248186   -2.77500802    6.07378105    n      7.000     0
          7.47391882   -0.42526000    6.03720785    c      6.000     0
          9.00020394   -0.57478817    3.51916592    c      6.000     0
          8.01925996   -2.85569574    2.33360542    n      7.000     0
          6.44782323   -4.20964199    3.92427748    c      6.000     0
          5.95796276    1.84948404    5.70939782    n      7.000     0
          6.64278023    3.20343218    3.58154125    c      6.000     0
          8.37817413    1.77683087    2.25879550    n      7.000     0
         -4.66860091   -3.71105514    8.00027256    c      6.000     0
         -6.07300739   -2.65437395    5.89567852    n      7.000     0
         -6.46388288   -3.98796389    3.68309343    c      6.000     0
         -8.15682031   -2.63181497    2.22639124    n      7.000     0
         -9.11372660   -0.40668172    3.51274520    c      6.000     0
         -7.65377407   -0.42083899    6.07792333    c      6.000     0
         -6.31179980    1.97713730    6.04904075    n      7.000     0
         -6.81797958    3.39284378    3.92495305    c      6.000     0
         -8.39541845    1.99874065    2.39481591    n      7.000     0
         -9.25160876   -3.66223652   -0.06623055    c      6.000     0
         -8.19324119   -2.63126865   -2.37077690    n      7.000     0
         -9.00391952   -0.27155837   -3.51451039    c      6.000     0
         -7.47558462   -0.18885337   -6.03441900    c      6.000     0
         -6.16671494   -2.59348792   -6.06555639    n      7.000     0
         -6.64114921   -4.03105777   -3.93674003    c      6.000     0
         -8.18974330    1.99738988   -2.20247146    n      7.000     0
         -6.36575621    3.31046665   -3.51105295    c      6.000     0
         -5.86211074    2.02157006   -5.71245880    n      7.000     0
         -9.40034344    2.98759031    0.05122859    c      6.000     0
         -4.79268052    2.93480421    8.11136993    c      6.000     0
         -4.35507286    3.10123995   -7.73455647    c      6.000     0
         -1.88832849    1.95273508   -8.01520404    n      7.000     0
         -1.41357127   -0.30583706   -9.51612715    c      6.000     0
          1.53008064   -0.46851092   -9.55868057    c      6.000     0
          2.31215211    1.86417231   -8.35343667    n      7.000     0
          0.29940556    3.28873896   -7.50781805    c      6.000     0
         -2.16540694   -2.66700980   -8.35553899    n      7.000     0
         -0.12818182   -4.12288013   -7.61385777    c      6.000     0
          2.04549248   -2.77054789   -8.14238620    n      7.000     0
          4.90999755    2.70842674   -8.13591275    c      6.000     0
          6.26394438    1.65369726   -5.99988595    n      7.000     0
          6.83796834    3.08175801   -3.88647672    c      6.000     0
          8.36824778    1.62818369   -2.34407696    n      7.000     0
          9.08216401   -0.75585965   -3.50243051    c      6.000     0
          7.62078758   -0.73266591   -6.06575614    c      6.000     0
          8.13308610   -3.00800332   -2.25661023    n      7.000     0
          6.42632628   -4.33376847   -3.71925145    c      6.000     0
          6.06281138   -2.98498872   -5.92320238    n      7.000     0
          4.52841366   -3.92657841   -7.98091968    c      6.000     0
         -4.74964390   -3.56066147   -8.20309554    c      6.000     0
          9.12140625   -3.99424553    0.09430811    c      6.000     0
          9.52352391    2.64184904   -0.07591672    c      6.000     0
          4.47621640    2.98914140    7.70663142    c      6.000     0
          5.59374620   -6.32584406    3.52666946    o      8.000     0
          5.87239539    5.31231685    3.00277539    o      8.000     0
         -0.24735173    5.25090188    6.13802153    o      8.000     0
          6.15859385    5.25612792   -3.48009640    o      8.000     0
          5.46231461   -6.37358100   -3.18805699    o      8.000     0
         -5.88064272   -6.18283128   -3.54127685    o      8.000     0
         -5.38620684    5.31892352   -2.84461136    o      8.000     0
          0.01415348   -6.26171412    6.83212323    o      8.000     0
         -0.22758463   -6.25284053   -6.70900720    o      8.000     0
         -6.04120066    5.54104420    3.49460912    o      8.000     0
         -5.52587064   -6.03427349    3.13827858    o      8.000     0
          0.41765499    5.38354100   -6.52090499    o      8.000     0
         -1.25632300    5.85944264    0.75884164    n      0.000     0
          0.47580961    3.85683750   -0.24618218    c      0.000     0
         -0.53938226    1.21547997    0.31260265    c      0.000     0
          1.23030677   -0.83033357   -0.71727012    c      0.000     0
          0.49290256   -2.71844436   -0.31321115    h      0.000     0
          0.65545208    4.19508052   -2.27218100    h      0.000     0
          4.47790997   -5.72810630    8.03216433    h      1.000     0
        -11.16875936   -0.51648577    3.71614474    h      1.000     0
         -8.87879717   -0.53585811    7.74010886    h      1.000     0
         -4.64931758    4.97549603    7.85891783    h      1.000     0
         -5.72514850    2.49851671    9.90393221    h      1.000     0
         -4.47882063   -5.73652767    7.66533882    h      1.000     0
         -5.72857192   -3.36480308    9.74308061    h      1.000     0
         11.13780564   -0.86310501   -3.71144953    h      1.000     0
          8.84798272   -0.81269675   -7.72967606    h      1.000     0
          5.91091368    2.22138894   -9.87879904    h      1.000     0
          4.86756224    4.75346927   -7.87814409    h      1.000     0
          5.53476275   -3.61699213   -9.76266932    h      1.000     0
          4.23902705   -5.94257264   -7.65978208    h      1.000     0
          8.65696751   -0.26329233    7.72682805    h      1.000     0
         11.04617755   -0.72622931    3.78610165    h      1.000     0
          9.29879844    4.69005705   -0.14336880    h      1.000     0
         11.52863351    2.13637186   -0.05482681    h      1.000     0
          8.67369385   -6.00606838    0.15368141    h      1.000     0
         11.17138438   -3.71003733    0.13163039    h      1.000     0
         -8.64787207    0.02351953   -7.72470778    h      1.000     0
        -11.05575033   -0.25042670   -3.77045320    h      1.000     0
        -11.42039812    2.56182311   -0.05674885    h      1.000     0
         -9.10091425    5.02682685    0.07860108    h      1.000     0
        -11.29168359   -3.31695351   -0.03908766    h      1.000     0
         -8.86632403   -5.68765520   -0.08143057    h      1.000     0
          2.33539461   -0.59902032  -11.45976698    h      1.000     0
         -2.27078355   -0.11670457  -11.38976169    h      1.000     0
         -4.05151954    5.09023340   -7.28450477    h      1.000     0
         -5.40537017    2.91571817   -9.50906467    h      1.000     0
         -4.67642608   -5.61100110   -8.00312869    h      1.000     0
         -5.73504613   -3.04089665   -9.94516206    h      1.000     0
          5.63978598   -3.18687346    9.95310969    h      1.000     0
          4.25517268    4.98423960    7.23595752    h      1.000     0
          5.47446045    2.77970154    9.50824737    h      1.000     0
          2.27616946   -0.10882612   11.37592455    h      1.000     0
         -2.35539377   -0.33574708   11.45517154    h      1.000     0
         -1.44115825    5.69734080    2.69619945    h      0.000     0
         -0.56008440    7.69630293    0.37484759    h      0.000     0
         -3.02049951    5.71837439   -0.06652762    h      0.000     0
          3.11006781   -0.68524720    0.13447782    h      0.000     0
          1.45079113   -0.65897547   -2.76737032    h      0.000     0
         -0.76924647    0.97327359    2.35913297    h      0.000     0
         -2.42164889    0.99739632   -0.52915488    h      0.000     0
          2.31411554    4.17236677    0.63273795    h      0.000     0
          0.40672065   11.37480602   -0.15064254    cl     0.000     0
 
       center of nuclear mass  :    0.01021963    0.11578172   -0.00470320
       center of nuclear charge:    0.00037513   -0.43648946   -0.00278733

              +--------------------------------------------------+
              |               basis set information              |
              +--------------------------------------------------+

              we will work with the 1s 3p 5d 7f 9g ... basis set
              ...i.e. with spherical basis functions...

   type   atoms  prim   cont   basis
   ---------------------------------------------------------------------------
    c       39     77     55   cc-pVQZ   [5s4p3d2f1g|21s6p3d2f1g]
    n       25     77     55   cc-pVQZ   [5s4p3d2f1g|21s6p3d2f1g]
    o       12     77     55   cc-pVQZ   [5s4p3d2f1g|21s6p3d2f1g]
    h       46     32     30   cc-pVQZ   [4s3p2d1f|6s3p2d1f]
    cl       1    137     59   cc-pVQZ   [6s5p3d2f1g|42s19p3d2f1g]
   ---------------------------------------------------------------------------
   total:  123   7461   5619
   ---------------------------------------------------------------------------

   total number of primitive shells          :  178
   total number of contracted shells         : 1617
   total number of cartesian basis functions : 7004
   total number of SCF-basis functions       : 5619


 integral neglect threshold       :  0.48E-12
 integral storage threshold THIZE :  0.10E-04
 integral storage threshold THIME :         5


 DENSITY CONVERGENCE CHECK SWITCHED ON !
 SCF CONVERGENCE IF RMS(delta[D]) <     0.1000000000E-06


 symmetry group of the molecule :   c1 

 the group has the following generators :
   c1(z)

    1 symmetry operations found

 there are 1 real representations :   a   

 maximum number of shells which are related by symmetry :  1


    mo occupation :
   irrep   mo's   occupied
    a     5619      258
 
 number of basis functions   :                   5619
 number of occupied orbitals :                    258
 

 automatic virtual orbital shift switched on 
      shift if e(lumo)-e(homo) < 0.10000000    


 keyword $2e-ints_shell_statistics missing in file <control>

 ! One task per shell generated
  No pre-computed optimal task distribution found
  ... using automatic task generation

          ------------------------
          nuclear repulsion energy  :   13457.5478759    
          ------------------------


         -----------------
         -S,T+V- integrals
         -----------------

 1e-integrals will be neglected if expon. factor < 0.477150E-13
 
   Difference densities algorithm switched on.
   The maximal number of linear combinations of
   difference densities is                    20 .

 DIIS switched on: error vector is FDS-SDF
 Max. Iterations for DIIS is     :   5
 DIIS matrix (see manual) 
    Scaling factor of diagonals  :  1.200
    threshold for scaling factor :  0.000

 scf convergence criterion : increment of total energy < .1000000D-06
                  and increment of one-electron energy < .1000000D-03

  MOs are in ASCII format !


 reading orbital data $scfmo  from file mos
 orbital characterization : expanded
 mo provided and orthogonalized by Cholesky decomposition

 DSCF restart information will be dumped onto file mos

 
                                              current damping :  0.300
 ITERATION  ENERGY          1e-ENERGY        2e-ENERGY     RMS[dD(SAO)]   TOL
   1  -3576.2270471382    -31655.542043     14621.767120    0.000D+00 0.476D-12
          max. resid. norm for Fia-block=  4.415D-01 for orbital    186a         
          max. resid. fock norm         =  1.120D+01 for orbital   5125a         
          Delta Eig. =  3308.7526122117 eV 
 
                                              current damping :  0.250
 ITERATION  ENERGY          1e-ENERGY        2e-ENERGY     RMS[dD(SAO)]   TOL
   2  -3589.8144291724    -31740.335824     14692.973519    0.328D-02 0.417D-12
          Norm of current diis error:  7.4277    
          max. resid. norm for Fia-block=  1.335D-01 for orbital      2a         
          max. resid. fock norm         =  4.345D-01 for orbital   5343a         
          Delta Eig. =   792.2770903822 eV 
 
                                              current damping :  0.150
 ITERATION  ENERGY          1e-ENERGY        2e-ENERGY     RMS[dD(SAO)]   TOL
   3  -3590.8640690012    -31746.356088     14697.944143    0.823D-03 0.267D-12
          Norm of current diis error:  2.8406    
          max. resid. norm for Fia-block=  4.626D-02 for orbital    235a         
          max. resid. fock norm         =  5.534D-02 for orbital   5037a         
          Delta Eig. =   172.3031488420 eV 
 
                                              current damping :  0.100
 ITERATION  ENERGY          1e-ENERGY        2e-ENERGY     RMS[dD(SAO)]   TOL
   4  -3591.0782976605    -31754.624132     14705.997959    0.334D-03 0.223D-12
          Norm of current diis error: 0.85649    
          max. resid. norm for Fia-block=  1.437D-02 for orbital     87a         
          max. resid. fock norm         =  3.328D-02 for orbital   5184a         
          Delta Eig. =    23.4117700684 eV 
 
                                              current damping :  0.150
 ITERATION  ENERGY          1e-ENERGY        2e-ENERGY     RMS[dD(SAO)]   TOL
   5  -3591.1007443760    -31751.922805     14703.274185    0.110D-03 0.205D-12
          Norm of current diis error: 0.24730    
          max. resid. norm for Fia-block=  4.207D-03 for orbital    242a         
          max. resid. fock norm         =  5.798D-03 for orbital   4984a         
 mo-orthogonalization: Cholesky decomposition
          Delta Eig. =     2.0506105183 eV 
 
                                              current damping :  0.200
 ITERATION  ENERGY          1e-ENERGY        2e-ENERGY     RMS[dD(SAO)]   TOL
   6  -3591.1029328851    -31753.510180     14704.859371    0.312D-04 0.195D-12
          Norm of current diis error: 0.78084E-01
          max. resid. norm for Fia-block=  1.776D-03 for orbital    243a         
          max. resid. fock norm         =  1.872D-03 for orbital    243a         
          Delta Eig. =     0.2622800606 eV 
 
                                              current damping :  0.250
 ITERATION  ENERGY          1e-ENERGY        2e-ENERGY     RMS[dD(SAO)]   TOL
   7  -3591.1032503334    -31753.179900     14704.528774    0.158D-04 0.185D-12
          Norm of current diis error: 0.31928E-01
          max. resid. norm for Fia-block=  8.480D-04 for orbital    243a         
          max. resid. fock norm         =  8.719D-04 for orbital    243a         
          Delta Eig. =     0.0392250882 eV 
 
                                              current damping :  0.300
 ITERATION  ENERGY          1e-ENERGY        2e-ENERGY     RMS[dD(SAO)]   TOL
   8  -3591.1033177787    -31753.250460     14704.599266    0.684D-05 0.176D-12
          Norm of current diis error: 0.12773E-01
          max. resid. norm for Fia-block=  4.697D-04 for orbital    241a         
          max. resid. fock norm         =  4.735D-04 for orbital    241a         
          Delta Eig. =     0.0084657639 eV 
 
                                              current damping :  0.350
 ITERATION  ENERGY          1e-ENERGY        2e-ENERGY     RMS[dD(SAO)]   TOL
   9  -3591.1033311369    -31753.246932     14704.595725    0.297D-05 0.169D-12
          Norm of current diis error: 0.55150E-02
          max. resid. norm for Fia-block=  2.269D-04 for orbital    235a         
          max. resid. fock norm         =  2.281D-04 for orbital    235a         
          Delta Eig. =     0.0028178996 eV 
 
                                              current damping :  0.400
 ITERATION  ENERGY          1e-ENERGY        2e-ENERGY     RMS[dD(SAO)]   TOL
  10  -3591.1033337792    -31753.252667     14704.601457    0.106D-05 0.163D-12
          Norm of current diis error: 0.26353E-02
          max. resid. norm for Fia-block=  1.092D-04 for orbital    235a         
          max. resid. fock norm         =  1.115D-04 for orbital    236a         
 mo-orthogonalization: Cholesky decomposition
          Delta Eig. =     0.0021357965 eV 
 
                                              current damping :  0.450
 ITERATION  ENERGY          1e-ENERGY        2e-ENERGY     RMS[dD(SAO)]   TOL
  11  -3591.1033343849    -31753.249066     14704.597856    0.430D-06 0.157D-12
          Norm of current diis error: 0.12030E-02
          max. resid. norm for Fia-block=  6.165D-05 for orbital    235a         
          max. resid. fock norm         =  6.226D-05 for orbital    235a         
          Delta Eig. =     0.0004684192 eV 
 
                                              current damping :  0.500
 ITERATION  ENERGY          1e-ENERGY        2e-ENERGY     RMS[dD(SAO)]   TOL
  12  -3591.1033345239    -31753.252303     14704.601093    0.147D-06 0.152D-12
          Norm of current diis error: 0.67809E-03
          max. resid. norm for Fia-block=  3.114D-05 for orbital    235a         
          max. resid. fock norm         =  3.222D-05 for orbital    230a         
          Delta Eig. =     0.0005324075 eV 

 DENSITY CONVERGED !

 
                                              current damping :  0.550
 ITERATION  ENERGY          1e-ENERGY        2e-ENERGY     RMS[dD(SAO)]   TOL
  13  -3591.1033345723    -31753.251238     14704.600028    0.792D-07 0.147D-12
          Norm of current diis error: 0.30593E-03
          max. resid. norm for Fia-block=  1.698D-05 for orbital    235a         
          max. resid. fock norm         =  1.706D-05 for orbital    235a         
          Delta Eig. =     0.0001443680 eV 

 DENSITY CONVERGED !

 
                                              current damping :  0.600
 ITERATION  ENERGY          1e-ENERGY        2e-ENERGY     RMS[dD(SAO)]   TOL
  14  -3591.1033345915    -31753.251550     14704.600339    0.383D-07 0.142D-12
          Norm of current diis error: 0.15166E-03
          max. resid. norm for Fia-block=  8.145D-06 for orbital    235a         
          max. resid. fock norm         =  8.852D-06 for orbital   2920a         
          Delta Eig. =     0.0000740397 eV 

 ENERGY & DENSITY CONVERGED !

 
                                              current damping :  0.650
 ITERATION  ENERGY          1e-ENERGY        2e-ENERGY     RMS[dD(SAO)]   TOL
  15  -3591.1033346104    -31753.251502     14704.600291    0.228D-07 0.136D-12
          max. resid. norm for Fia-block=  1.746D-06 for orbital    235a         
          max. resid. fock norm         =  9.535D-06 for orbital   2920a         

 convergence criteria satisfied after    15 iterations


                  ------------------------------------------ 
                 |  total energy      =  -3591.10333461044  |
                  ------------------------------------------ 
                 :  kinetic energy    =   3585.35954983263  :
                 :  potential energy  =  -7176.46288444307  :
                 :  virial theorem    =      1.99840055152  :
                 :  wavefunction norm =      1.00000000000  :
                  .......................................... 


 <geterg> : there is no data group $energy 


 <skperg> : $end is missing 


 orbitals $scfmo  will be written to file mos

    irrep                254a        255a        256a        257a        258a   
 eigenvalues H         -0.39282    -0.38938    -0.38863    -0.38466    -0.38334
            eV         -10.6893    -10.5957    -10.5753    -10.4672    -10.4312
 occupation              2.0000      2.0000      2.0000      2.0000      2.0000 

    irrep                259a        260a        261a        262a        263a   
 eigenvalues H          0.07834     0.08092     0.08120     0.08806     0.08868
            eV           2.1318      2.2020      2.2095      2.3964      2.4131
 
 
 
 
 ==============================================================================
                           electrostatic moments
 ==============================================================================

 reference point for electrostatic moments:    0.00000   0.00000   0.00000

 
              nuc           elec       ->  total
 ------------------------------------------------------------------------------
                          charge      
 ------------------------------------------------------------------------------
         516.000000    -516.000000      -0.000000
 
 ------------------------------------------------------------------------------
                       dipole moment  
 ------------------------------------------------------------------------------
   x       0.193565      -0.249967      -0.056402
   y    -225.228559     225.195262      -0.033297
   z      -1.438263       1.469810       0.031547
 
   | dipole moment | =     0.0727 a.u. =     0.1848 debye 
 
 ------------------------------------------------------------------------------
                     quadrupole moment
 ------------------------------------------------------------------------------
  xx   18905.294333  -19103.990953    -198.696620
  yy    6453.799214   -6857.470886    -403.671672
  zz   18650.553673  -18849.287307    -198.733634
  xy    -225.795347     222.515940      -3.279407
  xz    -269.836226     269.795493      -0.040734
  yz      39.263823     -38.817016       0.446806
 
     1/3  trace=    -267.033975
     anisotropy=     205.036714
 
 ==============================================================================
 

    dscf profiling
  --------------------------------------------------------------------
             module   cpu total (s)       %  wall total (s)       %

          dscf.total         66062.8  100.00         60810.2  100.00
        dscf.prepare           209.9    0.32           209.9    0.35
      prepare.oneint             1.9    0.00             1.9    0.00
     prepare.moinput             1.3    0.00             1.3    0.00
     moinput_orthmos           205.3    0.31           205.1    0.34
            dscf.scf         65846.1   99.67         60593.4   99.64
             scf.pre             0.0    0.00             0.0    0.00
        scf.makedmat            71.7    0.11            80.6    0.13
          scf.shloop         57884.4   87.62         57834.2   95.11
          shloop_omp         57878.4   87.61         57828.3   95.10
          scf.symcar             8.5    0.01             8.5    0.01
        scf.makefock            19.2    0.03            23.8    0.04
          scf.newerg             0.6    0.00             0.6    0.00
          scf.newcnv          1556.8    2.36           211.2    0.35
           scf.fdiag          4288.3    6.49           536.9    0.88
         diag_tritrn          1075.4    1.63           134.7    0.22
          diag_rdiag          3202.0    4.85           400.3    0.66
          scf.modump          1648.5    2.50          1656.2    2.72
           ortho_all           246.2    0.37           120.0    0.20
            scf.post           120.8    0.18           121.0    0.20
        dscf.postscf             6.8    0.01             6.9    0.01
 


    ------------------------------------------------------------------------
         total  cpu-time : 18 hours 21 minutes and  3 seconds
         total wall-time : 16 hours 53 minutes and 31 seconds
    ------------------------------------------------------------------------

   ****  dscf : all done  ****


    2018-02-21 12:26:07.321 

