
   OpenMP run-time library returned nthreads = 16
 operating system is UNIX !

 dscf (c-3-41) : TURBOMOLE V7.3 ( 22142 ) 4 Jul 2018 at 18:12:42
 Copyright (C) 2018 TURBOMOLE GmbH, Karlsruhe


    2019-04-02 19:47:15.386 



                             d s c f - program

                   idea & directorship : reinhart ahlrichs
                   program development : marco haeser
                                         michael baer
                           dft version : oliver treutler


                          quantum chemistry group
                          universitaet  karlsruhe
                                  germany




                          References             
                                                 
          TURBOMOLE:                             
              R. Ahlrichs, M. Baer, M. Haeser, H. Horn, and
              C. Koelmel
              Electronic structure calculations on workstation
              computers: the program system TURBOMOLE
              Chem. Phys. Lett. 162: 165 (1989)
          Density Functional:                              
              O. Treutler and R. Ahlrichs                      
              Efficient Molecular Numerical Integration Schemes
              J. Chem. Phys. 102: 346 (1995)                   
          Parallel Version:                                
              Performance of parallel TURBOMOLE for Density    
              Functional Calculations                          
              M. v. Arnim and R. Ahlrichs                      
              J. Comp. Chem. 19: 1746 (1998)                   
                                         




              +--------------------------------------------------+
              | Atomic coordinate, charge and isotop information |
              +--------------------------------------------------+

                    atomic coordinates            atom    charge  isotop
          1.54720758    1.63304905    0.35580919    c      6.000     0
          2.77055320    3.24403175    0.65142905    h      1.000     0
          2.58702963   -0.73798330   -0.12604130    c      6.000     0
          4.61666967   -0.96727888   -0.20895541    h      1.000     0
          1.00982921   -2.81284449   -0.51379393    c      6.000     0
          1.81574005   -4.65168223   -0.89857893    h      1.000     0
         -1.60459596   -2.51429450   -0.41554404    c      6.000     0
         -2.82905121   -4.12311840   -0.71725162    h      1.000     0
         -2.64464424   -0.14367626    0.07640950    c      6.000     0
         -4.67270062    0.08486340    0.17646651    h      1.000     0
         -1.06824764    1.93017262    0.45784135    c      6.000     0
         -1.87566028    3.76747387    0.84330572    h      1.000     0
         -4.53237960    0.30640185    6.65261336    n      7.000     0
         -3.37041359    2.49407696    7.18185798    c      6.000     0
         -4.59420790    4.10633735    7.48896132    h      1.000     0
         -0.75840598    2.76024061    7.35225612    c      6.000     0
          0.05766991    4.58127542    7.78919160    h      1.000     0
          0.75517280    0.64945563    6.94745050    c      6.000     0
          2.79148341    0.78246264    7.05107270    h      1.000     0
         -0.41750035   -1.63457138    6.39251432    c      6.000     0
          0.67055579   -3.32705146    6.04466310    h      1.000     0
         -3.04519152   -1.70645256    6.26883284    c      6.000     0
         -4.00678419   -3.46097517    5.83638286    h      1.000     0
 
       center of nuclear mass  :   -0.97302812    0.02120287    3.40687820
       center of nuclear charge:   -0.94096369    0.02004983    3.38679209

              +--------------------------------------------------+
              |               basis set information              |
              +--------------------------------------------------+

              we will work with the 1s 3p 5d 7f 9g ... basis set
              ...i.e. with spherical basis functions...

   type   atoms  prim   cont   basis
   ---------------------------------------------------------------------------
    c       11     77     57   def2-QZVP   [7s4p3d2f1g|15s8p3d2f1g]
    h       11     33     30   def2-QZVP   [4s3p2d1f|7s3p2d1f]
    n        1     77     57   def2-QZVP   [7s4p3d2f1g|15s8p3d2f1g]
   ---------------------------------------------------------------------------
   total:   23   1287   1014
   ---------------------------------------------------------------------------

   total number of primitive shells          :   71
   total number of contracted shells         :  314
   total number of cartesian basis functions : 1249
   total number of SCF-basis functions       : 1014


 integral neglect threshold       :  0.27E-13
 integral storage threshold THIZE :  0.10E-04
 integral storage threshold THIME :         5


 DENSITY CONVERGENCE CHECK SWITCHED ON !
 SCF CONVERGENCE IF RMS(delta[D]) <     0.1000000000E-06


 symmetry group of the molecule :   c1 

 the group has the following generators :
   c1(z)

    1 symmetry operations found

 there are 1 real representations :   a   

 maximum number of shells which are related by symmetry :  1


    mo occupation :
   irrep   mo's   occupied
    a     1014       42
 
 number of basis functions   :                   1014
 number of occupied orbitals :                     42
 

 automatic virtual orbital shift switched on 
      shift if e(lumo)-e(homo) < 0.10000000    


          ------------------------
          nuclear repulsion energy  :   630.674434831    
          ------------------------


         -----------------
         -S,T+V- integrals
         -----------------

 1e-integrals will be neglected if expon. factor < 0.267571E-14
 
   Difference densities algorithm switched on.
   The maximal number of linear combinations of
   difference densities is                    20 .

 DIIS switched on: error vector is FDS-SDF
 Max. Iterations for DIIS is     :   5
 DIIS matrix (see manual) 
    Scaling factor of diagonals  :  1.200
    threshold for scaling factor :  0.000

 scf convergence criterion : increment of total energy < .1000000D-08
                  and increment of one-electron energy < .1000000D-05

  MOs are in ASCII format !


 reading orbital data $scfmo  from file mos
 orbital characterization : scfconv=9

 DSCF restart information will be dumped onto file mos

 
                                              current damping :  0.700
 ITERATION  ENERGY          1e-ENERGY        2e-ENERGY     RMS[dD(SAO)]   TOL
   1  -477.47436918705    -1898.6580228     790.50921878    0.000D+00 0.267D-13
          max. resid. norm for Fia-block=  2.293D-01 for orbital      1a         
          max. resid. fock norm         =  7.071D-01 for orbital   1014a         
          Delta Eig. =    54.6042343137 eV 
 
                                              current damping :  0.650
 ITERATION  ENERGY          1e-ENERGY        2e-ENERGY     RMS[dD(SAO)]   TOL
   2  -477.56281005950    -1896.9614243     788.72417944    0.652D-03 0.177D-13
          Norm of current diis error: 0.97902    
          max. resid. norm for Fia-block=  1.009D-01 for orbital      1a         
          max. resid. fock norm         =  2.902D-01 for orbital   1014a         
          Delta Eig. =    22.6542622782 eV 
 
                                              current damping :  0.600
 ITERATION  ENERGY          1e-ENERGY        2e-ENERGY     RMS[dD(SAO)]   TOL
   3  -477.58068425424    -1897.2340110     788.97889191    0.314D-03 0.131D-13
          Norm of current diis error: 0.42166    
          max. resid. norm for Fia-block=  4.115D-02 for orbital      1a         
          max. resid. fock norm         =  1.147D-01 for orbital   1014a         
          Delta Eig. =     9.2488640947 eV 
 
                                              current damping :  0.650
 ITERATION  ENERGY          1e-ENERGY        2e-ENERGY     RMS[dD(SAO)]   TOL
   4  -477.58433631139    -1897.0517500     788.79297882    0.132D-03 0.114D-13
          Norm of current diis error: 0.16817    
          max. resid. norm for Fia-block=  1.539D-02 for orbital      1a         
          max. resid. fock norm         =  4.337D-02 for orbital   1014a         
          Delta Eig. =     3.4559275548 eV 
 
                                              current damping :  0.500
 ITERATION  ENERGY          1e-ENERGY        2e-ENERGY     RMS[dD(SAO)]   TOL
   5  -477.58494512158    -1897.0348074     788.77542748    0.497D-04 0.105D-13
          Norm of current diis error: 0.71124E-01
          max. resid. norm for Fia-block=  6.086D-03 for orbital      1a         
          max. resid. fock norm         =  1.700D-02 for orbital   1014a         
 mo-orthogonalization: Cholesky decomposition
          Delta Eig. =     1.4675368478 eV 
 
                                              current damping :  0.350
 ITERATION  ENERGY          1e-ENERGY        2e-ENERGY     RMS[dD(SAO)]   TOL
   6  -477.58507152246    -1897.0203714     788.76086504    0.231D-04 0.977D-14
          Norm of current diis error: 0.26931E-01
          max. resid. norm for Fia-block=  1.996D-03 for orbital      1a         
          max. resid. fock norm         =  5.696D-03 for orbital   1014a         
          Delta Eig. =     0.5615654105 eV 
 
                                              current damping :  0.200
 ITERATION  ENERGY          1e-ENERGY        2e-ENERGY     RMS[dD(SAO)]   TOL
   7  -477.58509488965    -1897.0144084     788.75487870    0.949D-05 0.913D-14
          Norm of current diis error: 0.96475E-02
          max. resid. norm for Fia-block=  5.681D-04 for orbital     39a         
          max. resid. fock norm         =  1.457D-03 for orbital   1014a         
          Delta Eig. =     0.1589830747 eV 
 
                                              current damping :  0.050
 ITERATION  ENERGY          1e-ENERGY        2e-ENERGY     RMS[dD(SAO)]   TOL
   8  -477.58509972171    -1897.0131550     788.75362048    0.384D-05 0.853D-14
          Norm of current diis error: 0.41907E-02
          max. resid. norm for Fia-block=  3.195D-04 for orbital     40a         
          max. resid. fock norm         =  3.197D-04 for orbital     40a         
          Delta Eig. =     0.0376016033 eV 
 
                                              current damping :  0.050
 ITERATION  ENERGY          1e-ENERGY        2e-ENERGY     RMS[dD(SAO)]   TOL
   9  -477.58510128277    -1897.0125788     788.75304267    0.181D-05 0.790D-14
          Norm of current diis error: 0.22096E-02
          max. resid. norm for Fia-block=  2.595D-04 for orbital     39a         
          max. resid. fock norm         =  2.640D-04 for orbital     39a         
          Delta Eig. =     0.0038634699 eV 
 
                                              current damping :  0.100
 ITERATION  ENERGY          1e-ENERGY        2e-ENERGY     RMS[dD(SAO)]   TOL
  10  -477.58510183808    -1897.0127339     788.75319722    0.111D-05 0.730D-14
          Norm of current diis error: 0.10962E-02
          max. resid. norm for Fia-block=  1.290D-04 for orbital     40a         
          max. resid. fock norm         =  1.294D-04 for orbital     40a         
 mo-orthogonalization: Cholesky decomposition
          Delta Eig. =     0.0061834905 eV 
 
                                              current damping :  0.150
 ITERATION  ENERGY          1e-ENERGY        2e-ENERGY     RMS[dD(SAO)]   TOL
  11  -477.58510196371    -1897.0126678     788.75313096    0.606D-06 0.692D-14
          Norm of current diis error: 0.51637E-03
          max. resid. norm for Fia-block=  6.820D-05 for orbital     39a         
          max. resid. fock norm         =  7.307D-05 for orbital     39a         
          Delta Eig. =     0.0022014952 eV 
 
                                              current damping :  0.200
 ITERATION  ENERGY          1e-ENERGY        2e-ENERGY     RMS[dD(SAO)]   TOL
  12  -477.58510198502    -1897.0127357     788.75319884    0.225D-06 0.674D-14
          Norm of current diis error: 0.17741E-03
          max. resid. norm for Fia-block=  2.124D-05 for orbital     39a         
          max. resid. fock norm         =  2.145D-05 for orbital     39a         
          Delta Eig. =     0.0006962567 eV 
 
                                              current damping :  0.050
 ITERATION  ENERGY          1e-ENERGY        2e-ENERGY     RMS[dD(SAO)]   TOL
  13  -477.58510198798    -1897.0127466     788.75320975    0.116D-06 0.662D-14
          Norm of current diis error: 0.57190E-04
          max. resid. norm for Fia-block=  8.286D-06 for orbital     39a         
          max. resid. fock norm         =  8.355D-06 for orbital     39a         
          Delta Eig. =     0.0000957597 eV 

 DENSITY CONVERGED !

 
                                              current damping :  0.050
 ITERATION  ENERGY          1e-ENERGY        2e-ENERGY     RMS[dD(SAO)]   TOL
  14  -477.58510198834    -1897.0127520     788.75321520    0.544D-07 0.762D-14
          Norm of current diis error: 0.19615E-04
          max. resid. norm for Fia-block=  2.140D-06 for orbital     38a         
          max. resid. fock norm         =  2.262D-06 for orbital     38a         
          Delta Eig. =     0.0000298919 eV 

 ENERGY & DENSITY CONVERGED !

 
                                              current damping :  0.050
 ITERATION  ENERGY          1e-ENERGY        2e-ENERGY     RMS[dD(SAO)]   TOL
  15  -477.58510198838    -1897.0127528     788.75321598    0.185D-07 0.774D-14
          max. resid. norm for Fia-block=  5.198D-07 for orbital     38a         
          max. resid. fock norm         =  8.094D-07 for orbital   1005a         

 convergence criteria satisfied after    15 iterations


                  ------------------------------------------ 
                 |  total energy      =   -477.58510198838  |
                  ------------------------------------------ 
                 :  kinetic energy    =    476.96987346875  :
                 :  potential energy  =   -954.55497545713  :
                 :  virial theorem    =      1.99871179290  :
                 :  wavefunction norm =      1.00000000000  :
                  .......................................... 


 orbitals $scfmo  will be written to file mos

    irrep                 38a         39a         40a         41a         42a   
 eigenvalues H         -0.41459    -0.37965    -0.34622    -0.33451    -0.32840
            eV         -11.2817    -10.3308     -9.4212     -9.1025     -8.9364
 occupation              2.0000      2.0000      2.0000      2.0000      2.0000 

    irrep                 43a         44a         45a         46a         47a   
 eigenvalues H          0.09772     0.10175     0.10783     0.11193     0.11450
            eV           2.6592      2.7689      2.9344      3.0459      3.1156
 
 
 
 
 ==============================================================================
                           electrostatic moments
 ==============================================================================

 reference point for electrostatic moments:    0.00000   0.00000   0.00000

 
              nuc           elec       ->  total
 ------------------------------------------------------------------------------
                          charge      
 ------------------------------------------------------------------------------
          84.000000     -84.000000       0.000000
 
 ------------------------------------------------------------------------------
                       dipole moment  
 ------------------------------------------------------------------------------
   x     -79.040950      79.912150       0.871200
   y       1.684186      -1.635592       0.048593
   z     284.490536    -284.494566      -0.004030
 
   | dipole moment | =     0.8726 a.u. =     2.2178 debye 
 
 ------------------------------------------------------------------------------
                     quadrupole moment
 ------------------------------------------------------------------------------
  xx     511.459975    -566.126544     -54.666568
  yy     372.684179    -419.276706     -46.592527
  zz    1958.561654   -2017.851667     -59.290013
  xy     -38.227901      38.288865       0.060964
  xz    -525.515936     531.866414       6.350477
  yz     212.207687    -209.406882       2.800805
 
     1/3  trace=     -53.516369
     anisotropy=      16.383731
 
 ==============================================================================
 


    ------------------------------------------------------------------------
         total  cpu-time :  6 hours 50 minutes and 32 seconds
         total wall-time : 26 minutes and 12 seconds
    ------------------------------------------------------------------------

   ****  dscf : all done  ****


    2019-04-02 20:13:27.170 

