STARTING dscf ON 24 PROCESSORS!
RUNNING PROGRAM /beegfs/modfac/apps/TURBOMOLE/7.2.1-official/bin/em64t-unknown-linux-gnu_mpi/dscf_mpi.
PLEASE WAIT UNTIL dscf HAS FINISHED.
Look for the output in slave1.output.
MACHINEFILE is ./hostlist
 this is node-proc. number 1 running on node c-4-7.local
 the total number of node-proc. spawned is  25
  parallel platform: MPP or cluster with fast interconnect

 dscf (c-4-7.local) : TURBOMOLE V7.2 ( 21471 ) 7 Nov 2017 at 16:15:16
 Copyright (C) 2017 TURBOMOLE GmbH, Karlsruhe


    2018-02-24 03:52:08.767 


 SCF run will be profiled !



                             d s c f - program

                   idea & directorship : reinhart ahlrichs
                   program development : marco haeser
                                         michael baer
                           dft version : oliver treutler
           parallelized version : malte v. arnim, gina corongiu, GMD 


                          quantum chemistry group
                          universitaet  karlsruhe
                                  germany




                          References             
                                                 
          TURBOMOLE:                             
              R. Ahlrichs, M. Baer, M. Haeser, H. Horn, and
              C. Koelmel
              Electronic structure calculations on workstation
              computers: the program system TURBOMOLE
              Chem. Phys. Lett. 162: 165 (1989)
          Density Functional:                              
              O. Treutler and R. Ahlrichs                      
              Efficient Molecular Numerical Integration Schemes
              J. Chem. Phys. 102: 346 (1995)                   
          Parallel Version:                                
              Performance of parallel TURBOMOLE for Density    
              Functional Calculations                          
              M. v. Arnim and R. Ahlrichs                      
              J. Comp. Chem. 19: 1746 (1998)                   
                                         




              +--------------------------------------------------+
              | Atomic coordinate, charge and isotop information |
              +--------------------------------------------------+

                    atomic coordinates            atom    charge  isotop
         12.63968419   -1.83655794    3.92503315    c      6.000     0
         -2.25399146   12.40612891   -3.12066365    c      6.000     0
         -3.48368066   13.22846418   -0.60607139    c      6.000     0
         13.36855989   -3.13342015    1.41975574    c      6.000     0
         13.97392769   -7.34067937   -0.86157106    c      6.000     0
         -7.55426512   13.28346425    1.98199251    c      6.000     0
         13.30824364   -6.01964491    1.62749182    c      6.000     0
         -6.30493728   12.58972413   -0.53497677    c      6.000     0
        -10.34524069   12.51900230    2.10836032    c      6.000     0
         14.04132936  -10.22875399   -0.64875191    c      6.000     0
         14.72168977  -11.52775376   -3.14435584    c      6.000     0
        -11.58322160   13.19003954    4.63749760    c      6.000     0
          7.26214364    7.44334532    0.37389783    c      6.000     0
         10.16900072    4.55782325    1.94636797    c      6.000     0
          4.24800977   10.20874905   -1.22059478    c      6.000     0
          9.16168310    9.35774791    0.24027616    c      6.000     0
         11.61194538    8.75852692    1.10109994    c      6.000     0
          8.47896153   11.73926330   -0.74813770    c      6.000     0
         10.60486617    2.07438114    2.65105425    n      7.000     0
          1.73236142   10.57117648   -1.81951641    n      7.000     0
         12.13905716    6.38497262    1.98520579    c      6.000     0
          6.05033859   12.18380976   -1.51511733    c      6.000     0
          0.60239562   12.62401322   -3.02594406    c      6.000     0
         12.77489485    1.02124647    3.69303787    c      6.000     0
          7.80093094    5.06240661    1.19259591    n      7.000     0
          4.82721126    7.90900287   -0.31723420    n      7.000     0
         14.64992682    2.23066688    4.31888007    o      8.000     0
          1.76594450   14.43289904   -3.88621635    o      8.000     0
          9.19505083    0.80703403    2.16408589    h      1.000     0
          0.49632027    9.21113866   -1.13922482    h      1.000     0
          5.43530276   13.96437471   -2.30404862    h      1.000     0
         13.97993125    5.83472281    2.67676001    h      1.000     0
         13.07579932   10.19974803    1.04611361    h      1.000     0
          9.90377742   13.21344517   -0.88841710    h      1.000     0
         -2.91254854   13.60269064   -4.67039156    h      1.000     0
         13.95961291   -2.38172896    5.41848586    h      1.000     0
         15.26671000   -2.51128256    0.86308818    h      1.000     0
         -3.18482075   15.26241626   -0.33449921    h      1.000     0
         12.05748428   -2.52518601   -0.06348195    h      1.000     0
         -2.54586542   12.25097943    0.95956155    h      1.000     0
         10.73009588   -2.43068121    4.45869432    h      1.000     0
         -2.79791835   10.44590615   -3.50501026    h      1.000     0
         -7.28459629   13.55917050   -2.09007228    h      1.000     0
         14.62959816   -6.63315295    3.10817161    h      1.000     0
         15.82367965   -6.66555720   -1.52311534    h      1.000     0
         -7.38058693   15.32788463    2.31296876    h      1.000     0
         -6.52495050   12.34861439    3.52492410    h      1.000     0
         12.60013600   -6.78666795   -2.31839087    h      1.000     0
         -6.52253530   10.55226821   -0.85722649    h      1.000     0
         11.41668948   -6.61728103    2.24164106    h      1.000     0
        -11.37841425   13.44195115    0.56151620    h      1.000     0
         15.41363989  -10.76848144    0.81223270    h      1.000     0
         12.19562020  -10.91181945    0.01013425    h      1.000     0
        -10.49590847   10.47589912    1.77858520    h      1.000     0
         16.59198942  -10.92861203   -3.80327060    h      1.000     0
        -11.49826031   15.23065722    4.98852070    h      1.000     0
        -10.61625845   12.24282217    6.20606934    h      1.000     0
         13.35336099  -11.05391683   -4.62501508    h      1.000     0
        -13.57341553   12.62074745    4.68274997    h      1.000     0
         14.75042165  -13.58771607   -2.94257793    h      1.000     0
         -5.09425181   -3.26446829    2.11259038    c      6.000     0
         -6.61040292   -4.75733874    0.08126498    c      6.000     0
         -8.50624721   -5.36569200    4.12616180    c      6.000     0
         -9.22036246   -5.17207366    1.33093207    c      6.000     0
         -5.51292655   -2.53359755   -6.39260694    c      6.000     0
        -14.43286098   -0.89761626   -0.45004351    c      6.000     0
         -2.35410965   -4.52102398   -3.44989424    c      6.000     0
          4.37590639   -6.00023831    1.27616147    c      6.000     0
        -13.03287656   -4.77920300   -2.80194771    c      6.000     0
         -6.00344632   -7.10497801   -5.13480051    c      6.000     0
        -14.89307840   -5.17845615    1.59366510    c      6.000     0
          5.11682730   -6.92592709   -1.36681123    c      6.000     0
         -5.12272030   -4.47703839   -4.29552647    c      6.000     0
        -13.30960613   -3.54496180   -0.19774985    c      6.000     0
         -7.90668881   -8.05053249    4.99471340    c      6.000     0
          6.20475335   -9.60716333   -1.31870471    c      6.000     0
          7.01852920  -10.52513555   -3.93954749    c      6.000     0
         -2.79238232    0.82253562    1.41526416    c      6.000     0
         -3.54304985    3.31676432    1.03872907    c      6.000     0
         -6.95253272    1.19069825    1.43942626    c      6.000     0
         -4.98743605   -0.54970802    1.68120087    n      7.000     0
          1.35596315    1.63005179    1.13262878    c      6.000     0
          0.82986576    4.12938093    0.75050968    n      7.000     0
          3.87741265    0.99531533    1.11521875    n      7.000     0
          3.38488039   -3.42702256    1.28339395    n      7.000     0
         -1.63547074    5.17945030    0.64860103    c      6.000     0
          4.94741263   -1.42660914    1.17850718    c      6.000     0
         -0.41115776   -0.10895343    1.47896618    n      7.000     0
         -6.15541399    3.50769437    1.06283321    n      7.000     0
        -10.82511939   -3.06362886    0.91742552    o      8.000     0
         -6.77249515   -3.55135046   -2.27580874    o      8.000     0
         -6.25302482   -3.83161432    4.47089994    o      8.000     0
          7.28768336   -1.63511226    1.12514915    o      8.000     0
         -1.89907835    7.46450682    0.22664537    o      8.000     0
        -10.18549481   -9.49683427    4.73411143    o      8.000     0
          1.49483001   -3.02728986    1.37112338    h      1.000     0
          5.20485103    2.45085230    1.03941168    h      1.000     0
          2.30957988    5.40312756    0.41045353    h      1.000     0
         -3.11682656   -3.85761260    2.18339681    h      1.000     0
         -5.70908004   -6.61786383   -0.08283500    h      1.000     0
        -10.08568850   -6.92367859    0.66521240    h      1.000     0
         -9.93369499  -11.12185288    5.53882135    h      1.000     0
         -9.99874615   -4.55955899    5.30382850    h      1.000     0
         -8.89333078    0.57167588    1.54354772    h      1.000     0
          3.45551875   -6.85480819   -2.60813767    h      1.000     0
          6.02613770   -6.06387393    2.52264593    h      1.000     0
          6.51786291   -5.61396746   -2.14583799    h      1.000     0
          4.79769968  -10.91466672   -0.52880946    h      1.000     0
          7.83174237   -9.65402288   -0.03280241    h      1.000     0
          2.91320857   -7.21727828    2.09049035    h      1.000     0
         -1.76292955   -2.66346694   -2.76727156    h      1.000     0
         -7.26421341   -7.98831866    6.96555229    h      1.000     0
         -6.37700073   -8.85375861    3.83358097    h      1.000     0
        -11.78749503   -3.64157613   -3.99269589    h      1.000     0
         -4.93676908   -0.65926494   -5.74004732    h      1.000     0
         -2.03733749   -5.91390741   -1.94936531    h      1.000     0
         -7.50742333   -2.45646532   -6.92995982    h      1.000     0
         -1.14346513   -5.04750102   -5.04264172    h      1.000     0
         -7.98041441   -7.04009544   -5.73245357    h      1.000     0
        -13.25767009    0.26431640   -1.69205887    h      1.000     0
        -14.02786087   -7.03145404    1.90401046    h      1.000     0
        -14.53921644    0.01289615    1.40345776    h      1.000     0
        -14.88929190   -4.92650299   -3.70437412    h      1.000     0
        -15.09684589   -4.23930362    3.42506047    h      1.000     0
         -4.39569702   -3.03669200   -8.05887641    h      1.000     0
        -16.33957578   -1.00104686   -1.24444172    h      1.000     0
        -12.25298007   -6.69120057   -2.66662224    h      1.000     0
         -4.85334330   -7.77316186   -6.71992755    h      1.000     0
        -16.77964835   -5.47929086    0.79713712    h      1.000     0
         -5.82111117   -8.49059029   -3.60624988    h      1.000     0
          5.40915389  -10.56928448   -5.24309553    h      1.000     0
          8.44861836   -9.26522391   -4.74835848    h      1.000     0
          7.82454229  -12.42883904   -3.85538318    h      1.000     0
 
       center of nuclear mass  :    0.42380960    0.98282447    0.33145711
       center of nuclear charge:    0.35656973    0.83526067    0.28494929

              +--------------------------------------------------+
              |               basis set information              |
              +--------------------------------------------------+

              we will work with the 1s 3p 5d 7f 9g ... basis set
              ...i.e. with spherical basis functions...

   type   atoms  prim   cont   basis
   ---------------------------------------------------------------------------
    c       45     77     55   cc-pVQZ   [5s4p3d2f1g|21s6p3d2f1g]
    n       10     77     55   cc-pVQZ   [5s4p3d2f1g|21s6p3d2f1g]
    o        8     77     55   cc-pVQZ   [5s4p3d2f1g|21s6p3d2f1g]
    h       70     32     30   cc-pVQZ   [4s3p2d1f|6s3p2d1f]
   ---------------------------------------------------------------------------
   total:  133   7091   5565
   ---------------------------------------------------------------------------

   total number of primitive shells          :  111
   total number of contracted shells         : 1645
   total number of cartesian basis functions : 6860
   total number of SCF-basis functions       : 5565


 integral neglect threshold       :  0.49E-14
 integral storage threshold THIZE :  0.10E-04
 integral storage threshold THIME :         5


 DENSITY CONVERGENCE CHECK SWITCHED ON !
 SCF CONVERGENCE IF RMS(delta[D]) <     0.1000000000E-06


 symmetry group of the molecule :   c1 

 the group has the following generators :
   c1(z)

    1 symmetry operations found

 there are 1 real representations :   a   

 maximum number of shells which are related by symmetry :  1


    mo occupation :
   irrep   mo's   occupied
    a     5565      237
 
 number of basis functions   :                   5565
 number of occupied orbitals :                    237
 

 automatic virtual orbital shift switched on 
      shift if e(lumo)-e(homo) < 0.10000000    


   ----> a dscf RESTART run will be tried ! <----

 $restart flag 'dscf' will be switched off !


 keyword $2e-ints_shell_statistics missing in file <control>

 ! One task per shell generated
  No pre-computed optimal task distribution found
  ... using automatic task generation

          ------------------------
          nuclear repulsion energy  :   9908.92402878    
          ------------------------


         -----------------
         -S,T+V- integrals
         -----------------

 1e-integrals will be neglected if expon. factor < 0.487166E-15
 
   Difference densities algorithm switched on.
   The maximal number of linear combinations of
   difference densities is                    20 .

 DIIS switched on: error vector is FDS-SDF
 Max. Iterations for DIIS is     :   5
 DIIS matrix (see manual) 
    Scaling factor of diagonals  :  1.200
    threshold for scaling factor :  0.000

 scf convergence criterion : increment of total energy < .1000000D-08
                  and increment of one-electron energy < .1000000D-05

  MOs are in ASCII format !


 reading orbital data $scfmo  from file mos
 orbital characterization : scfdump=1

 DSCF restart information will be dumped onto file mos


 complete restart information read in from $restartd
 iterations from earlier run will be continued
no density matrices from previous iterations found
  expected :                      1  found :                      0
 
                                              current damping :  0.250
 ITERATION  ENERGY          1e-ENERGY        2e-ENERGY     RMS[dD(SAO)]   TOL
   2  -2888.3411977942    -23676.449086     10879.183860    0.347D-02 0.486D-14
          max. resid. norm for Fia-block=  1.227D-01 for orbital      6a         
          max. resid. fock norm         =  3.132D-01 for orbital   5259a         
          Delta Eig. =   206.5736427671 eV 
 
                                              current damping :  0.150
 ITERATION  ENERGY          1e-ENERGY        2e-ENERGY     RMS[dD(SAO)]   TOL
   3  -2889.3602086804    -23690.165938     10891.881701    0.685D-03 0.317D-14
          Norm of current diis error:  2.3737    
          max. resid. norm for Fia-block=  3.933D-02 for orbital    236a         
          max. resid. fock norm         =  4.053D-02 for orbital     74a         
          Delta Eig. =    48.1688518048 eV 
 
                                              current damping :  0.200
 ITERATION  ENERGY          1e-ENERGY        2e-ENERGY     RMS[dD(SAO)]   TOL
   4  -2889.5227041353    -23689.762163     10891.315431    0.315D-03 0.248D-14
          Norm of current diis error: 0.77429    
          max. resid. norm for Fia-block=  1.846D-02 for orbital     69a         
          max. resid. fock norm         =  5.268D-02 for orbital   5497a         
          Delta Eig. =     5.1031035778 eV 
 
                                              current damping :  0.250
 ITERATION  ENERGY          1e-ENERGY        2e-ENERGY     RMS[dD(SAO)]   TOL
   5  -2889.5411560014    -23691.026676     10892.561492    0.831D-04 0.223D-14
          Norm of current diis error: 0.26898    
          max. resid. norm for Fia-block=  5.683D-03 for orbital    236a         
          max. resid. fock norm         =  1.340D-02 for orbital   5493a         
 mo-orthogonalization: Cholesky decomposition
          Delta Eig. =     1.5774218128 eV 
 
                                              current damping :  0.100
 ITERATION  ENERGY          1e-ENERGY        2e-ENERGY     RMS[dD(SAO)]   TOL
   6  -2889.5438819357    -23691.096979     10892.629068    0.345D-04 0.210D-14
          Norm of current diis error: 0.86923E-01
          max. resid. norm for Fia-block=  2.238D-03 for orbital    230a         
          max. resid. fock norm         =  2.866D-03 for orbital   5378a         
          Delta Eig. =     0.2519017566 eV 
 
                                              current damping :  0.150
 ITERATION  ENERGY          1e-ENERGY        2e-ENERGY     RMS[dD(SAO)]   TOL
   7  -2889.5443237703    -23691.020469     10892.552117    0.157D-04 0.194D-14
          Norm of current diis error: 0.30584E-01
          max. resid. norm for Fia-block=  1.185D-03 for orbital    236a         
          max. resid. fock norm         =  1.482D-03 for orbital   5551a         
          Delta Eig. =     0.0714347054 eV 
 
                                              current damping :  0.200
 ITERATION  ENERGY          1e-ENERGY        2e-ENERGY     RMS[dD(SAO)]   TOL
   8  -2889.5443847492    -23691.073174     10892.604760    0.450D-05 0.185D-14
          Norm of current diis error: 0.14064E-01
          max. resid. norm for Fia-block=  4.543D-04 for orbital    230a         
          max. resid. fock norm         =  9.618D-04 for orbital   5551a         
          Delta Eig. =     0.0330411412 eV 
 
                                              current damping :  0.250
 ITERATION  ENERGY          1e-ENERGY        2e-ENERGY     RMS[dD(SAO)]   TOL
   9  -2889.5443966240    -23691.061585     10892.593159    0.175D-05 0.178D-14
          Norm of current diis error: 0.59306E-02
          max. resid. norm for Fia-block=  3.809D-04 for orbital    236a         
          max. resid. fock norm         =  3.873D-04 for orbital    236a         
          Delta Eig. =     0.0063431545 eV 
 
                                              current damping :  0.100
 ITERATION  ENERGY          1e-ENERGY        2e-ENERGY     RMS[dD(SAO)]   TOL
  10  -2889.5443997522    -23691.060932     10892.592504    0.834D-06 0.171D-14
          Norm of current diis error: 0.30701E-02
          max. resid. norm for Fia-block=  1.957D-04 for orbital    236a         
          max. resid. fock norm         =  1.988D-04 for orbital    236a         
 mo-orthogonalization: Cholesky decomposition
          Delta Eig. =     0.0066332501 eV 
 
                                              current damping :  0.150
 ITERATION  ENERGY          1e-ENERGY        2e-ENERGY     RMS[dD(SAO)]   TOL
  11  -2889.5444007282    -23691.062903     10892.594474    0.576D-06 0.164D-14
          Norm of current diis error: 0.13193E-02
          max. resid. norm for Fia-block=  1.067D-04 for orbital    236a         
          max. resid. fock norm         =  1.077D-04 for orbital    236a         
          Delta Eig. =     0.0034430324 eV 
 
                                              current damping :  0.200
 ITERATION  ENERGY          1e-ENERGY        2e-ENERGY     RMS[dD(SAO)]   TOL
  12  -2889.5444009024    -23691.062496     10892.594066    0.225D-06 0.158D-14
          Norm of current diis error: 0.71153E-03
          max. resid. norm for Fia-block=  4.349D-05 for orbital    236a         
          max. resid. fock norm         =  4.557D-05 for orbital    230a         
          Delta Eig. =     0.0018500065 eV 
 
                                              current damping :  0.100
 ITERATION  ENERGY          1e-ENERGY        2e-ENERGY     RMS[dD(SAO)]   TOL
  13  -2889.5444009457    -23691.062267     10892.593838    0.114D-06 0.154D-14
          Norm of current diis error: 0.30351E-03
          max. resid. norm for Fia-block=  2.450D-05 for orbital    236a         
          max. resid. fock norm         =  2.488D-05 for orbital    236a         
          Delta Eig. =     0.0004778121 eV 

 DENSITY CONVERGED !

 
                                              current damping :  0.150
 ITERATION  ENERGY          1e-ENERGY        2e-ENERGY     RMS[dD(SAO)]   TOL
  14  -2889.5444009567    -23691.062461     10892.594031    0.551D-07 0.150D-14
          Norm of current diis error: 0.14078E-03
          max. resid. norm for Fia-block=  1.033D-05 for orbital    230a         
          max. resid. fock norm         =  1.088D-05 for orbital    230a         
          Delta Eig. =     0.0003120949 eV 

 DENSITY CONVERGED !

 
                                              current damping :  0.200
 ITERATION  ENERGY          1e-ENERGY        2e-ENERGY     RMS[dD(SAO)]   TOL
  15  -2889.5444009595    -23691.062302     10892.593872    0.238D-07 0.147D-14
          Norm of current diis error: 0.66623E-04
          max. resid. norm for Fia-block=  4.158D-06 for orbital    237a         
          max. resid. fock norm         =  4.391D-06 for orbital    244a         
 mo-orthogonalization: Cholesky decomposition
          Delta Eig. =     0.0001115519 eV 

 DENSITY CONVERGED !

 
                                              current damping :  0.250
 ITERATION  ENERGY          1e-ENERGY        2e-ENERGY     RMS[dD(SAO)]   TOL
  16  -2889.5444009601    -23691.062312     10892.593882    0.731D-08 0.144D-14
          Norm of current diis error: 0.32859E-04
          max. resid. norm for Fia-block=  2.950D-06 for orbital    237a         
          max. resid. fock norm         =  3.026D-06 for orbital    244a         
          Delta Eig. =     0.0000535089 eV 

 ENERGY & DENSITY CONVERGED !

 
                                              current damping :  0.300
 ITERATION  ENERGY          1e-ENERGY        2e-ENERGY     RMS[dD(SAO)]   TOL
  17  -2889.5444009597    -23691.062301     10892.593871    0.409D-08 0.141D-14
          max. resid. norm for Fia-block=  8.635D-07 for orbital    237a         
          max. resid. fock norm         =  8.682D-07 for orbital    237a         

 convergence criteria satisfied after    17 iterations


                  ------------------------------------------ 
                 |  total energy      =  -2889.54440095968  |
                  ------------------------------------------ 
                 :  kinetic energy    =   2885.24285893365  :
                 :  potential energy  =  -5774.78725989332  :
                 :  virial theorem    =      1.99851134247  :
                 :  wavefunction norm =      1.00000000000  :
                  .......................................... 


 <geterg> : there is no data group $energy 


 <skperg> : $end is missing 


 orbitals $scfmo  will be written to file mos

    irrep                233a        234a        235a        236a        237a   
 eigenvalues H         -0.39593    -0.39499    -0.34389    -0.30473    -0.29577
            eV         -10.7738    -10.7483     -9.3579     -8.2921     -8.0483
 occupation              2.0000      2.0000      2.0000      2.0000      2.0000 

    irrep                238a        239a        240a        241a        242a   
 eigenvalues H          0.06150     0.07035     0.09396     0.09860     0.10619
            eV           1.6734      1.9144      2.5569      2.6830      2.8896
 
 
 
 
 ==============================================================================
                           electrostatic moments
 ==============================================================================

 reference point for electrostatic moments:    0.00000   0.00000   0.00000

 
              nuc           elec       ->  total
 ------------------------------------------------------------------------------
                          charge      
 ------------------------------------------------------------------------------
         474.000000    -474.000000      -0.000000
 
 ------------------------------------------------------------------------------
                       dipole moment  
 ------------------------------------------------------------------------------
   x     169.014052    -170.599307      -1.585255
   y     395.913558    -400.962151      -5.048593
   z     135.065964    -135.389177      -0.323213
 
   | dipole moment | =     5.3015 a.u. =    13.4750 debye 
 
 ------------------------------------------------------------------------------
                     quadrupole moment
 ------------------------------------------------------------------------------
  xx   35767.818604  -36061.552165    -293.733561
  yy   27058.315506  -27345.694740    -287.379234
  zz    3414.544680   -3705.322602    -290.777922
  xy    -581.610831     600.115109      18.504278
  xz     -23.339836      18.366147      -4.973689
  yz     364.195064    -364.349729      -0.154664
 
     1/3  trace=    -290.630239
     anisotropy=      33.642854
 
 ==============================================================================
 

    dscf profiling
  --------------------------------------------------------------------
             module   cpu total (s)       %  wall total (s)       %

          dscf.total         76320.4  100.00         70656.6  100.00
        dscf.prepare           128.7    0.17           128.6    0.18
      prepare.oneint             2.1    0.00             2.1    0.00
     prepare.moinput            25.9    0.03            25.9    0.04
     moinput_orthmos            99.0    0.13            99.0    0.14
            dscf.scf         76186.6   99.82         70522.6   99.81
             scf.pre             7.3    0.01             7.3    0.01
        scf.makedmat            78.2    0.10            87.8    0.12
          scf.shloop         67641.1   88.63         67606.8   95.68
          shloop_omp         67634.5   88.62         67600.2   95.67
          scf.symcar             9.1    0.01             9.1    0.01
        scf.makefock            22.8    0.03            32.0    0.05
          scf.newerg             0.7    0.00             0.7    0.00
          scf.newcnv          1680.5    2.20           228.7    0.32
           scf.fdiag          4619.6    6.05           596.8    0.84
         diag_tritrn          1131.9    1.48           143.0    0.20
          diag_rdiag          3474.2    4.55           451.7    0.64
          scf.modump          1641.6    2.15          1666.3    2.36
           ortho_all           373.1    0.49           174.5    0.25
            scf.post           111.8    0.15           112.5    0.16
        dscf.postscf             5.1    0.01             5.4    0.01
 


    ------------------------------------------------------------------------
         total  cpu-time : 21 hours 12 minutes and  1 seconds
         total wall-time : 19 hours 37 minutes and 37 seconds
    ------------------------------------------------------------------------

   ****  dscf : all done  ****


    2018-02-24 23:29:45.454 

