Using Slurm to start processes with PMI2
STARTING ridft ON 8 PROCESSORS!
RUNNING PROGRAM /beegfs/modfac/apps/TURBOMOLE/7.0_intel_GA/bin/em64t-unknown-linux-gnu_mpi/ridft_mpi.
PLEASE WAIT UNTIL ridft HAS FINISHED.
Look for the output in slave1.output.
  this is node-proc. number 1 running on node c-7-23.local
  the total number of node-proc. spawned is            8
  parallel platform: MPP, or cluster with fast interconnect

 ridft (c-7-23.local) : TURBOMOLE V7.0.2( ) 15 Jan 2016 at 17:47:42
 Copyright (C) 2016 TURBOMOLE GmbH, Karlsruhe


    2018-02-01 18:38:40.816 



                                  r i d f t

                        DFT program with RI approximation 
                                for coulomb part 




                                                 
                                 References:     
                                                 
          TURBOMOLE:                             
              R. Ahlrichs, M. Baer, M. Haeser, H. Horn, and
              C. Koelmel
              Electronic structure calculations on workstation
              computers: the program system TURBOMOLE
              Chem. Phys. Lett. 162: 165 (1989)
          Density Functional:                              
              O. Treutler and R. Ahlrichs                      
              Efficient Molecular Numerical Integration Schemes
              J. Chem. Phys. 102: 346 (1995)                   
          Parallel Version:                                
              Performance of parallel TURBOMOLE for Density    
              Functional Calculations                          
              M. v. Arnim and R. Ahlrichs                      
              J. Comp. Chem. 19: 1746 (1998)                   
          RI-J Method:                                     
              Auxiliary Basis Sets to approximate Coulomb      
              Potentials                                       
              Chem. Phys. Lett. 240: 283 (1995)                
              K. Eichkorn, O. Treutler, H. Oehm, M. Haeser     
              and R. Ahlrichs                                  
              Chem. Phys. Lett. 242: 652 (1995)                
                                                           
              Auxiliary Basis Sets for Main Row Atoms and their
              Use to approximate Coulomb Potentials            
              K. Eichkorn, F. Weigend, O. Treutler and         
              R. Ahlrichs                                      
              Theo. Chem. Acc. 97: 119 (1997)                   
                                                           
              Accurate Coulomb-fitting basis sets for H to Rn 
              F. Weigend                                        
              Phys. Chem. Chem. Phys. 8: 1057 (2006)            
                                                           
          Multipole accelerated RI-J (MARI-J):             
              Fast evaluation of the Coulomb potential for     
              electron densities using multipole accelerated   
              resolution of identity approximation             
              M. Sierka, A. Hogekamp and R. Ahlrichs           
              J. Chem. Phys. 118: 9136 (2003)                  
          RI-JK Method:                                     
              A fully direct RI-HF algorithm: Implementation,
              optimised auxiliary basis sets, demonstration of
              accuracy and efficiency                         
              F. Weigend                                      
              Phys. Chem. Chem. Phys. 4: 4285 (2002)           
          Two-component HF and DFT with spin-orbit coupling:  
              Self-consistent treatment of spin-orbit         
              interactions with efficient Hartree-Fock and    
              density functional methods                      
              M. K. Armbruster, F. Weigend, C. van Wüllen and 
              W. Klopper                                      
              Phys. Chem. Chem. Phys. 10: 1748 (2008)         
          Relativistic all-electron 2c calculations           
              An efficient implementation of two-component    
              relativistic exact-decoupling methods for large 
              molecules                                       
              D. Peng, N. Middendorf, F. Weigend, M. Reiher   
              J. Chem. Phys. 138, 184105 (2013)               
                                         


 


              +--------------------------------------------------+
              |      general information about current run       |
              +--------------------------------------------------+

 

 SCF run will be profiled !


 DENSITY CONVERGENCE CHECK SWITCHED ON !
 SCF CONVERGENCE IF RMS(delta[D]) <     0.1000000000E-06

 PBE functional
 exchange:    LDA + PBE
 correlation: LDA (PW) + PBE
 A DFT calculation using the RI-J approximation will be carried out.
 Allocatable memory for RI due to $ricore (MB):        5000


              +--------------------------------------------------+
              | Atomic coordinate, charge and isotop information |
              +--------------------------------------------------+

                    atomic coordinates            atom    charge  isotop
         -3.02021322   -5.57287040    6.14160993    c      6.000     0
         -7.55992498   -5.49254003    6.14160993    c      6.000     0
         -7.57917751   -2.96661681    6.14160993    c      6.000     0
         -5.13872849   -1.73612541    6.14160993    c      6.000     0
         -5.34962382   -6.77813772    6.14160993    n      7.000     0
         -3.01397334   -3.02330859    6.14160993    n      7.000     0
         -5.01381949    0.76047871    6.14160993    n      7.000     0
         -1.13019040   -6.85880446    6.14160993    o      8.000     0
         -5.30378284   -8.65690911    6.14160993    h      1.000     0
         -9.25454067   -6.60873133    6.14160993    h      1.000     0
         -9.30421779   -1.90668642    6.14160993    h      1.000     0
         -6.57529074    1.79538156    6.14160993    h      1.000     0
         -3.32233507    1.63396871    6.14160993    h      1.000     0
          2.02057455    2.09509212    6.14160993    c      6.000     0
          4.31882924   -1.93152310    6.14160993    c      6.000     0
          6.52909072    1.59570364    6.14160993    c      6.000     0
          4.48320895    3.19202901    6.14160993    c      6.000     0
          7.66977287    5.57318976    6.14160993    c      6.000     0
          2.15879290   -0.53650459    6.14160993    n      7.000     0
          6.57508098   -0.94499535    6.14160993    n      7.000     0
          5.26063662    5.68364992    6.14160993    n      7.000     0
          8.57326795    3.13252153    6.14160993    n      7.000     0
          4.03373759   -4.43966966    6.14160993    n      7.000     0
         -0.02458345    3.12065405    6.14160993    o      8.000     0
          0.48192174   -1.43893196    6.14160993    h      1.000     0
          8.92516519    7.16093010    6.14160993    h      1.000     0
         10.36302946    2.57112358    6.14160993    h      1.000     0
          5.59543373   -5.47388087    6.14160993    h      1.000     0
          2.33979087   -5.28069984    6.14160993    h      1.000     0
 
       center of nuclear mass  :    0.69155294   -0.85881381    6.14160993
       center of nuclear charge:    0.64423729   -0.88671593    6.14160993

              +--------------------------------------------------+
              |               basis set information              |
              +--------------------------------------------------+

              we will work with the 1s 3p 5d 7f 9g ... basis set
              ...i.e. with spherical basis functions...

   type   atoms  prim   cont   basis
   ---------------------------------------------------------------------------
    c        9     50     30   cc-pVTZ   [4s3p2d1f|18s5p2d1f]
    n        8     50     30   cc-pVTZ   [4s3p2d1f|18s5p2d1f]
    o        2     50     30   cc-pVTZ   [4s3p2d1f|18s5p2d1f]
    h       10     16     14   cc-pVTZ   [3s2p1d|5s2p1d]
   ---------------------------------------------------------------------------
   total:   29   1110    710
   ---------------------------------------------------------------------------

   total number of primitive shells          :   86
   total number of contracted shells         :  250
   total number of cartesian basis functions :  815
   total number of SCF-basis functions       :  710


 integral neglect threshold       :  0.41E-13
 integral storage threshold THIZE :  0.10E-04
 integral storage threshold THIME :         5

 RI-J AUXILIARY BASIS SET information:

              we will work with the 1s 3p 5d 7f 9g ... basis set
              ...i.e. with spherical basis functions...

   type   atoms  prim   cont   basis
   ---------------------------------------------------------------------------
    c        9     70     49   cc-pVTZ   [6s4p3d1f1g|12s5p4d2f1g]
    n        8     70     49   cc-pVTZ   [6s4p3d1f1g|12s5p4d2f1g]
    o        2     70     49   cc-pVTZ   [6s4p3d1f1g|12s5p4d2f1g]
    h       10     16     11   cc-pVTZ   [3s1p1d|5s2p1d]
   ---------------------------------------------------------------------------
   total:   29   1490   1041
   ---------------------------------------------------------------------------

   total number of primitive shells          :   80
   total number of contracted shells         :  335
   total number of cartesian basis functions : 1279
   total number of SCF-basis functions       : 1041


 symmetry group of the molecule :   c1 

 the group has the following generators :
   c1(z)

    1 symmetry operations found

 there are 1 real representations :   a   

 maximum number of shells which are related by symmetry :  1


    mo occupation :
   irrep   mo's   occupied
    a      710       68
 
 number of basis functions   :          710
 number of occupied orbitals :           68
 
  
           ------------------
           density functional
           ------------------
 PBE functional
 exchange:    LDA + PBE
 correlation: LDA (PW) + PBE
 grinp -> nfun, dfgga, dfhybrid 
           6 T F
 iterations will be done with small grid
  
 spherical integration : Lebedev's spherical grid
 spherical gridsize    :           5
    i.e. gridpoints    :         590
 value for diffuse not defined
 radial integration    : Chebyshev 2nd kind (scaling 3)
 radial gridsize       :           8
 integration cells     :          29
 partition function    : becke
 partition sharpness   :           3
  

 <rddim> : input of entry tasksize
           from data group '$pardft' failed !

               Default values taken

 <rddim> : input of entry memdiv
           from data group '$pardft' failed !

               Default values taken
  RIDFT: memory allocation for DFT gridpoints
  MEMORY is divided by 1 as DEFAULT
 Each node can hold at most  the            1 -th part
 of the gridpoints    

 biggest AO integral is expected to be     4.866064444
  
           ------------------------
               RI-J - INFORMATION
           ------------------------
 
 
 **************************************************
 *      MEMORY ALLOCATION FOR PARALLEL RI-DFT     *
 **************************************************
 
 
MEMORY FOR (MU NU/ ALPHA), SEQUENTIAL RUN               4992 MByte
 
            DIFFERENCE IN MEMORY NEED:       DIAG./SLAVE  
 
      TOTAL DIFFERENCE :                     29 MByte
 
      difference in xcore:                    9 MByte
      difference in fatmat:                   8 MByte
      getcor calls skipped by slaves:        13 MByte
 
 
           Integral memory available for diagonal.      4992 MByte
 
           Integral memory available for slave             0 MByte
 
         MEMORY FOR (MU NU/ ALPHA) ON DIAGONALIZER      4992 MByte
 
         MEMORY FOR (MU NU/ ALPHA) ON ONE SLAVE            0 MByte
 
         TOTAL MEMORY FOR (MU NU/ ALPHA),ALL NODES      4992 MByte
 
 Contributions to RI integral batches: 
  neglected integral batches:       11048
  direct contribution:                  0
  memory contribution:       20327
 Memory core needed for (P|Q) and Cholesky      9 MByte
 Memory core minimum needed except of (P|Q)     2 MByte
 Total minimum memory core needed (sum)        11 MByte
  
 ****************************************
 Memory allocated for RI-J  5002 MByte
 ****************************************
                                            

          ------------------------
          nuclear repulsion energy  :   1391.97687302    
          ------------------------

 
          -----------------
          -S integrals
          -----------------

 1e-integrals will be neglected if expon. factor < 0.410057E-14
 
          -----------------
          -T+V integrals
          -----------------

 1e-integrals will be neglected if expon. factor < 0.410057E-14
 Difference densities >>NOT<< switched on in parallel ridft!

 automatic virtual orbital shift switched on 
      shift if e(lumo)-e(homo) < 0.10000000    


 DIIS switched on: error vector is FDS-SDF
 Max. Iterations for DIIS is     :   4
 DIIS matrix (see manual) 
    Scaling factor of diagonals  :  1.200
    threshold for scaling factor :  0.000

 scf convergence criterion : increment of total energy < .1000000D-08
                  and increment of one-electron energy < .1000000D-05


 <geterg> : there is no data group $energy 

  MOs are in ASCII format !


 reading orbital data $scfmo  from file mos . 

 orbital characterization : expanded
 
 mo provided and orthogonalized by Cholesky decomposition

 DSCF restart information will be dumped onto file mos


 Starting SCF iterations


 ITERATION  ENERGY          1e-ENERGY        2e-ENERGY     RMS[dD(SAO)]   TOL
   1  -932.81373593719    -4020.1349789     1695.3443699    0.000D+00 0.409D-13
                            Exc = -123.685377432     Coul =  1819.02974732    
                              N = 136.00003512    
                            current damping = 0.700
 
          max. resid. norm for Fia-block=  3.650D-01 for orbital     57a         
          max. resid. fock norm         =  4.842D+00 for orbital    662a         

 ITERATION  ENERGY          1e-ENERGY        2e-ENERGY     RMS[dD(SAO)]   TOL
   2  -936.16472104080    -4034.9979375     1706.8563434    0.337D-02 0.409D-13
                            Exc = -123.844680426     Coul =  1830.70102382    
                              N = 136.00003216    
                            current damping = 0.650
 
          Norm of current diis error:  3.6429    
          max. resid. norm for Fia-block=  1.589D-01 for orbital      2a         
          max. resid. fock norm         =  3.223D-01 for orbital    696a         

 ITERATION  ENERGY          1e-ENERGY        2e-ENERGY     RMS[dD(SAO)]   TOL
   3  -936.63903760454    -4039.8488656     1711.2329550    0.190D-02 0.409D-13
                            Exc = -124.343813604     Coul =  1835.57676857    
                              N = 136.00003003    
                            current damping = 0.550
 
          Norm of current diis error:  1.7589    
          max. resid. norm for Fia-block=  6.489D-02 for orbital      2a         
          max. resid. fock norm         =  6.885D-02 for orbital      2a         

 ITERATION  ENERGY          1e-ENERGY        2e-ENERGY     RMS[dD(SAO)]   TOL
   4  -936.77976514365    -4040.3647972     1711.6081591    0.161D-02 0.409D-13
                            Exc = -124.245975801     Coul =  1835.85413487    
                              N = 136.00003278    
                            current damping = 0.400
 
          Norm of current diis error: 0.76561    
          max. resid. norm for Fia-block=  3.747D-02 for orbital     57a         
          max. resid. fock norm         =  7.220D-02 for orbital    669a         

 ITERATION  ENERGY          1e-ENERGY        2e-ENERGY     RMS[dD(SAO)]   TOL
   5  -936.79844655396    -4041.3927105     1712.6173910    0.671D-03 0.409D-13
                            Exc = -124.425351917     Coul =  1837.04274287    
                              N = 136.00002941    
                            current damping = 0.300
 
          Norm of current diis error: 0.52256    
          max. resid. norm for Fia-block=  1.977D-02 for orbital     66a         
          max. resid. fock norm         =  2.476D-02 for orbital     66a         
          mo-orthogonalization: Cholesky decomposition

 ITERATION  ENERGY          1e-ENERGY        2e-ENERGY     RMS[dD(SAO)]   TOL
   6  -936.81044612045    -4041.8960756     1713.1087564    0.528D-03 0.409D-13
                            Exc = -124.408238093     Coul =  1837.51699454    
                              N = 136.00003154    
                            current damping = 0.150
 
          Norm of current diis error: 0.17670    
          max. resid. norm for Fia-block=  6.043D-03 for orbital     59a         
          max. resid. fock norm         =  1.021D-02 for orbital    670a         

 ITERATION  ENERGY          1e-ENERGY        2e-ENERGY     RMS[dD(SAO)]   TOL
   7  -936.81076947932    -4041.3419989     1712.5543564    0.222D-03 0.409D-13
                            Exc = -124.379884523     Coul =  1836.93424096    
                              N = 136.00003070    
                            current damping = 0.200
 
          Norm of current diis error: 0.16136    
          max. resid. norm for Fia-block=  3.397D-03 for orbital     68a         
          max. resid. fock norm         =  5.829D-03 for orbital    699a         

 ITERATION  ENERGY          1e-ENERGY        2e-ENERGY     RMS[dD(SAO)]   TOL
   8  -936.81193722976    -4041.5225791     1712.7337688    0.101D-03 0.409D-13
                            Exc = -124.389806490     Coul =  1837.12357534    
                              N = 136.00003093    
                            current damping = 0.250
 
          Norm of current diis error: 0.36371E-01
          max. resid. norm for Fia-block=  1.376D-03 for orbital     63a         
          max. resid. fock norm         =  2.079D-03 for orbital    700a         

 ITERATION  ENERGY          1e-ENERGY        2e-ENERGY     RMS[dD(SAO)]   TOL
   9  -936.81194796933    -4041.6615162     1712.8726952    0.322D-04 0.409D-13
                            Exc = -124.402419622     Coul =  1837.27511482    
                              N = 136.00003087    
                            current damping = 0.100
 
          Norm of current diis error: 0.31677E-01
          max. resid. norm for Fia-block=  6.748D-04 for orbital     55a         
          max. resid. fock norm         =  1.216D-03 for orbital    675a         

 ITERATION  ENERGY          1e-ENERGY        2e-ENERGY     RMS[dD(SAO)]   TOL
  10  -936.81198451862    -4041.6198211     1712.8309636    0.240D-04 0.409D-13
                            Exc = -124.397787961     Coul =  1837.22875156    
                              N = 136.00003100    
                            current damping = 0.150
 
          Norm of current diis error: 0.14864E-01
          max. resid. norm for Fia-block=  3.162D-04 for orbital     62a         
          max. resid. fock norm         =  5.272D-04 for orbital    702a         
          mo-orthogonalization: Cholesky decomposition

 ITERATION  ENERGY          1e-ENERGY        2e-ENERGY     RMS[dD(SAO)]   TOL
  11  -936.81199289175    -4041.6089912     1712.8201252    0.822D-05 0.409D-13
                            Exc = -124.396643012     Coul =  1837.21676826    
                              N = 136.00003094    
                            current damping = 0.050
 
          Norm of current diis error: 0.51594E-02
          max. resid. norm for Fia-block=  1.364D-04 for orbital     62a         
          max. resid. fock norm         =  2.339D-04 for orbital    700a         
          irrep a   : virtual orbitals shifted by    0.00230

 ITERATION  ENERGY          1e-ENERGY        2e-ENERGY     RMS[dD(SAO)]   TOL
  12  -936.81199299374    -4041.6044336     1712.8155676    0.379D-05 0.409D-13
                            Exc = -124.397411210     Coul =  1837.21297878    
                              N = 136.00003094    
                            current damping = 0.050
 
          Norm of current diis error: 0.49152E-02
          max. resid. norm for Fia-block=  8.501D-05 for orbital     55a         
          max. resid. fock norm         =  1.373D-04 for orbital    700a         
          irrep a   : virtual orbitals shifted by    0.00229

 ITERATION  ENERGY          1e-ENERGY        2e-ENERGY     RMS[dD(SAO)]   TOL
  13  -936.81199397625    -4041.6110810     1712.8222140    0.249D-05 0.409D-13
                            Exc = -124.397053789     Coul =  1837.21926774    
                              N = 136.00003095    
                            current damping = 0.100
 
          Norm of current diis error: 0.11403E-02
          max. resid. norm for Fia-block=  3.791D-05 for orbital     55a         
          max. resid. fock norm         =  5.108D-05 for orbital    696a         

 ITERATION  ENERGY          1e-ENERGY        2e-ENERGY     RMS[dD(SAO)]   TOL
  14  -936.81199399684    -4041.6087382     1712.8198712    0.922D-06 0.409D-13
                            Exc = -124.397158167     Coul =  1837.21702937    
                              N = 136.00003094    
                            current damping = 0.150
 
          Norm of current diis error: 0.90399E-03
          max. resid. norm for Fia-block=  1.597D-05 for orbital     65a         
          max. resid. fock norm         =  2.412D-05 for orbital    705a         

 ITERATION  ENERGY          1e-ENERGY        2e-ENERGY     RMS[dD(SAO)]   TOL
  15  -936.81199402872    -4041.6090573     1712.8201902    0.438D-06 0.409D-13
                            Exc = -124.397093652     Coul =  1837.21728390    
                              N = 136.00003094    
                            current damping = 0.200
 
          Norm of current diis error: 0.25351E-03
          max. resid. norm for Fia-block=  6.511D-06 for orbital     62a         
          max. resid. fock norm         =  1.008D-05 for orbital    699a         
          mo-orthogonalization: Cholesky decomposition

 ITERATION  ENERGY          1e-ENERGY        2e-ENERGY     RMS[dD(SAO)]   TOL
  16  -936.81199403032    -4041.6093156     1712.8204486    0.156D-06 0.409D-13
                            Exc = -124.397092588     Coul =  1837.21754115    
                              N = 136.00003095    
                            current damping = 0.050
 
          Norm of current diis error: 0.14994E-03
          max. resid. norm for Fia-block=  3.318D-06 for orbital     63a         
          max. resid. fock norm         =  4.934D-06 for orbital     25a         
          irrep a   : virtual orbitals shifted by    0.00228

 ITERATION  ENERGY          1e-ENERGY        2e-ENERGY     RMS[dD(SAO)]   TOL
  17  -936.81199403086    -4041.6094579     1712.8205909    0.104D-06 0.409D-13
                            Exc = -124.397108018     Coul =  1837.21769891    
                              N = 136.00003094    
                            current damping = 0.050
 
          Norm of current diis error: 0.95184E-04
          max. resid. norm for Fia-block=  1.757D-06 for orbital     63a         
          max. resid. fock norm         =  2.884D-06 for orbital    555a         
          irrep a   : virtual orbitals shifted by    0.00228

 DENSITY CONVERGED !


 ITERATION  ENERGY          1e-ENERGY        2e-ENERGY     RMS[dD(SAO)]   TOL
  18  -936.81199403120    -4041.6093106     1712.8204435    0.574D-07 0.409D-13
                            Exc = -124.397100155     Coul =  1837.21754370    
                              N = 136.00003094    
                            current damping = 0.100
 
          Norm of current diis error: 0.34204E-04
          max. resid. norm for Fia-block=  9.618D-07 for orbital     68a         
          max. resid. fock norm         =  1.616D-06 for orbital     66a         

 ENERGY & DENSITY CONVERGED !


 ITERATION  ENERGY          1e-ENERGY        2e-ENERGY     RMS[dD(SAO)]   TOL
  19  -936.81196616456    -4041.6093150     1712.8204758    0.317D-07 0.409D-13
                            Exc = -124.397071357     Coul =  1837.21754713    
                              N = 135.99999425    
                            current damping = 0.150
 
          Norm of current diis error: 0.23127E-04
          max. resid. norm for Fia-block=  4.755D-07 for orbital     68a         
          max. resid. fock norm         =  8.316D-07 for orbital     66a         

 End of SCF iterations

   convergence criteria satisfied after   19 iterations


                  ------------------------------------------ 
                 |  total energy      =   -936.81196616456  |
                  ------------------------------------------ 
                 :  kinetic energy    =    932.18846508304  :
                 :  potential energy  =  -1869.00043124760  :
                 :  virial theorem    =      1.99506464344  :
                 :  wavefunction norm =      1.00000000000  :
                  .......................................... 


 <geterg> : there is no data group $energy 


 <skperg> : $end is missing 


 orbitals $scfmo  will be written to file mos

    irrep                 64a         65a         66a         67a         68a   
 eigenvalues H         -0.22633    -0.22330    -0.21067    -0.20213    -0.16751
            eV          -6.1589     -6.0763     -5.7326     -5.5003     -4.5583
 occupation              2.0000      2.0000      2.0000      2.0000      2.0000 

    irrep                 69a         70a         71a         72a         73a   
 eigenvalues H         -0.07445    -0.02829    -0.01784    -0.00573    -0.00532
            eV          -2.0258     -0.7698     -0.4854     -0.1560     -0.1449
 
 
 ! grave: sending quit signal to master process
 
 
 
 
 ==============================================================================
                           electrostatic moments
 ==============================================================================

 reference point for electrostatic moments:    0.00000   0.00000   0.00000

 
              nuc           elec       ->  total
 ------------------------------------------------------------------------------
                          charge      
 ------------------------------------------------------------------------------
         136.000000    -136.000000      -0.000000
 
 ------------------------------------------------------------------------------
                       dipole moment  
 ------------------------------------------------------------------------------
   x      87.616272     -89.228414      -1.612142
   y    -120.593366     118.964316      -1.629051
   z     835.258951    -835.258951      -0.000000
 
   | dipole moment | =     2.2919 a.u. =     5.8254 debye 
 
 ------------------------------------------------------------------------------
                     quadrupole moment
 ------------------------------------------------------------------------------
  xx    3852.641636   -3897.336654     -44.695018
  yy    2280.633262   -2358.318236     -77.684974
  zz    5129.834668   -5212.261953     -82.427286
  xy    1645.863375   -1634.684130      11.179245
  xz     538.104963    -548.006114      -9.901150
  yz    -740.637417     730.632422     -10.004995
 
     1/3  trace=     -68.269093
     anisotropy=      47.292706
 
 ==============================================================================
 

    ridft profiling
  --------------------------------------------------------------------
             module   cpu total (s)       %  wall total (s)       %

               RIDFT           126.8  100.00           126.9  100.00
         Ridft_b_scf            10.5    8.29            10.5    8.29
        b_scf_prelim             0.0    0.00             0.0    0.00
        b_scf_molinp             0.0    0.01             0.0    0.01
         b_scf_init0             0.0    0.00             0.0    0.00
        b_scf_auxbas             0.0    0.01             0.0    0.01
      b_scf_symmetry             0.0    0.00             0.0    0.01
         b_scf_cosmo             0.0    0.00             0.0    0.00
        b_scf_params             0.3    0.25             0.3    0.25
          b_scf_ri-j             9.0    7.08             9.0    7.07
    b_scf_ri-j_auxpq             9.0    7.08             9.0    7.07
     ri-j_auxpq_chol             0.2    0.15             0.2    0.15
         b_scf_1elec             0.2    0.15             0.2    0.15
       b_scf_moinput             1.0    0.78             1.0    0.78
     moinput_orthmos             0.9    0.74             0.9    0.73
    b_scf_dft-dstmax             0.0    0.00             0.0    0.00
           Ridft_scf           116.2   91.64           116.2   91.52
          Scf_b_loop             0.0    0.00             0.0    0.00
                noga             0.0    0.00             0.0    0.00
            Scf_loop           115.8   91.34           115.8   91.23
     scf_loop_mkdmat             0.5    0.39             0.5    0.38
       scf_loop_ri-j            10.3    8.10            10.3    8.09
      parlp1.bc.dens             1.0    0.78             1.0    0.77
        parlp1.gs.gp             0.0    0.00             0.0    0.00
        parlp2.bc.gq             0.0    0.00             0.0    0.00
        scf_loop_dft            87.7   69.21            87.7   69.12
      pardft.bc.dens             0.0    0.00             0.0    0.00
        dft_grid_con             0.4    0.35             0.4    0.34
           dft_xcrhf            84.8   66.93            84.8   66.84
          dft_getval             7.3    5.79             7.4    5.83
          funct2 dst             0.1    0.09             0.1    0.11
      funct2 f2loop1             1.9    1.53             1.9    1.53
      funct2 f2loop2             3.4    2.70             3.4    2.68
          funct2 s+c             1.6    1.29             1.7    1.32
        funct2 cmf_2             1.4    1.08             1.4    1.12
          dft_mkdens            34.9   27.56            34.8   27.46
         dft_gga-fun             0.2    0.13             0.2    0.15
          dft_mkfock            42.2   33.26            42.2   33.23
     pardft.red.fock             7.3    5.74             7.3    5.73
     scf_loop_energy             0.0    0.01             0.0    0.01
     scf_loop_mkfock             0.0    0.01             0.0    0.01
       scf_loop_diis             5.4    4.24             5.4    4.24
       scf_loop_diag             5.2    4.13             5.2    4.13
         diag_tritrn             1.1    0.88             1.1    0.88
          diag_rdiag             4.1    3.23             4.1    3.22
     scf_loop_modump             5.7    4.48             5.7    4.48
      scf_loop_ortho             0.8    0.64             0.8    0.64
          Scf_a_loop             0.4    0.29             0.4    0.29
         Ridft_a_scf             0.1    0.07             0.2    0.19
         a_scf_fanal             0.1    0.07             0.2    0.17
 


    ------------------------------------------------------------------------
         total  cpu-time :  2 minutes and  7 seconds
         total wall-time :  2 minutes and  7 seconds
    ------------------------------------------------------------------------


   ****  ridft : all done  ****


    2018-02-01 18:40:48.200 

