 this is node-proc. number 0 running on node c-3-342.local
 the total number of node-proc. spawned is  33

 dscfserver (c-3-342.local) : TURBOMOLE V7.2 ( 21471 ) 7 Nov 2017 at 16:15:16
 Copyright (C) 2017 TURBOMOLE GmbH, Karlsruhe


    2018-02-20 09:05:02.310 

 
    0:06:27 ---- Start global counter...
    2:59:27 ---- ... finished.
 
    3:06:29 ---- Start global counter...
    5:46:46 ---- ... finished.
 
    5:53:46 ---- Start global counter...
    8:22:24 ---- ... finished.
 
    8:29:31 ---- Start global counter...
   10:45:02 ---- ... finished.
 
   10:50:15 ---- Start global counter...
   12:44:09 ---- ... finished.
 
   12:51:45 ---- Start global counter...
   14:17:56 ---- ... finished.
 
   14:25:05 ---- Start global counter...
   15:30:39 ---- ... finished.
 
   15:36:07 ---- Start global counter...
   16:29:38 ---- ... finished.
 
   16:35:03 ---- Start global counter...
   17:17:10 ---- ... finished.
 
   17:24:15 ---- Start global counter...
   17:55:06 ---- ... finished.
 
   18:04:08 ---- Start global counter...
   18:25:52 ---- ... finished.
 
   18:31:05 ---- Start global counter...
   18:46:32 ---- ... finished.
 
   18:50:55 ---- ByeBye Tag received


 ! Total wall-clock time in seconds  :    67855.0
 ! Time (sec) spent in global counter:    62802.4
 ! So-called SERIAL wall-clock time  :     5052.6

  *** Regular termination of server ***
 total turnaround time of dscfserver 67858.74 sec
 cpu elapsed by dscfserver process   62824.18 sec 

   ***  dscf server : all done  ***


    2018-02-21 03:56:01.049 

