 operating system is UNIX !
 hostname is         c-16-41.local

 ridft (c-16-41.local) : TURBOMOLE V7.0.2( ) 8 Jan 2016 at 10:54:38
 Copyright (C) 2016 TURBOMOLE GmbH, Karlsruhe


    2017-11-13 16:06:05.899 



                                  r i d f t

                        DFT program with RI approximation 
                                for coulomb part 




                                                 
                                 References:     
                                                 
          TURBOMOLE:                             
              R. Ahlrichs, M. Baer, M. Haeser, H. Horn, and
              C. Koelmel
              Electronic structure calculations on workstation
              computers: the program system TURBOMOLE
              Chem. Phys. Lett. 162: 165 (1989)
          Density Functional:                              
              O. Treutler and R. Ahlrichs                      
              Efficient Molecular Numerical Integration Schemes
              J. Chem. Phys. 102: 346 (1995)                   
          Parallel Version:                                
              Performance of parallel TURBOMOLE for Density    
              Functional Calculations                          
              M. v. Arnim and R. Ahlrichs                      
              J. Comp. Chem. 19: 1746 (1998)                   
          RI-J Method:                                     
              Auxiliary Basis Sets to approximate Coulomb      
              Potentials                                       
              Chem. Phys. Lett. 240: 283 (1995)                
              K. Eichkorn, O. Treutler, H. Oehm, M. Haeser     
              and R. Ahlrichs                                  
              Chem. Phys. Lett. 242: 652 (1995)                
                                                           
              Auxiliary Basis Sets for Main Row Atoms and their
              Use to approximate Coulomb Potentials            
              K. Eichkorn, F. Weigend, O. Treutler and         
              R. Ahlrichs                                      
              Theo. Chem. Acc. 97: 119 (1997)                   
                                                           
              Accurate Coulomb-fitting basis sets for H to Rn 
              F. Weigend                                        
              Phys. Chem. Chem. Phys. 8: 1057 (2006)            
                                                           
          Multipole accelerated RI-J (MARI-J):             
              Fast evaluation of the Coulomb potential for     
              electron densities using multipole accelerated   
              resolution of identity approximation             
              M. Sierka, A. Hogekamp and R. Ahlrichs           
              J. Chem. Phys. 118: 9136 (2003)                  
          RI-JK Method:                                     
              A fully direct RI-HF algorithm: Implementation,
              optimised auxiliary basis sets, demonstration of
              accuracy and efficiency                         
              F. Weigend                                      
              Phys. Chem. Chem. Phys. 4: 4285 (2002)           
          Two-component HF and DFT with spin-orbit coupling:  
              Self-consistent treatment of spin-orbit         
              interactions with efficient Hartree-Fock and    
              density functional methods                      
              M. K. Armbruster, F. Weigend, C. van Wüllen and 
              W. Klopper                                      
              Phys. Chem. Chem. Phys. 10: 1748 (2008)         
          Relativistic all-electron 2c calculations           
              An efficient implementation of two-component    
              relativistic exact-decoupling methods for large 
              molecules                                       
              D. Peng, N. Middendorf, F. Weigend, M. Reiher   
              J. Chem. Phys. 138, 184105 (2013)               
                                         


 


              +--------------------------------------------------+
              |      general information about current run       |
              +--------------------------------------------------+

 

 DENSITY CONVERGENCE CHECK SWITCHED ON !
 SCF CONVERGENCE IF RMS(delta[D]) <     0.1000000000E-06

 A HF calculation using the RI-JK approximation will be carried out.
 Allocatable memory for RI due to $ricore (MB):       14000


              +--------------------------------------------------+
              | Atomic coordinate, charge and isotop information |
              +--------------------------------------------------+

                    atomic coordinates            atom    charge  isotop
         -7.26166319   -9.96128936    2.29279803    c      6.000     0
         -7.26166319    9.96128936   -2.29279803    c      6.000     0
         -7.26166319   -9.96128936   -2.29279803    c      6.000     0
          7.26166319    9.96128936   -2.29279803    c      6.000     0
          7.26166319   -9.96128936   -2.29279803    c      6.000     0
         -7.26166319    9.96128936    2.29279803    c      6.000     0
          7.26166319   -9.96128936    2.29279803    c      6.000     0
          7.26166319    9.96128936    2.29279803    c      6.000     0
          4.99589805  -11.26942948    2.29279803    c      6.000     0
         -4.99589805   11.26942948   -2.29279803    c      6.000     0
          4.99589805   11.26942948    2.29279803    c      6.000     0
          4.99589805  -11.26942948   -2.29279803    c      6.000     0
         -4.99589805  -11.26942948    2.29279803    c      6.000     0
         -4.99589805  -11.26942948   -2.29279803    c      6.000     0
         -4.99589805   11.26942948    2.29279803    c      6.000     0
          4.99589805   11.26942948   -2.29279803    c      6.000     0
         12.25756124   -1.30814011    2.29279803    c      6.000     0
         12.25756124    1.30814011   -2.29279803    c      6.000     0
         12.25756124   -1.30814011   -2.29279803    c      6.000     0
         12.25756124    1.30814011    2.29279803    c      6.000     0
        -12.25756124    1.30814011    2.29279803    c      6.000     0
        -12.25756124   -1.30814011    2.29279803    c      6.000     0
        -12.25756124    1.30814011   -2.29279803    c      6.000     0
        -12.25756124   -1.30814011   -2.29279803    c      6.000     0
        -12.10178399   -2.66744747    0.00000000    c      6.000     0
        -12.10178399    2.66744747    0.00000000    c      6.000     0
         12.10178399   -2.66744747    0.00000000    c      6.000     0
         12.10178399    2.66744747    0.00000000    c      6.000     0
         -3.74081472   11.81417611    0.00000000    c      6.000     0
         -3.74081472  -11.81417611    0.00000000    c      6.000     0
          3.74081472  -11.81417611    0.00000000    c      6.000     0
          3.74081472   11.81417611    0.00000000    c      6.000     0
          8.36096927    9.14672863    0.00000000    c      6.000     0
         -8.36096927    9.14672863    0.00000000    c      6.000     0
          8.36096927   -9.14672863    0.00000000    c      6.000     0
         -8.36096927   -9.14672863    0.00000000    c      6.000     0
         -1.15370024   12.48861445    0.00000000    c      6.000     0
          1.15370024  -12.48861445    0.00000000    c      6.000     0
         -1.15370024  -12.48861445    0.00000000    c      6.000     0
          1.15370024   12.48861445    0.00000000    c      6.000     0
         10.23860725    7.24344094    0.00000000    c      6.000     0
        -10.23860725    7.24344094    0.00000000    c      6.000     0
         10.23860725   -7.24344094    0.00000000    c      6.000     0
        -10.23860725   -7.24344094    0.00000000    c      6.000     0
         11.39230749   -5.24517351    0.00000000    c      6.000     0
         11.39230749    5.24517351    0.00000000    c      6.000     0
        -11.39230749    5.24517351    0.00000000    c      6.000     0
        -11.39230749   -5.24517351    0.00000000    c      6.000     0
         -8.13552991    9.41673707    4.06644302    h      1.000     0
         -8.13552991   -9.41673707    4.06644302    h      1.000     0
          8.13552991    9.41673707    4.06644302    h      1.000     0
         -8.13552991   -9.41673707   -4.06644302    h      1.000     0
         -8.13552991    9.41673707   -4.06644302    h      1.000     0
          8.13552991    9.41673707   -4.06644302    h      1.000     0
          8.13552991   -9.41673707    4.06644302    h      1.000     0
          8.13552991   -9.41673707   -4.06644302    h      1.000     0
         -4.08736857  -11.75394411    4.06644302    h      1.000     0
         -4.08736857   11.75394411    4.06644302    h      1.000     0
         -4.08736857  -11.75394411   -4.06644302    h      1.000     0
         -4.08736857   11.75394411   -4.06644302    h      1.000     0
          4.08736857  -11.75394411    4.06644302    h      1.000     0
          4.08736857   11.75394411    4.06644302    h      1.000     0
          4.08736857   11.75394411   -4.06644302    h      1.000     0
          4.08736857  -11.75394411   -4.06644302    h      1.000     0
         12.22289848   -2.33720704   -4.06644302    h      1.000     0
         12.22289848   -2.33720704    4.06644302    h      1.000     0
        -12.22289848   -2.33720704    4.06644302    h      1.000     0
        -12.22289848    2.33720704    4.06644302    h      1.000     0
        -12.22289848    2.33720704   -4.06644302    h      1.000     0
        -12.22289848   -2.33720704   -4.06644302    h      1.000     0
         12.22289848    2.33720704    4.06644302    h      1.000     0
         12.22289848    2.33720704   -4.06644302    h      1.000     0
 
       center of nuclear mass  :    0.00000000    0.00000000    0.00000000
       center of nuclear charge:    0.00000000    0.00000000    0.00000000

              +--------------------------------------------------+
              |               basis set information              |
              +--------------------------------------------------+

              we will work with the 1s 3p 5d 7f 9g ... basis set
              ...i.e. with spherical basis functions...

   type   atoms  prim   cont   basis
   ---------------------------------------------------------------------------
    c       48     77     57   def2-QZVP   [7s4p3d2f1g|15s8p3d2f1g]
    h       24     33     30   def2-QZVP   [4s3p2d1f|7s3p2d1f]
   ---------------------------------------------------------------------------
   total:   72   4488   3456
   ---------------------------------------------------------------------------

   total number of primitive shells          :   42
   total number of contracted shells         : 1056
   total number of cartesian basis functions : 4296
   total number of SCF-basis functions       : 3456


 integral neglect threshold       :  0.78E-14
 integral storage threshold THIZE :  0.10E-04
 integral storage threshold THIME :         5

 RI-JK AUXILIARY BASIS SET information:

              we will work with the 1s 3p 5d 7f 9g ... basis set
              ...i.e. with spherical basis functions...

   type   atoms  prim   cont   basis
   ---------------------------------------------------------------------------
    c       48     97     75   def2-QZVP   [10s8p5d1f1g|14s10p6d2f1g]
    h       24     20     18   def2-QZVP   [2s2p2d|4s2p2d]
   ---------------------------------------------------------------------------
   total:   72   5136   4032
   ---------------------------------------------------------------------------

   total number of primitive shells          :   41
   total number of contracted shells         : 1344
   total number of cartesian basis functions : 4752
   total number of SCF-basis functions       : 4032


 symmetry group of the molecule :   c1 

 the group has the following generators :
   c1(z)

    1 symmetry operations found

 there are 1 real representations :   a   

 maximum number of shells which are related by symmetry :  1


    mo occupation :
   irrep   mo's   occupied
    a     3456      156
 
 number of basis functions   :         3456
 number of occupied orbitals :          156
 

 biggest AO integral is expected to be     5.262544080
  
           ------------------------
               RI-JK - INFORMATION
           ------------------------
 Contributions to RI integral batches: 
  neglected integral batches:      406828
  direct contribution:             151268
  memory contribution:           0
 Memory core needed for (P|Q) and Cholesky    125 MByte
 Memory core minimum needed except of (P|Q)     6 MByte
 Total minimum memory core needed (sum)       130 MByte
  
 ****************************************
 Memory allocated for RI-J   130 MByte
 ****************************************
                                            
 total memory allocated for calculation of  (Q|P)**(-1/2) :  187 MiB

  forming (P|Q)**(-1/2) 
 eigenvalues of original matrix 
 smallest =0.6303657719628E-08  largest = 72.64808143707    
  The symmetry information takes            1  MB

          ------------------------
          nuclear repulsion energy  :   4282.95117564    
          ------------------------

 
          -----------------
          -S,T+V- integrals
          -----------------

 1e-integrals will be neglected if expon. factor < 0.777924E-15
 
   Difference densities algorithm switched on.
   The maximal number of linear combinations of
   difference densities is          20 .

 automatic virtual orbital shift switched on 
      shift if e(lumo)-e(homo) < 0.10000000    


 DIIS switched on: error vector is FDS-SDF
 Max. Iterations for DIIS is     :   5
 DIIS matrix (see manual) 
    Scaling factor of diagonals  :  1.200
    threshold for scaling factor :  0.000

 scf convergence criterion : increment of total energy < .1000000D-08
                  and increment of one-electron energy < .1000000D-05


 <geterg> : there is no data group $energy 

  MOs are in ASCII format !


 reading orbital data $scfmo  from file mos . 

 orbital characterization : scfconv=9
 

 DSCF restart information will be dumped onto file mos


 Starting SCF iterations

 
 BLOCKING OF MOS FOR RI-K
 
 
 occupied MOs partitioned into blocks of maximum length 105
 this requires 13886 MiB core memory.
 
            MULTIPLE PASS Statistics 
 ----------------------------------------------------
  pass       irrep     lambda      batch : MO  to  MO
 ----------------------------------------------------
   1       1  ->  1    1  ->105             1  -> 105
   2       1  ->  1  106  ->156           106  -> 156



 ENERGY & DENSITY CONVERGED !


 ITERATION  ENERGY          1e-ENERGY        2e-ENERGY     RMS[dD(SAO)]   TOL
   1  -1831.6512421690    -11007.320216     4892.7177981    0.000D+00 0.776D-14
                           RI-K = -257.290059221     Coul =  5150.00785736    
                            current damping = 0.700
 
          max. resid. norm for Fia-block=  8.468D-02 for orbital     43a         
          max. resid. fock norm         =  5.245D-01 for orbital   3408a         

 End of SCF iterations

   convergence criteria satisfied after    1 iterations


                  ------------------------------------------ 
                 |  total energy      =  -1831.65124216899  |
                  ------------------------------------------ 
                 :  kinetic energy    =   1835.74275366687  :
                 :  potential energy  =  -3667.39399583586  :
                 :  virial theorem    =      2.00223378305  :
                 :  wavefunction norm =      1.00000000000  :
                  .......................................... 


 <geterg> : there is no data group $energy 


 <skperg> : $end is missing 


 orbitals $scfmo  will be written to file mos

    irrep                152a        153a        154a        155a        156a   
 eigenvalues H         -0.31780    -0.31779    -0.25583    -0.25583    -0.22371
            eV          -8.6477     -8.6477     -6.9615     -6.9615     -6.0876
 occupation              2.0000      2.0000      2.0000      2.0000      2.0000 

    irrep                157a        158a        159a        160a        161a   
 eigenvalues H          0.01524     0.04886     0.04886     0.11203     0.11203
            eV           0.4147      1.3294      1.3295      3.0484      3.0484
 
 
 
 
 ==============================================================================
                           electrostatic moments
 ==============================================================================

 reference point for electrostatic moments:    0.00000   0.00000   0.00000

 
              nuc           elec       ->  total
 ------------------------------------------------------------------------------
                          charge      
 ------------------------------------------------------------------------------
         312.000000    -312.000000       0.000000
 
 ------------------------------------------------------------------------------
                       dipole moment  
 ------------------------------------------------------------------------------
   x       0.000000       0.000000       0.000000
   y       0.000000       0.000000       0.000000
   z      -0.000000      -0.000000      -0.000000
 
   | dipole moment | =     0.0000 a.u. =     0.0000 debye 
 
 ------------------------------------------------------------------------------
                     quadrupole moment
 ------------------------------------------------------------------------------
  xx   23990.530953  -24207.919870    -217.388917
  yy   23990.530953  -24207.922816    -217.391863
  zz    1153.859899   -1332.115599    -178.255700
  xy       0.000000       0.000000       0.000000
  xz       0.000000       0.000000       0.000000
  yz       0.000000      -0.000000      -0.000000
 
     1/3  trace=    -204.345493
     anisotropy=      39.134690
 
 ==============================================================================
 
 


    ------------------------------------------------------------------------
         total  cpu-time :  2 hours 49 minutes and 41 seconds
         total wall-time :  2 hours 50 minutes and  0 seconds
    ------------------------------------------------------------------------


   ****  ridft : all done  ****


    2017-11-13 18:56:06.224 

