           Doing BLAS/Lapack in the master proc. with  8 CPUs.
           SMPCPUS    set: Shared-memory Parallelization with   8 CPUs.

           SMP Parallelization Reference:
           C. van Wullen, J. Comput. Chem. 32 (2011) 1195--1201
 operating system is UNIX !

 ridft (c-18-263.gp.local) : TURBOMOLE V7.2 ( 21454 ) 4 Oct 2017 at 12:48:15
 Copyright (C) 2017 TURBOMOLE GmbH, Karlsruhe


    2018-04-24 21:11:35.262 



                                  r i d f t

                        DFT program with RI approximation 
                                for coulomb part 




                                                 
                                 References:     
                                                 
          TURBOMOLE:                             
              R. Ahlrichs, M. Baer, M. Haeser, H. Horn, and
              C. Koelmel
              Electronic structure calculations on workstation
              computers: the program system TURBOMOLE
              Chem. Phys. Lett. 162: 165 (1989)
          Density Functional:                              
              O. Treutler and R. Ahlrichs                      
              Efficient Molecular Numerical Integration Schemes
              J. Chem. Phys. 102: 346 (1995)                   
          Parallel Version:                                
              Performance of parallel TURBOMOLE for Density    
              Functional Calculations                          
              M. v. Arnim and R. Ahlrichs                      
              J. Comp. Chem. 19: 1746 (1998)                   
          RI-J Method:                                     
              Auxiliary Basis Sets to approximate Coulomb      
              Potentials                                       
              Chem. Phys. Lett. 240: 283 (1995)                
              K. Eichkorn, O. Treutler, H. Oehm, M. Haeser     
              and R. Ahlrichs                                  
              Chem. Phys. Lett. 242: 652 (1995)                
                                                           
              Auxiliary Basis Sets for Main Row Atoms and their
              Use to approximate Coulomb Potentials            
              K. Eichkorn, F. Weigend, O. Treutler and         
              R. Ahlrichs                                      
              Theo. Chem. Acc. 97: 119 (1997)                   
                                                           
              Accurate Coulomb-fitting basis sets for H to Rn 
              F. Weigend                                        
              Phys. Chem. Chem. Phys. 8: 1057 (2006)            
                                                           
          Multipole accelerated RI-J (MARI-J):             
              Fast evaluation of the Coulomb potential for     
              electron densities using multipole accelerated   
              resolution of identity approximation             
              M. Sierka, A. Hogekamp and R. Ahlrichs           
              J. Chem. Phys. 118: 9136 (2003)                  
          RI-JK Method:                                     
              A fully direct RI-HF algorithm: Implementation,
              optimised auxiliary basis sets, demonstration of
              accuracy and efficiency                         
              F. Weigend                                      
              Phys. Chem. Chem. Phys. 4: 4285 (2002)           
          Two-component HF and DFT with spin-orbit coupling:  
              Self-consistent treatment of spin-orbit         
              interactions with efficient Hartree-Fock and    
              density functional methods                      
              M. K. Armbruster, F. Weigend, C. van Wüllen and 
              W. Klopper                                      
              Phys. Chem. Chem. Phys. 10: 1748 (2008)         
          Relativistic all-electron 2c calculations           
              An efficient implementation of two-component    
              relativistic exact-decoupling methods for large 
              molecules                                       
              D. Peng, N. Middendorf, F. Weigend, M. Reiher   
              J. Chem. Phys. 138, 184105 (2013)               
                                         




              +--------------------------------------------------+
              |      general information about current run       |
              +--------------------------------------------------+

 

 DENSITY CONVERGENCE CHECK SWITCHED ON !
 SCF CONVERGENCE IF RMS(delta[D]) <     0.1000000000E-06

 PBE functional
 exchange:    LDA + PBE
 correlation: LDA (PW) + PBE
 A DFT calculation using the RI-J approximation will be carried out.
 Allocatable memory for RI due to $ricore (MB):                   500


              +--------------------------------------------------+
              | Atomic coordinate, charge and isotop information |
              +--------------------------------------------------+

                    atomic coordinates            atom    charge  isotop
          1.54720758    1.63304905    0.35580919    c      6.000     0
          2.77055320    3.24403175    0.65142905    h      1.000     0
          2.58702963   -0.73798330   -0.12604130    c      6.000     0
          4.61666967   -0.96727888   -0.20895541    h      1.000     0
          1.00982921   -2.81284449   -0.51379393    c      6.000     0
          1.81574005   -4.65168223   -0.89857893    h      1.000     0
         -1.60459596   -2.51429450   -0.41554404    c      6.000     0
         -2.82905121   -4.12311840   -0.71725162    h      1.000     0
         -2.64464424   -0.14367626    0.07640950    c      6.000     0
         -4.67270062    0.08486340    0.17646651    h      1.000     0
         -1.06824764    1.93017262    0.45784135    c      6.000     0
         -1.87566028    3.76747387    0.84330572    h      1.000     0
         -4.53237960    0.30640185    6.65261336    n      7.000     0
         -3.37041359    2.49407696    7.18185798    c      6.000     0
         -4.59420790    4.10633735    7.48896132    h      1.000     0
         -0.75840598    2.76024061    7.35225612    c      6.000     0
          0.05766991    4.58127542    7.78919160    h      1.000     0
          0.75517280    0.64945563    6.94745050    c      6.000     0
          2.79148341    0.78246264    7.05107270    h      1.000     0
         -0.41750035   -1.63457138    6.39251432    c      6.000     0
          0.67055579   -3.32705146    6.04466310    h      1.000     0
         -3.04519152   -1.70645256    6.26883284    c      6.000     0
         -4.00678419   -3.46097517    5.83638286    h      1.000     0
 
       center of nuclear mass  :   -0.97302812    0.02120287    3.40687820
       center of nuclear charge:   -0.94096369    0.02004983    3.38679209

              +--------------------------------------------------+
              |               basis set information              |
              +--------------------------------------------------+

              we will work with the 1s 3p 5d 7f 9g ... basis set
              ...i.e. with spherical basis functions...

   type   atoms  prim   cont   basis
   ---------------------------------------------------------------------------
    c       11     77     57   def2-QZVP   [7s4p3d2f1g|15s8p3d2f1g]
    h       11     33     30   def2-QZVP   [4s3p2d1f|7s3p2d1f]
    n        1     77     57   def2-QZVP   [7s4p3d2f1g|15s8p3d2f1g]
   ---------------------------------------------------------------------------
   total:   23   1287   1014
   ---------------------------------------------------------------------------

   total number of primitive shells          :   71
   total number of contracted shells         :  314
   total number of cartesian basis functions : 1249
   total number of SCF-basis functions       : 1014


 integral neglect threshold       :  0.27E-13
 integral storage threshold THIZE :  0.10E-04
 integral storage threshold THIME :         5

 RI-J AUXILIARY BASIS SET information:

              we will work with the 1s 3p 5d 7f 9g ... basis set
              ...i.e. with spherical basis functions...

   type   atoms  prim   cont   basis
   ---------------------------------------------------------------------------
    c       11     70     49   def2-QZVP   [6s4p3d1f1g|12s5p4d2f1g]
    h       11     16     11   def2-QZVP   [3s1p1d|5s2p1d]
    n        1     70     49   def2-QZVP   [6s4p3d1f1g|12s5p4d2f1g]
   ---------------------------------------------------------------------------
   total:   23   1016    709
   ---------------------------------------------------------------------------

   total number of primitive shells          :   56
   total number of contracted shells         :  235
   total number of cartesian basis functions :  864
   total number of SCF-basis functions       :  709


 symmetry group of the molecule :   c1 

 the group has the following generators :
   c1(z)

    1 symmetry operations found

 there are 1 real representations :   a   

 maximum number of shells which are related by symmetry :  1


    mo occupation :
   irrep   mo's   occupied
    a     1014       42
 
 number of basis functions   :                   1014
 number of occupied orbitals :                     42
 
  
           ------------------
           density functional
           ------------------
 PBE functional
 exchange:    LDA + PBE
 correlation: LDA (PW) + PBE

 iterations will be done with small grid
  
 spherical integration : Lebedev's spherical grid
 spherical gridsize    :                     5
    i.e. gridpoints    :                   590
 value for diffuse not defined
 radial integration    : Chebyshev 2nd kind (scaling 3)
 radial gridsize       :                     8
 integration cells     :                    23
 partition function    : becke
 partition sharpness   :                     3
  

 biggest AO integral is expected to be     6.129561670
  
           ------------------------
               RI-J - INFORMATION
           ------------------------
 Contributions to RI integral batches: 
  neglected integral batches:                 12273
  direct contribution:                        27327
  memory contribution:                  9855
 Memory core needed for (P|Q) and Cholesky      4 MByte
 Memory core minimum needed except of (P|Q)     1 MByte
 Total minimum memory core needed (sum)         5 MByte
  
 ****************************************
 Memory allocated for RI-J   280 MByte
 ****************************************
                                            

          ------------------------
          nuclear repulsion energy  :   630.674434831    
          ------------------------


         -----------------
         -S,T+V- integrals
         -----------------

 1e-integrals will be neglected if expon. factor < 0.267571E-14
 Difference densities >>NOT<< switched on in parallel ridft!

 DIIS switched on: error vector is FDS-SDF
 Max. Iterations for DIIS is     :   4
 DIIS matrix (see manual) 
    Scaling factor of diagonals  :  1.200
    threshold for scaling factor :  0.000

 scf convergence criterion : increment of total energy < .1000000D-08
                  and increment of one-electron energy < .1000000D-05

  MOs are in ASCII format !


 automatic virtual orbital shift switched on 
      shift if e(lumo)-e(homo) < 0.10000000    


 reading orbital data $scfmo  from file mos
 orbital characterization : expanded
 mo provided and orthogonalized by Cholesky decomposition

 DSCF restart information will be dumped onto file mos


 Starting SCF iterations

          Overall gridpoints after grid construction =        110989

 ITERATION  ENERGY          1e-ENERGY        2e-ENERGY     RMS[dD(SAO)]   TOL
   1  -478.34448127270    -1878.6355006     769.61658452    0.000D+00 0.267D-13
                            Exc = -68.2622518417     Coul =  837.878836364    
                              N = 83.999917220    
                            current damping = 0.700
 
          max. resid. norm for Fia-block=  5.795D-01 for orbital     13a         
          max. resid. fock norm         =  4.816D+01 for orbital    929a         

 ITERATION  ENERGY          1e-ENERGY        2e-ENERGY     RMS[dD(SAO)]   TOL
   2  -479.76963373357    -1892.7457229     782.30165438    0.438D-02 0.267D-13
                            Exc = -69.4185831703     Coul =  851.720237549    
                              N = 83.999939024    
                            current damping = 0.650
 
          Norm of current diis error:  4.0923    
          max. resid. norm for Fia-block=  1.376D-01 for orbital      1a         
          max. resid. fock norm         =  2.008D-01 for orbital    535a         

 ITERATION  ENERGY          1e-ENERGY        2e-ENERGY     RMS[dD(SAO)]   TOL
   3  -480.01534345327    -1895.4899539     784.80017563    0.222D-02 0.267D-13
                            Exc = -69.7756081694     Coul =  854.575783801    
                              N = 83.999944150    
                            current damping = 0.550
 
          Norm of current diis error:  2.0101    
          max. resid. norm for Fia-block=  5.970D-02 for orbital     42a         
          max. resid. fock norm         =  6.167D-02 for orbital     13a         

 ITERATION  ENERGY          1e-ENERGY        2e-ENERGY     RMS[dD(SAO)]   TOL
   4  -480.09424826974    -1897.6082415     786.83955838    0.125D-02 0.267D-13
                            Exc = -69.9487910553     Coul =  856.788349432    
                              N = 83.999948815    
                            current damping = 0.450
 
          Norm of current diis error: 0.78526    
          max. resid. norm for Fia-block=  3.089D-02 for orbital     13a         
          max. resid. fock norm         =  5.557D-02 for orbital    957a         

 ITERATION  ENERGY          1e-ENERGY        2e-ENERGY     RMS[dD(SAO)]   TOL
   5  -480.10318693680    -1898.5522848     787.77466306    0.588D-03 0.267D-13
                            Exc = -70.0712710161     Coul =  857.845934072    
                              N = 83.999950816    
                            current damping = 0.350
 
          Norm of current diis error: 0.50815    
          max. resid. norm for Fia-block=  1.835D-02 for orbital     42a         
          max. resid. fock norm         =  2.102D-02 for orbital     42a         
          mo-orthogonalization: Cholesky decomposition

 ITERATION  ENERGY          1e-ENERGY        2e-ENERGY     RMS[dD(SAO)]   TOL
   6  -480.10906196748    -1898.4757167     787.69221994    0.384D-03 0.267D-13
                            Exc = -70.0620882694     Coul =  857.754308209    
                              N = 83.999950914    
                            current damping = 0.400
 
          Norm of current diis error: 0.20018    
          max. resid. norm for Fia-block=  4.685D-03 for orbital     38a         
          max. resid. fock norm         =  1.128D-02 for orbital   1008a         

 ITERATION  ENERGY          1e-ENERGY        2e-ENERGY     RMS[dD(SAO)]   TOL
   7  -480.10984703248    -1898.6539493     787.86966743    0.657D-04 0.267D-13
                            Exc = -70.0759798245     Coul =  857.945647252    
                              N = 83.999950949    
                            current damping = 0.450
 
          Norm of current diis error: 0.85836E-01
          max. resid. norm for Fia-block=  2.018D-03 for orbital     25a         
          max. resid. fock norm         =  5.586D-03 for orbital   1008a         

 ITERATION  ENERGY          1e-ENERGY        2e-ENERGY     RMS[dD(SAO)]   TOL
   8  -480.10999148905    -1898.6724061     787.88797977    0.245D-04 0.267D-13
                            Exc = -70.0801128368     Coul =  857.968092607    
                              N = 83.999951043    
                            current damping = 0.300
 
          Norm of current diis error: 0.27690E-01
          max. resid. norm for Fia-block=  6.854D-04 for orbital     40a         
          max. resid. fock norm         =  1.648D-03 for orbital   1005a         

 ITERATION  ENERGY          1e-ENERGY        2e-ENERGY     RMS[dD(SAO)]   TOL
   9  -480.11000313437    -1898.6473120     787.86287406    0.135D-04 0.267D-13
                            Exc = -70.0786822802     Coul =  857.941556337    
                              N = 83.999950978    
                            current damping = 0.350
 
          Norm of current diis error: 0.16695E-01
          max. resid. norm for Fia-block=  3.225D-04 for orbital     40a         
          max. resid. fock norm         =  8.326D-04 for orbital   1005a         

 ITERATION  ENERGY          1e-ENERGY        2e-ENERGY     RMS[dD(SAO)]   TOL
  10  -480.11000835836    -1898.6548340     787.87039084    0.419D-05 0.267D-13
                            Exc = -70.0790221237     Coul =  857.949412961    
                              N = 83.999951008    
                            current damping = 0.400
 
          Norm of current diis error: 0.64560E-02
          max. resid. norm for Fia-block=  2.008D-04 for orbital     42a         
          max. resid. fock norm         =  3.032D-04 for orbital    979a         
          mo-orthogonalization: Cholesky decomposition

 ITERATION  ENERGY          1e-ENERGY        2e-ENERGY     RMS[dD(SAO)]   TOL
  11  -480.11000906145    -1898.6609352     787.87649129    0.226D-05 0.267D-13
                            Exc = -70.0794493131     Coul =  857.955940603    
                              N = 83.999950995    
                            current damping = 0.250
 
          Norm of current diis error: 0.31837E-02
          max. resid. norm for Fia-block=  9.055D-05 for orbital     38a         
          max. resid. fock norm         =  1.936D-04 for orbital   1008a         

 ITERATION  ENERGY          1e-ENERGY        2e-ENERGY     RMS[dD(SAO)]   TOL
  12  -480.11000926366    -1898.6583805     787.87393641    0.131D-05 0.267D-13
                            Exc = -70.0792027883     Coul =  857.953139200    
                              N = 83.999950992    
                            current damping = 0.300
 
          Norm of current diis error: 0.12880E-02
          max. resid. norm for Fia-block=  2.622D-05 for orbital     38a         
          max. resid. fock norm         =  6.665D-05 for orbital   1008a         

 ITERATION  ENERGY          1e-ENERGY        2e-ENERGY     RMS[dD(SAO)]   TOL
  13  -480.11000929893    -1898.6571658     787.87272170    0.255D-06 0.267D-13
                            Exc = -70.0791715581     Coul =  857.951893257    
                              N = 83.999950993    
                            current damping = 0.150
 
          Norm of current diis error: 0.34064E-03
          max. resid. norm for Fia-block=  7.030D-06 for orbital     40a         
          max. resid. fock norm         =  1.434D-05 for orbital   1012a         

 ITERATION  ENERGY          1e-ENERGY        2e-ENERGY     RMS[dD(SAO)]   TOL
  14  -480.11000929987    -1898.6584537     787.87400954    0.111D-06 0.267D-13
                            Exc = -70.0792364950     Coul =  857.953246037    
                              N = 83.999950993    
                            current damping = 0.200
 
          Norm of current diis error: 0.25293E-03
          max. resid. norm for Fia-block=  4.626D-06 for orbital     40a         
          max. resid. fock norm         =  1.109D-05 for orbital   1005a         

 DENSITY CONVERGED !


 ITERATION  ENERGY          1e-ENERGY        2e-ENERGY     RMS[dD(SAO)]   TOL
  15  -480.11000930098    -1898.6581988     787.87375470    0.509D-07 0.267D-13
                            Exc = -70.0792279143     Coul =  857.952982616    
                              N = 83.999950993    
                            current damping = 0.250
 
          Norm of current diis error: 0.10289E-03
          max. resid. norm for Fia-block=  2.191D-06 for orbital     40a         
          max. resid. fock norm         =  5.075D-06 for orbital   1005a         
          mo-orthogonalization: Cholesky decomposition

 DENSITY CONVERGED !


 ITERATION  ENERGY          1e-ENERGY        2e-ENERGY     RMS[dD(SAO)]   TOL
  16  -480.11000930118    -1898.6580333     787.87358918    0.262D-07 0.267D-13
                            Exc = -70.0792165401     Coul =  857.952805715    
                              N = 83.999950992    
                            current damping = 0.100
 
          Norm of current diis error: 0.33083E-04
          max. resid. norm for Fia-block=  6.795D-07 for orbital     41a         
          max. resid. fock norm         =  1.588D-06 for orbital   1005a         

 ENERGY & DENSITY CONVERGED !

          Overall gridpoints after grid construction =        356855

 ITERATION  ENERGY          1e-ENERGY        2e-ENERGY     RMS[dD(SAO)]   TOL
  17  -480.10999362949    -1898.6580228     787.87359434    0.107D-07 0.267D-13
                            Exc = -70.0792003788     Coul =  857.952794720    
                              N = 84.000008702    
                            current damping = 0.150
 
          Norm of current diis error: 0.26166E-04
          max. resid. norm for Fia-block=  4.892D-07 for orbital     42a         
          max. resid. fock norm         =  7.063D-07 for orbital    979a         

 End of SCF iterations

   convergence criteria satisfied after    17 iterations


                  ------------------------------------------ 
                 |  total energy      =   -480.10999362949  |
                  ------------------------------------------ 
                 :  kinetic energy    =    478.08285334615  :
                 :  potential energy  =   -958.19284697565  :
                 :  virial theorem    =      1.99577775862  :
                 :  wavefunction norm =      1.00000000000  :
                  .......................................... 


 <geterg> : there is no data group $energy 


 <skperg> : $end is missing 


 orbitals $scfmo  will be written to file mos

    irrep                 38a         39a         40a         41a         42a   
 eigenvalues H         -0.26410    -0.24287    -0.23188    -0.22878    -0.21385
            eV          -7.1866     -6.6088     -6.3097     -6.2254     -5.8193
 occupation              2.0000      2.0000      2.0000      2.0000      2.0000 

    irrep                 43a         44a         45a         46a         47a   
 eigenvalues H         -0.06352    -0.05174    -0.04384    -0.04219    -0.00404
            eV          -1.7284     -1.4079     -1.1929     -1.1481     -0.1099
 
 
 
 
 ==============================================================================
                           electrostatic moments
 ==============================================================================

 reference point for electrostatic moments:    0.00000   0.00000   0.00000

 
              nuc           elec       ->  total
 ------------------------------------------------------------------------------
                          charge      
 ------------------------------------------------------------------------------
          84.000000     -84.000000       0.000000
 
 ------------------------------------------------------------------------------
                       dipole moment  
 ------------------------------------------------------------------------------
   x     -79.040950      79.872242       0.831293
   y       1.684186      -1.638741       0.045445
   z     284.490536    -284.504635      -0.014099
 
   | dipole moment | =     0.8327 a.u. =     2.1164 debye 
 
 ------------------------------------------------------------------------------
                     quadrupole moment
 ------------------------------------------------------------------------------
  xx     511.459975    -566.161200     -54.701225
  yy     372.684179    -419.686439     -47.002260
  zz    1958.561654   -2015.945720     -57.384066
  xy     -38.227901      38.279451       0.051550
  xz    -525.515936     531.499357       5.983420
  yz     212.207687    -209.815969       2.391718
 
     1/3  trace=     -53.029184
     anisotropy=      14.549902
 
 ==============================================================================
 


    ------------------------------------------------------------------------
         total  cpu-time : 17 minutes and 10 seconds
         total wall-time :  2 minutes and 33 seconds
    ------------------------------------------------------------------------

   ****  ridft : all done  ****


    2018-04-24 21:14:08.197 

