
   OpenMP run-time library returned nthreads = 28
 operating system is UNIX !

 dscf (c-13-33) : TURBOMOLE V7.3 ( 22142 ) 4 Jul 2018 at 18:12:42
 Copyright (C) 2018 TURBOMOLE GmbH, Karlsruhe


    2019-04-01 22:19:28.917 



                             d s c f - program

                   idea & directorship : reinhart ahlrichs
                   program development : marco haeser
                                         michael baer
                           dft version : oliver treutler


                          quantum chemistry group
                          universitaet  karlsruhe
                                  germany




                          References             
                                                 
          TURBOMOLE:                             
              R. Ahlrichs, M. Baer, M. Haeser, H. Horn, and
              C. Koelmel
              Electronic structure calculations on workstation
              computers: the program system TURBOMOLE
              Chem. Phys. Lett. 162: 165 (1989)
          Density Functional:                              
              O. Treutler and R. Ahlrichs                      
              Efficient Molecular Numerical Integration Schemes
              J. Chem. Phys. 102: 346 (1995)                   
          Parallel Version:                                
              Performance of parallel TURBOMOLE for Density    
              Functional Calculations                          
              M. v. Arnim and R. Ahlrichs                      
              J. Comp. Chem. 19: 1746 (1998)                   
                                         




              +--------------------------------------------------+
              | Atomic coordinate, charge and isotop information |
              +--------------------------------------------------+

                    atomic coordinates            atom    charge  isotop
          1.37195489    0.04734424    6.42164927    c      6.000     0
          2.34916579   -1.59858435    5.70879432    h      1.000     0
          2.51639383    1.53454745    7.22915634    h      1.000     0
         -1.13906879    0.23743264    6.32858606    c      6.000     0
         -2.29558664   -1.25068812    5.54075788    h      1.000     0
         -2.10627785    1.88351561    7.05424046    h      1.000     0
 
       center of nuclear mass  :    0.11636842    0.14236102    6.37628460
       center of nuclear charge:    0.11631323    0.14234074    6.37714756

              +--------------------------------------------------+
              |               basis set information              |
              +--------------------------------------------------+

              we will work with the 1s 3p 5d 7f 9g ... basis set
              ...i.e. with spherical basis functions...

   type   atoms  prim   cont   basis
   ---------------------------------------------------------------------------
    c        2     50     30   cc-pVTZ   [4s3p2d1f|18s5p2d1f]
    h        4     16     14   cc-pVTZ   [3s2p1d|5s2p1d]
   ---------------------------------------------------------------------------
   total:    6    164    116
   ---------------------------------------------------------------------------

   total number of primitive shells          :   34
   total number of contracted shells         :   44
   total number of cartesian basis functions :  130
   total number of SCF-basis functions       :  116


 integral neglect threshold       :  0.26E-12
 integral storage threshold THIZE :  0.10E-04
 integral storage threshold THIME :         5


 DENSITY CONVERGENCE CHECK SWITCHED ON !
 SCF CONVERGENCE IF RMS(delta[D]) <     0.1000000000E-06


 symmetry group of the molecule :   c1 

 the group has the following generators :
   c1(z)

    1 symmetry operations found

 there are 1 real representations :   a   

 maximum number of shells which are related by symmetry :  1


    mo occupation :
   irrep   mo's   occupied
    a      116        8
 
 number of basis functions   :                    116
 number of occupied orbitals :                      8
 

 automatic virtual orbital shift switched on 
      shift if e(lumo)-e(homo) < 0.10000000    


          ------------------------
          nuclear repulsion energy  :   33.4040917650    
          ------------------------


         -----------------
         -S,T+V- integrals
         -----------------

 1e-integrals will be neglected if expon. factor < 0.257074E-13
 
   Difference densities algorithm switched on.
   The maximal number of linear combinations of
   difference densities is                    20 .

 DIIS switched on: error vector is FDS-SDF
 Max. Iterations for DIIS is     :   5
 DIIS matrix (see manual) 
    Scaling factor of diagonals  :  1.200
    threshold for scaling factor :  0.000

 scf convergence criterion : increment of total energy < .1000000D-08
                  and increment of one-electron energy < .1000000D-05

  MOs are in ASCII format !


 reading orbital data $scfmo  from file mos
 orbital characterization : scfconv=9

 DSCF restart information will be dumped onto file mos

 
                                              current damping :  0.700
 ITERATION  ENERGY          1e-ENERGY        2e-ENERGY     RMS[dD(SAO)]   TOL
   1  -78.046451732556    -170.42568332     58.975139827    0.000D+00 0.256D-12
          max. resid. norm for Fia-block=  9.032D-02 for orbital      2a         
          max. resid. fock norm         =  1.605D-01 for orbital    115a         
          Delta Eig. =    20.8257624534 eV 
 
                                              current damping :  0.650
 ITERATION  ENERGY          1e-ENERGY        2e-ENERGY     RMS[dD(SAO)]   TOL
   2  -78.060322155126    -170.14480140     58.680387480    0.126D-02 0.163D-12
          Norm of current diis error: 0.25238    
          max. resid. norm for Fia-block=  4.399D-02 for orbital      2a         
          max. resid. fock norm         =  5.418D-02 for orbital     46a         
          Delta Eig. =     9.7733884084 eV 
 
                                              current damping :  0.600
 ITERATION  ENERGY          1e-ENERGY        2e-ENERGY     RMS[dD(SAO)]   TOL
   3  -78.063100985204    -170.17557134     58.708378590    0.618D-03 0.124D-12
          Norm of current diis error: 0.11205    
          max. resid. norm for Fia-block=  1.803D-02 for orbital      2a         
          max. resid. fock norm         =  2.386D-02 for orbital     46a         
          Delta Eig. =     3.7485887828 eV 
 
                                              current damping :  0.650
 ITERATION  ENERGY          1e-ENERGY        2e-ENERGY     RMS[dD(SAO)]   TOL
   4  -78.063691628030    -170.15591077     58.688127380    0.282D-03 0.109D-12
          Norm of current diis error: 0.45345E-01
          max. resid. norm for Fia-block=  6.791D-03 for orbital      2a         
          max. resid. fock norm         =  8.928D-03 for orbital     46a         
          Delta Eig. =     1.3682889423 eV 
 
                                              current damping :  0.500
 ITERATION  ENERGY          1e-ENERGY        2e-ENERGY     RMS[dD(SAO)]   TOL
   5  -78.063788664511    -170.15028368     58.682403251    0.112D-03 0.100D-12
          Norm of current diis error: 0.19059E-01
          max. resid. norm for Fia-block=  2.641D-03 for orbital      2a         
          max. resid. fock norm         =  3.534D-03 for orbital     46a         
 mo-orthogonalization: Cholesky decomposition
          Delta Eig. =     0.5909918925 eV 
 
                                              current damping :  0.350
 ITERATION  ENERGY          1e-ENERGY        2e-ENERGY     RMS[dD(SAO)]   TOL
   6  -78.063807286131    -170.14781960     58.679920549    0.519D-04 0.921D-13
          Norm of current diis error: 0.69178E-02
          max. resid. norm for Fia-block=  9.350D-04 for orbital      8a         
          max. resid. fock norm         =  1.186D-03 for orbital     46a         
          Delta Eig. =     0.2174653789 eV 
 
                                              current damping :  0.200
 ITERATION  ENERGY          1e-ENERGY        2e-ENERGY     RMS[dD(SAO)]   TOL
   7  -78.063810006191    -170.14681318     58.678911414    0.213D-04 0.843D-13
          Norm of current diis error: 0.20420E-02
          max. resid. norm for Fia-block=  2.823D-04 for orbital      8a         
          max. resid. fock norm         =  3.010D-04 for orbital     46a         
          Delta Eig. =     0.0640457720 eV 
 
                                              current damping :  0.050
 ITERATION  ENERGY          1e-ENERGY        2e-ENERGY     RMS[dD(SAO)]   TOL
   8  -78.063810278652    -170.14660677     58.678704723    0.730D-05 0.764D-13
          Norm of current diis error: 0.44770E-03
          max. resid. norm for Fia-block=  6.806D-05 for orbital      8a         
          max. resid. fock norm         =  6.806D-05 for orbital      8a         
          Delta Eig. =     0.0116915416 eV 
 
                                              current damping :  0.050
 ITERATION  ENERGY          1e-ENERGY        2e-ENERGY     RMS[dD(SAO)]   TOL
   9  -78.063810295633    -170.14650764     58.678605577    0.198D-05 0.701D-13
          Norm of current diis error: 0.73527E-04
          max. resid. norm for Fia-block=  1.231D-05 for orbital      8a         
          max. resid. fock norm         =  1.231D-05 for orbital      8a         
          Delta Eig. =     0.0006492616 eV 
 
                                              current damping :  0.100
 ITERATION  ENERGY          1e-ENERGY        2e-ENERGY     RMS[dD(SAO)]   TOL
  10  -78.063810296271    -170.14651548     58.678613422    0.373D-06 0.668D-13
          Norm of current diis error: 0.18789E-04
          max. resid. norm for Fia-block=  4.391D-06 for orbital      8a         
          max. resid. fock norm         =  4.391D-06 for orbital      8a         
 mo-orthogonalization: Cholesky decomposition
          Delta Eig. =     0.0000580943 eV 
 
                                              current damping :  0.150
 ITERATION  ENERGY          1e-ENERGY        2e-ENERGY     RMS[dD(SAO)]   TOL
  11  -78.063810296317    -170.14650731     58.678605250    0.104D-06 0.730D-13
          Norm of current diis error: 0.57746E-05
          max. resid. norm for Fia-block=  1.119D-06 for orbital      8a         
          max. resid. fock norm         =  1.119D-06 for orbital      8a         
          Delta Eig. =     0.0000252322 eV 

 DENSITY CONVERGED !

 
                                              current damping :  0.200
 ITERATION  ENERGY          1e-ENERGY        2e-ENERGY     RMS[dD(SAO)]   TOL
  12  -78.063810296324    -170.14651016     58.678608099    0.282D-07 0.747D-13
          Norm of current diis error: 0.13720E-05
          max. resid. norm for Fia-block=  3.449D-07 for orbital      8a         
          max. resid. fock norm         =  3.449D-07 for orbital      8a         
          Delta Eig. =     0.0000064289 eV 

 ENERGY & DENSITY CONVERGED !

 
                                              current damping :  0.250
 ITERATION  ENERGY          1e-ENERGY        2e-ENERGY     RMS[dD(SAO)]   TOL
  13  -78.063810296327    -170.14650935     58.678607291    0.652D-08 0.732D-13
          max. resid. norm for Fia-block=  5.588D-08 for orbital      8a         
          max. resid. fock norm         =  5.588D-08 for orbital      8a         

 convergence criteria satisfied after    13 iterations


                  ------------------------------------------ 
                 |  total energy      =    -78.06381029633  |
                  ------------------------------------------ 
                 :  kinetic energy    =     77.93788828835  :
                 :  potential energy  =   -156.00169858468  :
                 :  virial theorem    =      1.99838693490  :
                 :  wavefunction norm =      1.00000000000  :
                  .......................................... 


 orbitals $scfmo  will be written to file mos

    irrep                  4a          5a          6a          7a          8a   
 eigenvalues H         -0.79235    -0.64294    -0.58638    -0.50713    -0.37611
            eV         -21.5612    -17.4955    -15.9563    -13.7997    -10.2345
 occupation              2.0000      2.0000      2.0000      2.0000      2.0000 

    irrep                  9a         10a         11a         12a         13a   
 eigenvalues H          0.15185     0.15918     0.18728     0.19094     0.24111
            eV           4.1321      4.3314      5.0963      5.1958      6.5610
 
 
 
 
 ==============================================================================
                           electrostatic moments
 ==============================================================================

 reference point for electrostatic moments:    0.00000   0.00000   0.00000

 
              nuc           elec       ->  total
 ------------------------------------------------------------------------------
                          charge      
 ------------------------------------------------------------------------------
          16.000000     -16.000000      -0.000000
 
 ------------------------------------------------------------------------------
                       dipole moment  
 ------------------------------------------------------------------------------
   x       1.861012      -1.861398      -0.000387
   y       2.277452      -2.279434      -0.001982
   z     102.034361    -102.030138       0.004223
 
   | dipole moment | =     0.0047 a.u. =     0.0119 debye 
 
 ------------------------------------------------------------------------------
                     quadrupole moment
 ------------------------------------------------------------------------------
  xx      40.635370     -49.665388      -9.030018
  yy      10.373854     -20.036397      -9.662543
  zz     653.044826    -664.290252     -11.245426
  xy      -2.222946       2.133924      -0.089022
  xz      13.633938     -13.476256       0.157682
  yz      19.164352     -18.156582       1.007769
 
     1/3  trace=      -9.979329
     anisotropy=       2.655557
 
 ==============================================================================
 


    ------------------------------------------------------------------------
         total  cpu-time :  2 minutes and  8 seconds
         total wall-time :   5.85 seconds
    ------------------------------------------------------------------------

   ****  dscf : all done  ****


    2019-04-01 22:19:34.710 

