Using Slurm to start processes with PMI2
STARTING ridft ON 8 PROCESSORS!
RUNNING PROGRAM /beegfs/modfac/apps/TURBOMOLE/7.0_intel_GA/bin/em64t-unknown-linux-gnu_mpi/ridft_mpi.
PLEASE WAIT UNTIL ridft HAS FINISHED.
Look for the output in slave1.output.
  this is node-proc. number 1 running on node c-15-34.local
  the total number of node-proc. spawned is            8
  parallel platform: MPP, or cluster with fast interconnect

 ridft (c-15-34.local) : TURBOMOLE V7.0.2( ) 15 Jan 2016 at 17:47:42
 Copyright (C) 2016 TURBOMOLE GmbH, Karlsruhe


    2017-11-01 20:16:31.950 



                                  r i d f t

                        DFT program with RI approximation 
                                for coulomb part 




                                                 
                                 References:     
                                                 
          TURBOMOLE:                             
              R. Ahlrichs, M. Baer, M. Haeser, H. Horn, and
              C. Koelmel
              Electronic structure calculations on workstation
              computers: the program system TURBOMOLE
              Chem. Phys. Lett. 162: 165 (1989)
          Density Functional:                              
              O. Treutler and R. Ahlrichs                      
              Efficient Molecular Numerical Integration Schemes
              J. Chem. Phys. 102: 346 (1995)                   
          Parallel Version:                                
              Performance of parallel TURBOMOLE for Density    
              Functional Calculations                          
              M. v. Arnim and R. Ahlrichs                      
              J. Comp. Chem. 19: 1746 (1998)                   
          RI-J Method:                                     
              Auxiliary Basis Sets to approximate Coulomb      
              Potentials                                       
              Chem. Phys. Lett. 240: 283 (1995)                
              K. Eichkorn, O. Treutler, H. Oehm, M. Haeser     
              and R. Ahlrichs                                  
              Chem. Phys. Lett. 242: 652 (1995)                
                                                           
              Auxiliary Basis Sets for Main Row Atoms and their
              Use to approximate Coulomb Potentials            
              K. Eichkorn, F. Weigend, O. Treutler and         
              R. Ahlrichs                                      
              Theo. Chem. Acc. 97: 119 (1997)                   
                                                           
              Accurate Coulomb-fitting basis sets for H to Rn 
              F. Weigend                                        
              Phys. Chem. Chem. Phys. 8: 1057 (2006)            
                                                           
          Multipole accelerated RI-J (MARI-J):             
              Fast evaluation of the Coulomb potential for     
              electron densities using multipole accelerated   
              resolution of identity approximation             
              M. Sierka, A. Hogekamp and R. Ahlrichs           
              J. Chem. Phys. 118: 9136 (2003)                  
          RI-JK Method:                                     
              A fully direct RI-HF algorithm: Implementation,
              optimised auxiliary basis sets, demonstration of
              accuracy and efficiency                         
              F. Weigend                                      
              Phys. Chem. Chem. Phys. 4: 4285 (2002)           
          Two-component HF and DFT with spin-orbit coupling:  
              Self-consistent treatment of spin-orbit         
              interactions with efficient Hartree-Fock and    
              density functional methods                      
              M. K. Armbruster, F. Weigend, C. van Wüllen and 
              W. Klopper                                      
              Phys. Chem. Chem. Phys. 10: 1748 (2008)         
          Relativistic all-electron 2c calculations           
              An efficient implementation of two-component    
              relativistic exact-decoupling methods for large 
              molecules                                       
              D. Peng, N. Middendorf, F. Weigend, M. Reiher   
              J. Chem. Phys. 138, 184105 (2013)               
                                         


 


              +--------------------------------------------------+
              |      general information about current run       |
              +--------------------------------------------------+

 

 SCF run will be profiled !


 DENSITY CONVERGENCE CHECK SWITCHED ON !
 SCF CONVERGENCE IF RMS(delta[D]) <     0.1000000000E-06

 PBE functional
 exchange:    LDA + PBE
 correlation: LDA (PW) + PBE
 A DFT calculation using the RI-J approximation will be carried out.
 Allocatable memory for RI due to $ricore (MB):       10000


              +--------------------------------------------------+
              | Atomic coordinate, charge and isotop information |
              +--------------------------------------------------+

                    atomic coordinates            atom    charge  isotop
          8.98454269    4.91128795   -2.29352942    c      6.000     0
          8.98454269    4.91128795    2.29352942    c      6.000     0
          8.98454269   -4.91128795    2.29352942    c      6.000     0
          8.98454269   -4.91128795   -2.29352942    c      6.000     0
         -1.89453603   10.06247931   -2.29352942    c      6.000     0
         -1.89453603  -10.06247931   -2.29352942    c      6.000     0
         -1.89453603   10.06247931    2.29352942    c      6.000     0
         -1.89453603  -10.06247931    2.29352942    c      6.000     0
          7.44728878   -7.02713643    2.29352942    c      6.000     0
          7.44728878    7.02713643    2.29352942    c      6.000     0
          7.44728878    7.02713643   -2.29352942    c      6.000     0
          7.44728878   -7.02713643   -2.29352942    c      6.000     0
         -4.38186510    9.25429710    2.29352942    c      6.000     0
         -4.38186510    9.25429710   -2.29352942    c      6.000     0
         -4.38186510   -9.25429710   -2.29352942    c      6.000     0
         -4.38186510   -9.25429710    2.29352942    c      6.000     0
        -10.15543035    1.30766628    2.29352942    c      6.000     0
        -10.15543035    1.30766628   -2.29352942    c      6.000     0
        -10.15543035   -1.30766628   -2.29352942    c      6.000     0
        -10.15543035   -1.30766628    2.29352942    c      6.000     0
          6.49731631   -8.01479984    0.00000000    c      6.000     0
          6.49731631    8.01479984    0.00000000    c      6.000     0
         -0.54545817   10.30313598    0.00000000    c      6.000     0
         -0.54545817  -10.30313598    0.00000000    c      6.000     0
          9.63030877    3.70260566    0.00000000    c      6.000     0
          9.63030877   -3.70260566    0.00000000    c      6.000     0
         -9.96742046   -2.66508257    0.00000000    c      6.000     0
         -9.96742046    2.66508257    0.00000000    c      6.000     0
         -5.61474646    8.65602437    0.00000000    c      6.000     0
         -5.61474646   -8.65602437    0.00000000    c      6.000     0
          2.12612275  -10.28131990    0.00000000    c      6.000     0
          2.12612275   10.28131990    0.00000000    c      6.000     0
          4.32313878    9.56746612    0.00000000    c      6.000     0
          4.32313878   -9.56746612    0.00000000    c      6.000     0
         10.43512435   -1.15503968    0.00000000    c      6.000     0
         10.43512435    1.15503968    0.00000000    c      6.000     0
         -7.76327765    7.06805893    0.00000000    c      6.000     0
         -7.76327765   -7.06805893    0.00000000    c      6.000     0
         -9.12110823    5.19916547    0.00000000    c      6.000     0
         -9.12110823   -5.19916547    0.00000000    c      6.000     0
         -5.34763899   -8.89831609    4.06738281    h      1.000     0
         -5.34763899   -8.89831609   -4.06738281    h      1.000     0
         -5.34763899    8.89831609    4.06738281    h      1.000     0
         -5.34763899    8.89831609   -4.06738281    h      1.000     0
          9.55662979    4.05562561    4.06738281    h      1.000     0
          9.55662979    4.05562561   -4.06738281    h      1.000     0
          9.55662979   -4.05562561   -4.06738281    h      1.000     0
          9.55662979   -4.05562561    4.06738281    h      1.000     0
         -0.90396815  -10.34215227   -4.06738281    h      1.000     0
         -0.90396815  -10.34215227    4.06738281    h      1.000     0
         -0.90396815   10.34215227   -4.06738281    h      1.000     0
         -0.90396815   10.34215227    4.06738281    h      1.000     0
          6.81029017    7.83563780    4.06738281    h      1.000     0
          6.81029017    7.83563780   -4.06738281    h      1.000     0
          6.81029017   -7.83563780   -4.06738281    h      1.000     0
          6.81029017   -7.83563780    4.06738281    h      1.000     0
        -10.11531283   -2.33617601    4.06738281    h      1.000     0
        -10.11531283    2.33617601   -4.06738281    h      1.000     0
        -10.11531283    2.33617601    4.06738281    h      1.000     0
        -10.11531283   -2.33617601   -4.06738281    h      1.000     0
 
       center of nuclear mass  :    0.00000000    0.00000000    0.00000000
       center of nuclear charge:   -0.00000000    0.00000000    0.00000000

              +--------------------------------------------------+
              |               basis set information              |
              +--------------------------------------------------+

              we will work with the 1s 3p 5d 7f 9g ... basis set
              ...i.e. with spherical basis functions...

   type   atoms  prim   cont   basis
   ---------------------------------------------------------------------------
    c       40     77     55   cc-pVQZ   [5s4p3d2f1g|21s6p3d2f1g]
    h       20     32     30   cc-pVQZ   [4s3p2d1f|6s3p2d1f]
   ---------------------------------------------------------------------------
   total:   60   3720   2800
   ---------------------------------------------------------------------------

   total number of primitive shells          :   45
   total number of contracted shells         :  800
   total number of cartesian basis functions : 3500
   total number of SCF-basis functions       : 2800


 integral neglect threshold       :  0.95E-14
 integral storage threshold THIZE :  0.10E-04
 integral storage threshold THIME :         5

 RI-J AUXILIARY BASIS SET information:

              we will work with the 1s 3p 5d 7f 9g ... basis set
              ...i.e. with spherical basis functions...

   type   atoms  prim   cont   basis
   ---------------------------------------------------------------------------
    c       40     70     49   cc-pVQZ   [6s4p3d1f1g|12s5p4d2f1g]
    h       20     16     11   cc-pVQZ   [3s1p1d|5s2p1d]
   ---------------------------------------------------------------------------
   total:   60   3120   2180
   ---------------------------------------------------------------------------

   total number of primitive shells          :   32
   total number of contracted shells         :  700
   total number of cartesian basis functions : 2680
   total number of SCF-basis functions       : 2180


 symmetry group of the molecule :   c1 

 the group has the following generators :
   c1(z)

    1 symmetry operations found

 there are 1 real representations :   a   

 maximum number of shells which are related by symmetry :  1


    mo occupation :
   irrep   mo's   occupied
    a     2800      130
 
 number of basis functions   :         2800
 number of occupied orbitals :          130
 
  
           ------------------
           density functional
           ------------------
 PBE functional
 exchange:    LDA + PBE
 correlation: LDA (PW) + PBE
 grinp -> nfun, dfgga, dfhybrid 
           6 T F
 iterations will be done with small grid
  
 spherical integration : Lebedev's spherical grid
 spherical gridsize    :           5
    i.e. gridpoints    :         590
 value for diffuse not defined
 radial integration    : Chebyshev 2nd kind (scaling 3)
 radial gridsize       :           8
 integration cells     :          60
 partition function    : becke
 partition sharpness   :           3
  

 <rddim> : input of entry tasksize
           from data group '$pardft' failed !

               Default values taken

 <rddim> : input of entry memdiv
           from data group '$pardft' failed !

               Default values taken
  RIDFT: memory allocation for DFT gridpoints
  MEMORY is divided by 1 as DEFAULT
 Each node can hold at most  the            1 -th part
 of the gridpoints    

 biggest AO integral is expected to be     3.537514283
  
           ------------------------
               RI-J - INFORMATION
           ------------------------
 
 
 **************************************************
 *      MEMORY ALLOCATION FOR PARALLEL RI-DFT     *
 **************************************************
 
 
MEMORY FOR (MU NU/ ALPHA), SEQUENTIAL RUN               9961 MByte
 
            DIFFERENCE IN MEMORY NEED:       DIAG./SLAVE  
 
      TOTAL DIFFERENCE :                    359 MByte
 
      difference in xcore:                   40 MByte
      difference in fatmat:                 106 MByte
      getcor calls skipped by slaves:       214 MByte
 
 
           Integral memory available for diagonal.      9961 MByte
 
           Integral memory available for slave             0 MByte
 
         MEMORY FOR (MU NU/ ALPHA) ON DIAGONALIZER      9961 MByte
 
         MEMORY FOR (MU NU/ ALPHA) ON ONE SLAVE            0 MByte
 
         TOTAL MEMORY FOR (MU NU/ ALPHA),ALL NODES      9961 MByte
 
 Contributions to RI integral batches: 
  neglected integral batches:      213885
  direct contribution:              66406
  memory contribution:       40109
 Memory core needed for (P|Q) and Cholesky     37 MByte
 Memory core minimum needed except of (P|Q)     7 MByte
 Total minimum memory core needed (sum)        43 MByte
     number of direct tasks:         160
  
 ****************************************
 Memory allocated for RI-J 10003 MByte
 ****************************************
                                            

          ------------------------
          nuclear repulsion energy  :   3377.00746343    
          ------------------------

 
          -----------------
          -S integrals
          -----------------

 1e-integrals will be neglected if expon. factor < 0.954846E-15
 
          -----------------
          -T+V integrals
          -----------------

 1e-integrals will be neglected if expon. factor < 0.954846E-15
 Difference densities >>NOT<< switched on in parallel ridft!

 automatic virtual orbital shift switched on 
      shift if e(lumo)-e(homo) < 0.10000000    


 DIIS switched on: error vector is FDS-SDF
 Max. Iterations for DIIS is     :   4
 DIIS matrix (see manual) 
    Scaling factor of diagonals  :  1.200
    threshold for scaling factor :  0.000

 scf convergence criterion : increment of total energy < .1000000D-08
                  and increment of one-electron energy < .1000000D-05


 <geterg> : there is no data group $energy 

  MOs are in ASCII format !


 reading orbital data $scfmo  from file mos . 

 orbital characterization : expanded
 
 mo provided and orthogonalized by Cholesky decomposition

 DSCF restart information will be dumped onto file mos


 Starting SCF iterations


 ITERATION  ENERGY          1e-ENERGY        2e-ENERGY     RMS[dD(SAO)]   TOL
   1  -1529.6431576258    -8721.5187214     3814.8681004    0.000D+00 0.952D-14
                            Exc = -216.478393426     Coul =  4031.34649379    
                              N = 259.99962742    
                            current damping = 0.700
 
          max. resid. norm for Fia-block=  2.954D-01 for orbital      6a         
          max. resid. fock norm         =  6.938D+00 for orbital   2547a         

 ITERATION  ENERGY          1e-ENERGY        2e-ENERGY     RMS[dD(SAO)]   TOL
   2  -1533.5780631118    -8767.0798956     3856.4943690    0.115D-01 0.952D-14
                            Exc = -220.426693919     Coul =  4076.92106293    
                              N = 259.99967969    
                            current damping = 0.650
 
          Norm of current diis error:  7.0455    
          max. resid. norm for Fia-block=  1.332D-01 for orbital     40a         
          max. resid. fock norm         =  1.493D-01 for orbital    317a         

 ITERATION  ENERGY          1e-ENERGY        2e-ENERGY     RMS[dD(SAO)]   TOL
   3  -1534.3733721443    -8777.2293427     3865.8485071    0.386D-02 0.952D-14
                            Exc = -221.474065853     Coul =  4087.32257296    
                              N = 259.99970965    
                            current damping = 0.550
 
          Norm of current diis error:  3.3600    
          max. resid. norm for Fia-block=  5.634D-02 for orbital     39a         
          max. resid. fock norm         =  6.369D-02 for orbital     45a         

 ITERATION  ENERGY          1e-ENERGY        2e-ENERGY     RMS[dD(SAO)]   TOL
   4  -1534.6045498402    -8785.3705459     3873.7585327    0.123D-02 0.952D-14
                            Exc = -222.134691901     Coul =  4095.89322456    
                              N = 259.99972319    
                            current damping = 0.450
 
          Norm of current diis error:  1.2673    
          max. resid. norm for Fia-block=  2.189D-02 for orbital     56a         
          max. resid. fock norm         =  2.849D-02 for orbital     59a         

 ITERATION  ENERGY          1e-ENERGY        2e-ENERGY     RMS[dD(SAO)]   TOL
   5  -1534.6421433548    -8786.6410196     3874.9914128    0.866D-03 0.952D-14
                            Exc = -222.357920360     Coul =  4097.34933312    
                              N = 259.99973227    
                            current damping = 0.350
 
          Norm of current diis error: 0.58761    
          max. resid. norm for Fia-block=  8.712D-03 for orbital     84a         
          max. resid. fock norm         =  1.301D-02 for orbital   2769a         
          mo-orthogonalization: Cholesky decomposition

 ITERATION  ENERGY          1e-ENERGY        2e-ENERGY     RMS[dD(SAO)]   TOL
   6  -1534.6492770811    -8788.6362567     3876.9795162    0.497D-03 0.952D-14
                            Exc = -222.485298666     Coul =  4099.46481482    
                              N = 259.99973006    
                            current damping = 0.250
 
          Norm of current diis error: 0.26664    
          max. resid. norm for Fia-block=  3.417D-03 for orbital     79a         
          max. resid. fock norm         =  6.331D-03 for orbital   2769a         
          irrep a   : virtual orbitals shifted by    0.00373

 ITERATION  ENERGY          1e-ENERGY        2e-ENERGY     RMS[dD(SAO)]   TOL
   7  -1534.6509548705    -8788.4029491     3876.7445308    0.164D-03 0.952D-14
                            Exc = -222.487679024     Coul =  4099.23220980    
                              N = 259.99973130    
                            current damping = 0.300
 
          Norm of current diis error: 0.61010E-01
          max. resid. norm for Fia-block=  9.374D-04 for orbital     84a         
          max. resid. fock norm         =  1.668D-03 for orbital   2774a         
          irrep a   : virtual orbitals shifted by    0.00221

 ITERATION  ENERGY          1e-ENERGY        2e-ENERGY     RMS[dD(SAO)]   TOL
   8  -1534.6510127700    -8788.3710091     3876.7125329    0.534D-04 0.952D-14
                            Exc = -222.492082432     Coul =  4099.20461535    
                              N = 259.99973121    
                            current damping = 0.150
 
          Norm of current diis error: 0.38828E-01
          max. resid. norm for Fia-block=  3.804D-04 for orbital     85a         
          max. resid. fock norm         =  7.552D-04 for orbital   2774a         
          irrep a   : virtual orbitals shifted by    0.01399

 ITERATION  ENERGY          1e-ENERGY        2e-ENERGY     RMS[dD(SAO)]   TOL
   9  -1534.6510436622    -8788.4532285     3876.7947214    0.594D-05 0.952D-14
                            Exc = -222.494475455     Coul =  4099.28919685    
                              N = 259.99973116    
                            current damping = 0.200
 
          Norm of current diis error: 0.46312E-02
          max. resid. norm for Fia-block=  6.009D-05 for orbital     79a         
          max. resid. fock norm         =  1.229D-04 for orbital   2763a         
          irrep a   : virtual orbitals shifted by    0.01031

 ITERATION  ENERGY          1e-ENERGY        2e-ENERGY     RMS[dD(SAO)]   TOL
  10  -1534.6510440602    -8788.4523335     3876.7938260    0.128D-05 0.952D-14
                            Exc = -222.494365528     Coul =  4099.28819157    
                              N = 259.99973114    
                            current damping = 0.250
 
          Norm of current diis error: 0.19290E-02
          max. resid. norm for Fia-block=  2.195D-05 for orbital    130a         
          max. resid. fock norm         =  3.116D-05 for orbital    115a         
          irrep a   : virtual orbitals shifted by    0.00658
          mo-orthogonalization: Cholesky decomposition

 ITERATION  ENERGY          1e-ENERGY        2e-ENERGY     RMS[dD(SAO)]   TOL
  11  -1534.6510441067    -8788.4458480     3876.7873405    0.129D-05 0.952D-14
                            Exc = -222.494200022     Coul =  4099.28154052    
                              N = 259.99973115    
                            current damping = 0.100
 
          Norm of current diis error: 0.99994E-03
          max. resid. norm for Fia-block=  1.259D-05 for orbital    116a         
          max. resid. fock norm         =  2.602D-05 for orbital     39a         
          irrep a   : virtual orbitals shifted by    0.01780

 ITERATION  ENERGY          1e-ENERGY        2e-ENERGY     RMS[dD(SAO)]   TOL
  12  -1534.6510441140    -8788.4482412     3876.7897337    0.190D-06 0.952D-14
                            Exc = -222.494290663     Coul =  4099.28402436    
                              N = 259.99973115    
                            current damping = 0.150
 
          Norm of current diis error: 0.80172E-03
          max. resid. norm for Fia-block=  8.097D-06 for orbital    120a         
          max. resid. fock norm         =  2.142D-05 for orbital     39a         
          irrep a   : virtual orbitals shifted by    0.01406

 ITERATION  ENERGY          1e-ENERGY        2e-ENERGY     RMS[dD(SAO)]   TOL
  13  -1534.6510441258    -8788.4487054     3876.7901978    0.105D-06 0.952D-14
                            Exc = -222.494302529     Coul =  4099.28450038    
                              N = 259.99973115    
                            current damping = 0.050
 
          Norm of current diis error: 0.34525E-03
          max. resid. norm for Fia-block=  3.837D-06 for orbital    130a         
          max. resid. fock norm         =  7.953D-06 for orbital   2770a         
          irrep a   : virtual orbitals shifted by    0.02153

 DENSITY CONVERGED !


 ITERATION  ENERGY          1e-ENERGY        2e-ENERGY     RMS[dD(SAO)]   TOL
  14  -1534.6510441276    -8788.4483369     3876.7898294    0.506D-07 0.952D-14
                            Exc = -222.494281771     Coul =  4099.28411116    
                              N = 259.99973115    
                            current damping = 0.100
 
          Norm of current diis error: 0.19077E-03
          max. resid. norm for Fia-block=  1.932D-06 for orbital     84a         
          max. resid. fock norm         =  3.934D-06 for orbital   2787a         
          irrep a   : virtual orbitals shifted by    0.01780

 DENSITY CONVERGED !


 ITERATION  ENERGY          1e-ENERGY        2e-ENERGY     RMS[dD(SAO)]   TOL
  15  -1534.6510441282    -8788.4482153     3876.7897078    0.340D-07 0.952D-14
                            Exc = -222.494282845     Coul =  4099.28399062    
                              N = 259.99973115    
                            current damping = 0.050
 
          Norm of current diis error: 0.67119E-04
          max. resid. norm for Fia-block=  7.516D-07 for orbital    115a         
          max. resid. fock norm         =  1.582D-06 for orbital   2774a         
          irrep a   : virtual orbitals shifted by    0.02153
          mo-orthogonalization: Cholesky decomposition

 DENSITY CONVERGED !


 ITERATION  ENERGY          1e-ENERGY        2e-ENERGY     RMS[dD(SAO)]   TOL
  16  -1534.6510441283    -8788.4482885     3876.7897809    0.960D-08 0.952D-14
                            Exc = -222.494283960     Coul =  4099.28406485    
                              N = 259.99973115    
                            current damping = 0.100
 
          Norm of current diis error: 0.29305E-04
          max. resid. norm for Fia-block=  2.932D-07 for orbital    128a         
          max. resid. fock norm         =  7.108D-07 for orbital   2762a         
          irrep a   : virtual orbitals shifted by    0.01780

 ENERGY & DENSITY CONVERGED !


 ITERATION  ENERGY          1e-ENERGY        2e-ENERGY     RMS[dD(SAO)]   TOL
  17  -1534.6509950577    -8788.4483091     3876.7898506    0.910D-08 0.952D-14
                            Exc = -222.494235948     Coul =  4099.28408658    
                              N = 259.99998342    
                            current damping = 0.050
 
          Norm of current diis error: 0.15220E-04
          max. resid. norm for Fia-block=  1.770D-07 for orbital    130a         
          max. resid. fock norm         =  4.798D-07 for orbital     39a         

 End of SCF iterations

   convergence criteria satisfied after   17 iterations


                  ------------------------------------------ 
                 |  total energy      =  -1534.65099505768  |
                  ------------------------------------------ 
                 :  kinetic energy    =   1527.44317051016  :
                 :  potential energy  =  -3062.09416556785  :
                 :  virial theorem    =      1.99530328096  :
                 :  wavefunction norm =      1.00000000000  :
                  .......................................... 


 <geterg> : there is no data group $energy 


 <skperg> : $end is missing 


 orbitals $scfmo  will be written to file mos

    irrep                126a        127a        128a        129a        130a   
 eigenvalues H         -0.24063    -0.22562    -0.22562    -0.18679    -0.18679
            eV          -6.5480     -6.1395     -6.1395     -5.0828     -5.0828
 occupation              2.0000      2.0000      2.0000      2.0000      2.0000 

    irrep                131a        132a        133a        134a        135a   
 eigenvalues H         -0.11206    -0.11206    -0.06971    -0.06971    -0.05798
            eV          -3.0493     -3.0493     -1.8970     -1.8970     -1.5777
 
 
 ! grave: sending quit signal to master process
 
 
 
 
 ==============================================================================
                           electrostatic moments
 ==============================================================================

 reference point for electrostatic moments:    0.00000   0.00000   0.00000

 
              nuc           elec       ->  total
 ------------------------------------------------------------------------------
                          charge      
 ------------------------------------------------------------------------------
         260.000000    -260.000000      -0.000000
 
 ------------------------------------------------------------------------------
                       dipole moment  
 ------------------------------------------------------------------------------
   x       0.000000      -0.000088      -0.000088
   y       0.000000       0.000000       0.000000
   z       0.000000       0.000000       0.000000
 
   | dipole moment | =     0.0001 a.u. =     0.0002 debye 
 
 ------------------------------------------------------------------------------
                     quadrupole moment
 ------------------------------------------------------------------------------
  xx   13868.680291  -14049.761067    -181.080777
  yy   13868.680291  -14049.763042    -181.082751
  zz     962.105324   -1110.829873    -148.724549
  xy       0.000000      -0.000000      -0.000000
  xz       0.000000      -0.000000      -0.000000
  yz       0.000000      -0.000000      -0.000000
 
     1/3  trace=    -170.296025
     anisotropy=      32.357215
 
 ==============================================================================
 

    ridft profiling
  --------------------------------------------------------------------
             module   cpu total (s)       %  wall total (s)       %

               RIDFT          1956.9  100.00          2352.2  100.00
         Ridft_b_scf           101.3    5.18           101.4    4.31
        b_scf_prelim             0.0    0.00             0.0    0.00
        b_scf_molinp             0.0    0.00             0.0    0.00
         b_scf_init0             0.0    0.00             0.0    0.00
        b_scf_auxbas             0.0    0.00             0.0    0.00
      b_scf_symmetry             0.0    0.00             0.0    0.00
         b_scf_cosmo             0.0    0.00             0.0    0.00
        b_scf_params            14.8    0.76            14.9    0.63
          b_scf_ri-j            49.9    2.55            49.9    2.12
    b_scf_ri-j_auxpq            49.8    2.55            49.9    2.12
     ri-j_auxpq_chol             1.1    0.06             1.1    0.05
         b_scf_1elec             3.8    0.19             3.8    0.16
       b_scf_moinput            32.8    1.67            32.8    1.40
     moinput_orthmos            32.2    1.65            32.2    1.37
    b_scf_dft-dstmax             0.0    0.00             0.0    0.00
           Ridft_scf          1854.4   94.76          2249.5   95.64
          Scf_b_loop             0.0    0.00             0.0    0.00
                noga             0.0    0.00             0.0    0.00
            Scf_loop          1848.4   94.45          2243.5   95.38
     scf_loop_mkdmat            13.1    0.67            84.2    3.58
       scf_loop_ri-j           457.3   23.37           457.7   19.46
      parlp1.bc.dens             2.3    0.12             2.3    0.10
        parlp1.gs.gp             5.8    0.29             5.8    0.24
        parlp2.bc.gq             0.0    0.00             0.0    0.00
        scf_loop_dft           896.4   45.81           898.1   38.18
      pardft.bc.dens             0.0    0.00             0.0    0.00
        dft_grid_con             2.5    0.13             2.5    0.11
           dft_xcrhf           855.3   43.71           857.0   36.43
          dft_getval            37.5    1.91            37.6    1.60
          funct2 dst             0.6    0.03             0.6    0.03
      funct2 f2loop1             7.3    0.37             7.4    0.31
      funct2 f2loop2            13.4    0.69            13.5    0.57
          funct2 s+c            15.3    0.78            15.3    0.65
        funct2 cmf_2            13.8    0.70            13.9    0.59
          dft_mkdens           326.4   16.68           327.1   13.91
         dft_gga-fun             0.6    0.03             0.6    0.02
          dft_mkfock           490.0   25.04           491.1   20.88
     pardft.red.fock            98.9    5.06            99.1    4.21
     scf_loop_energy             0.1    0.01             3.6    0.15
     scf_loop_mkfock             0.2    0.01             0.2    0.01
       scf_loop_diis           167.5    8.56           480.7   20.43
       scf_loop_diag           182.8    9.34           183.2    7.79
         diag_tritrn            70.6    3.61            70.8    3.01
          diag_rdiag           107.0    5.47           107.2    4.56
     scf_loop_modump            88.7    4.53            93.6    3.98
      scf_loop_ortho            39.0    2.00            39.1    1.66
          Scf_a_loop             6.1    0.31             6.1    0.26
         Ridft_a_scf             1.2    0.06             1.2    0.05
         a_scf_fanal             1.1    0.06             1.2    0.05
 


    ------------------------------------------------------------------------
         total  cpu-time : 32 minutes and 45 seconds
         total wall-time : 39 minutes and 21 seconds
    ------------------------------------------------------------------------


   ****  ridft : all done  ****


    2017-11-01 20:55:52.819 

