 operating system is UNIX !
 hostname is         c-14-37.local

 ridft (c-14-37.local) : TURBOMOLE V7.0( ) 18 Nov 2015 at 09:50:31
 Copyright (C) 2015 TURBOMOLE GmbH, Karlsruhe


    2016-06-20 11:13:11.413 



                                  r i d f t

                        DFT program with RI approximation 
                                for coulomb part 




                                                 
                                 References:     
                                                 
          TURBOMOLE:                             
              R. Ahlrichs, M. Baer, M. Haeser, H. Horn, and
              C. Koelmel
              Electronic structure calculations on workstation
              computers: the program system TURBOMOLE
              Chem. Phys. Lett. 162: 165 (1989)
          Density Functional:                              
              O. Treutler and R. Ahlrichs                      
              Efficient Molecular Numerical Integration Schemes
              J. Chem. Phys. 102: 346 (1995)                   
          Parallel Version:                                
              Performance of parallel TURBOMOLE for Density    
              Functional Calculations                          
              M. v. Arnim and R. Ahlrichs                      
              J. Comp. Chem. 19: 1746 (1998)                   
          RI-J Method:                                     
              Auxiliary Basis Sets to approximate Coulomb      
              Potentials                                       
              Chem. Phys. Lett. 240: 283 (1995)                
              K. Eichkorn, O. Treutler, H. Oehm, M. Haeser     
              and R. Ahlrichs                                  
              Chem. Phys. Lett. 242: 652 (1995)                
                                                           
              Auxiliary Basis Sets for Main Row Atoms and their
              Use to approximate Coulomb Potentials            
              K. Eichkorn, F. Weigend, O. Treutler and         
              R. Ahlrichs                                      
              Theo. Chem. Acc. 97: 119 (1997)                   
                                                           
              Accurate Coulomb-fitting basis sets for H to Rn 
              F. Weigend                                        
              Phys. Chem. Chem. Phys. 8: 1057 (2006)            
                                                           
          Multipole accelerated RI-J (MARI-J):             
              Fast evaluation of the Coulomb potential for     
              electron densities using multipole accelerated   
              resolution of identity approximation             
              M. Sierka, A. Hogekamp and R. Ahlrichs           
              J. Chem. Phys. 118: 9136 (2003)                  
          RI-JK Method:                                     
              A fully direct RI-HF algorithm: Implementation,
              optimised auxiliary basis sets, demonstration of
              accuracy and efficiency                         
              F. Weigend                                      
              Phys. Chem. Chem. Phys. 4: 4285 (2002)           
          Two-component HF and DFT with spin-orbit coupling:  
              Self-consistent treatment of spin-orbit         
              interactions with efficient Hartree-Fock and    
              density functional methods                      
              M. K. Armbruster, F. Weigend, C. van Wüllen and 
              W. Klopper                                      
              Phys. Chem. Chem. Phys. 10: 1748 (2008)         
          Relativistic all-electron 2c calculations           
              An efficient implementation of two-component    
              relativistic exact-decoupling methods for large 
              molecules                                       
              D. Peng, N. Middendorf, F. Weigend, M. Reiher   
              J. Chem. Phys. 138, 184105 (2013)               
                                         


 


              +--------------------------------------------------+
              |      general information about current run       |
              +--------------------------------------------------+

 

 DENSITY CONVERGENCE CHECK SWITCHED ON !
 SCF CONVERGENCE IF RMS(delta[D]) <     0.1000000000E-06

 PBE functional
 exchange:    LDA + PBE
 correlation: LDA (PW) + PBE
 A DFT calculation using the RI-J approximation will be carried out.
 Allocatable memory for RI due to $ricore (MB):       15000


              +--------------------------------------------------+
              | Atomic coordinate, charge and isotop information |
              +--------------------------------------------------+

                    atomic coordinates            atom    charge  isotop
         -1.45507023   -0.18116804   -9.52270793    c      0.000     0
          1.50694321   -0.19354575   -9.48385516    c      0.000     0
          2.12405217    2.03944913   -8.00569248    n      0.000     0
          0.01645951    3.36017873   -7.21206420    c      0.000     0
         -2.08591750    2.09778498   -8.13413717    n      0.000     0
         -2.11122093   -2.53465187   -8.30614004    n      0.000     0
         -0.00725655   -4.02169626   -7.73304279    c      0.000     0
          2.12063177   -2.59098460   -8.33444814    n      0.000     0
         -0.03645282   -6.16685667   -6.93790273    o      0.000     0
         -0.00895730    5.31224693   -5.97635338    o      0.000     0
          4.64216894   -3.65890664   -8.16070672    c      0.000     0
          4.65250574    3.05453442   -7.73168219    c      0.000     0
         -9.05653139   -0.26688602   -3.51065762    c      0.000     0
         -7.56616108   -0.22542543   -6.07306957    c      0.000     0
         -6.12363864    2.11449016   -5.91062871    n      0.000     0
         -9.37086843    3.09775246    0.00000000    c      0.000     0
         -8.30425031    2.09292838   -2.31070042    n      0.000     0
         -8.17098683   -2.54512095   -2.30450212    n      0.000     0
         -6.52184173   -3.94132621   -3.81932549    c      0.000     0
         -6.11014599   -2.52684730   -6.00348985    n      0.000     0
         -5.67367595   -6.01403452   -3.35445286    o      0.000     0
         -5.63975536    5.48396634   -3.13932644    o      0.000     0
         -4.64532478   -3.53892792   -8.09163723    c      0.000     0
         -4.58761254    3.15924415   -7.92668303    c      0.000     0
          9.10583434   -0.57311614    3.51303868    c      0.000     0
          7.58458591   -0.42533956    6.04999601    c      0.000     0
          6.13149990    1.88976393    5.75576565    n      0.000     0
          6.82701360    3.27045453    3.63360320    c      0.000     0
          8.57312055    1.83190051    2.31408303    n      0.000     0
          8.06121263   -2.79176801    2.29739675    n      0.000     0
          6.45233760   -4.16066672    3.87110398    c      0.000     0
          6.15124754   -2.74246505    6.07186014    n      0.000     0
          5.54266123   -6.21721787    3.44175821    o      0.000     0
          6.07316405    5.37345516    3.07906307    o      0.000     0
          4.64216894   -3.65890664    8.16070672    c      0.000     0
          4.65250574    3.05453442    7.73168219    c      0.000     0
          7.58458591   -0.42533956   -6.04999601    c      0.000     0
          9.10583434   -0.57311614   -3.51303868    c      0.000     0
          8.57312055    1.83190051   -2.31408303    n      0.000     0
          6.82701360    3.27045453   -3.63360320    c      0.000     0
          6.13149990    1.88976393   -5.75576565    n      0.000     0
          6.15124754   -2.74246505   -6.07186014    n      0.000     0
          6.45233760   -4.16066672   -3.87110398    c      0.000     0
          8.06121263   -2.79176801   -2.29739675    n      0.000     0
          5.54266123   -6.21721787   -3.44175821    o      0.000     0
          6.07316405    5.37345516   -3.07906307    o      0.000     0
          9.04266080   -3.90976778    0.00000000    c      0.000     0
          9.71687729    2.74495949    0.00000000    c      0.000     0
         -7.56616108   -0.22542543    6.07306957    c      0.000     0
         -9.05653139   -0.26688602    3.51065762    c      0.000     0
         -8.30425031    2.09292838    2.31070042    n      0.000     0
         -6.57074784    3.43610792    3.71760153    c      0.000     0
         -6.12363864    2.11449016    5.91062871    n      0.000     0
         -6.11014599   -2.52684730    6.00348985    n      0.000     0
         -6.52184173   -3.94132621    3.81932549    c      0.000     0
         -8.17098683   -2.54512095    2.30450212    n      0.000     0
         -5.67367595   -6.01403452    3.35445286    o      0.000     0
         -5.63975536    5.48396634    3.13932644    o      0.000     0
         -9.20056631   -3.60705255    0.00000000    c      0.000     0
         -6.57074784    3.43610792   -3.71760153    c      0.000     0
          1.50694321   -0.19354575    9.48385516    c      0.000     0
         -1.45507023   -0.18116804    9.52270793    c      0.000     0
         -2.08591750    2.09778498    8.13413717    n      0.000     0
          0.01645951    3.36017873    7.21206420    c      0.000     0
          2.12405217    2.03944913    8.00569248    n      0.000     0
          2.12063177   -2.59098460    8.33444814    n      0.000     0
         -0.00725655   -4.02169626    7.73304279    c      0.000     0
         -2.11122093   -2.53465187    8.30614004    n      0.000     0
         -0.03645282   -6.16685667    6.93790273    o      0.000     0
         -0.00895730    5.31224693    5.97635338    o      0.000     0
         -4.64532478   -3.53892792    8.09163723    c      0.000     0
         -4.58761254    3.15924415    7.92668303    c      0.000     0
         -2.26134078   -0.09000766  -11.43386356    h      0.000     0
          2.36251671   -0.04667624  -11.36963176    h      0.000     0
          5.65623377   -3.29653275   -9.93270291    h      0.000     0
          4.39138338   -5.68873706   -7.86687320    h      0.000     0
          5.63960418    2.85915564   -9.54699091    h      0.000     0
          4.45818520    5.04774196   -7.22533007    h      0.000     0
        -11.11797694   -0.30458606   -3.74736472    h      0.000     0
         -8.79102487   -0.17697285   -7.74736692    h      0.000     0
         -4.44148002   -5.56620722   -7.74468351    h      0.000     0
         -5.67764437   -3.20047797   -9.85896580    h      0.000     0
          5.63960418    2.85915564    9.54699091    h      0.000     0
         -5.58166518    2.89152665   -9.72543775    h      0.000     0
         11.15295577   -0.78688196    3.78716235    h      0.000     0
          8.79329254   -0.30078771    7.73402545    h      0.000     0
          5.65623377   -3.29653275    9.93270291    h      0.000     0
          4.39138338   -5.68873706    7.86687320    h      0.000     0
         -4.36645789    5.17032849   -7.51661246    h      0.000     0
          4.45818520    5.04774196    7.22533007    h      0.000     0
          8.79329254   -0.30078771   -7.73402545    h      0.000     0
         11.15295577   -0.78688196   -3.78716235    h      0.000     0
          8.44329636   -5.88825435    0.00000000    h      0.000     0
         11.11502896   -3.77504920    0.00000000    h      0.000     0
          9.49052589    4.79718317    0.00000000    h      0.000     0
         11.72369085    2.23367519    0.00000000    h      0.000     0
         -8.79102487   -0.17697285    7.74736692    h      0.000     0
        -11.11797694   -0.30458606    3.74736472    h      0.000     0
        -11.26238981   -3.37189503    0.00000000    h      0.000     0
         -8.69678423   -5.61186301    0.00000000    h      0.000     0
        -11.41194273    2.74206821    0.00000000    h      0.000     0
         -8.99305549    5.12697818    0.00000000    h      0.000     0
          2.36251671   -0.04667624   11.36963176    h      0.000     0
         -2.26134078   -0.09000766   11.43386356    h      0.000     0
         -4.44148002   -5.56620722    7.74468351    h      0.000     0
         -5.67764437   -3.20047797    9.85896580    h      0.000     0
         -4.36645789    5.17032849    7.51661246    h      0.000     0
         -5.58166518    2.89152665    9.72543775    h      0.000     0
          0.49539171    3.67413783    0.00000000    c      6.000     0
         -0.92366034    1.16805862    0.00000000    c      6.000     0
          0.92859252   -1.05941826    0.00000000    c      6.000     0
         -1.30209689    5.89433927    0.00000000    n      7.000     0
         -2.48357257    5.87192712    1.56883174    h      1.000     0
         -2.48357257    5.87192712   -1.56883174    h      1.000     0
         -0.30101448    7.54809530    0.00000000    h      1.000     0
         -2.14965796    1.05488292    1.66764552    h      1.000     0
         -2.14965796    1.05488292   -1.66764552    h      1.000     0
          1.67225645    3.89810817   -1.67535560    h      1.000     0
          1.67225645    3.89810817    1.67535560    h      1.000     0
         -0.07237651   -2.86559961    0.00000000    h      1.000     0
          2.14381871   -1.00455951   -1.67325800    h      1.000     0
          2.14381871   -1.00455951    1.67325800    h      1.000     0
 
       center of nuclear mass  :    0.01258556   -0.16108642    0.00000000
       center of nuclear charge:   -0.23201248    2.52229306    0.00000000

              +--------------------------------------------------+
              |               basis set information              |
              +--------------------------------------------------+

              we will work with the 1s 3p 5d 7f 9g ... basis set
              ...i.e. with spherical basis functions...

   type   atoms  prim   cont   basis
   ---------------------------------------------------------------------------
    c       39     77     57   def2-QZVP   [7s4p3d2f1g|15s8p3d2f1g]
    n       25     77     57   def2-QZVP   [7s4p3d2f1g|15s8p3d2f1g]
    o       12     77     57   def2-QZVP   [7s4p3d2f1g|15s8p3d2f1g]
    h       46     33     30   def2-QZVP   [4s3p2d1f|7s3p2d1f]
   ---------------------------------------------------------------------------
   total:  122   7370   5712
   ---------------------------------------------------------------------------

   total number of primitive shells          :  100
   total number of contracted shells         : 1752
   total number of cartesian basis functions : 7082
   total number of SCF-basis functions       : 5712


 integral neglect threshold       :  0.47E-14
 integral storage threshold THIZE :  0.10E-04
 integral storage threshold THIME :         5

 RI-J AUXILIARY BASIS SET information:

              we will work with the 1s 3p 5d 7f 9g ... basis set
              ...i.e. with spherical basis functions...

   type   atoms  prim   cont   basis
   ---------------------------------------------------------------------------
    c       39     70     49   def2-QZVP   [6s4p3d1f1g|12s5p4d2f1g]
    n       25     70     49   def2-QZVP   [6s4p3d1f1g|12s5p4d2f1g]
    o       12     70     49   def2-QZVP   [6s4p3d1f1g|12s5p4d2f1g]
    h       46     16     11   def2-QZVP   [3s1p1d|5s2p1d]
   ---------------------------------------------------------------------------
   total:  122   6056   4230
   ---------------------------------------------------------------------------

   total number of primitive shells          :   80
   total number of contracted shells         : 1370
   total number of cartesian basis functions : 5188
   total number of SCF-basis functions       : 4230


 symmetry group of the molecule :   c1 

 the group has the following generators :
   c1(z)

    1 symmetry operations found

 there are 1 real representations :   a   

 maximum number of shells which are related by symmetry :  1


    mo occupation :
   irrep   mo's   occupied
    a     5712       17
 
 number of basis functions   :         5712
 number of occupied orbitals :           17
 
  
           ------------------
           density functional
           ------------------
 Dummy atoms with grid-point found.
 DFT quadrature threshold dgrenze tightened by factor 1/10.

 PBE functional
 exchange:    LDA + PBE
 correlation: LDA (PW) + PBE
 Dummy atoms with grid-point found.
 DFT quadrature threshold dgrenze tightened by factor 1/10.

 Dummy atoms with grid-point found.
 DFT quadrature threshold dgrenze tightened by factor 1/10.

 iterations will be done with small grid
  
 spherical integration : Lebedev's spherical grid
 spherical gridsize    :           5
    i.e. gridpoints    :         590
 value for diffuse not defined
 radial integration    : Chebyshev 2nd kind (scaling 3)
 radial gridsize       :           8
 integration cells     :         122
 partition function    : becke
 partition sharpness   :           3
  
 found dummy atom(s) with basis: included in dft

 biggest AO integral is expected to be     6.990327543
  
           ------------------------
               RI-J - INFORMATION
           ------------------------
 Contributions to RI integral batches: 
  neglected integral batches:      991190
  direct contribution:             443214
  memory contribution:      101224
 Memory core needed for (P|Q) and Cholesky    137 MByte
 Memory core minimum needed except of (P|Q)     4 MByte
 Total minimum memory core needed (sum)       141 MByte
  
 ****************************************
 Memory allocated for RI-J 14801 MByte
 ****************************************
                                            

          ------------------------
          nuclear repulsion energy  :   138.978749168    
          ------------------------

 
          -----------------
          -S,T+V- integrals
          -----------------

 1e-integrals will be neglected if expon. factor < 0.471895E-15
 
   Difference densities algorithm switched on.
   The maximal number of linear combinations of
   difference densities is          20 .

 automatic virtual orbital shift switched on 
      shift if e(lumo)-e(homo) < 0.10000000    


 DIIS switched on: error vector is FDS-SDF
 Max. Iterations for DIIS is     :   4
 DIIS matrix (see manual) 
    Scaling factor of diagonals  :  1.200
    threshold for scaling factor :  0.000

 scf convergence criterion : increment of total energy < .1000000D-08
                  and increment of one-electron energy < .1000000D-05

  MOs are in ASCII format !


 reading orbital data $scfmo  from file mos . 

 orbital characterization : expanded
 
 mo provided and orthogonalized by Cholesky decomposition

 DSCF restart information will be dumped onto file mos


 Starting SCF iterations

          Overall gridpoints after grid construction =        870207

 ITERATION  ENERGY          1e-ENERGY        2e-ENERGY     RMS[dD(SAO)]   TOL
   1  -174.00888692726    -494.27532669     181.28769060    0.000D+00 0.471D-14
                            Exc = -25.4734220190     Coul =  206.761112619    
                              N = 34.000069180    
                            current damping = 0.700
 
          max. resid. norm for Fia-block=  5.713D-01 for orbital      5a         
          max. resid. fock norm         =  9.215D+01 for orbital   4797a         

 ITERATION  ENERGY          1e-ENERGY        2e-ENERGY     RMS[dD(SAO)]   TOL
   2  -174.54302741604    -499.49425595     185.97247937    0.380D-03 0.382D-14
                            Exc = -26.0575879751     Coul =  212.030067344    
                              N = 34.000004116    
                            current damping = 0.650
 
          Norm of current diis error:  2.6820    
          max. resid. norm for Fia-block=  1.283D-01 for orbital      1a         
          max. resid. fock norm         =  1.371D-01 for orbital      1a         

 ITERATION  ENERGY          1e-ENERGY        2e-ENERGY     RMS[dD(SAO)]   TOL
   3  -174.64943792062    -500.39674891     186.76856182    0.141D-03 0.256D-14
                            Exc = -26.2157367591     Coul =  212.984298576    
                              N = 33.999972230    
                            current damping = 0.550
 
          Norm of current diis error:  1.3053    
          max. resid. norm for Fia-block=  5.265D-02 for orbital      1a         
          max. resid. fock norm         =  5.475D-02 for orbital      1a         

 ITERATION  ENERGY          1e-ENERGY        2e-ENERGY     RMS[dD(SAO)]   TOL
   4  -174.68046732696    -501.56777959     187.90856309    0.752D-04 0.207D-14
                            Exc = -26.3646899780     Coul =  214.273253069    
                              N = 33.999950617    
                            current damping = 0.450
 
          Norm of current diis error: 0.46667    
          max. resid. norm for Fia-block=  1.885D-02 for orbital      1a         
          max. resid. fock norm         =  2.422D-02 for orbital   4596a         

 ITERATION  ENERGY          1e-ENERGY        2e-ENERGY     RMS[dD(SAO)]   TOL
   5  -174.68500464798    -501.65636125     187.99260744    0.331D-04 0.185D-14
                            Exc = -26.3926035451     Coul =  214.385210982    
                              N = 33.999945000    
                            current damping = 0.300
 
          Norm of current diis error: 0.19560    
          max. resid. norm for Fia-block=  7.429D-03 for orbital      5a         
          max. resid. fock norm         =  8.131D-03 for orbital     18a         
          mo-orthogonalization: Cholesky decomposition

 ITERATION  ENERGY          1e-ENERGY        2e-ENERGY     RMS[dD(SAO)]   TOL
   6  -174.68568727953    -501.92506818     188.26063173    0.133D-04 0.175D-14
                            Exc = -26.4253378233     Coul =  214.685969552    
                              N = 33.999939430    
                            current damping = 0.150
 
          Norm of current diis error: 0.83127E-01
          max. resid. norm for Fia-block=  2.925D-03 for orbital      9a         
          max. resid. fock norm         =  4.653D-03 for orbital   4745a         

 ITERATION  ENERGY          1e-ENERGY        2e-ENERGY     RMS[dD(SAO)]   TOL
   7  -174.68579680327    -501.89313991     188.22859394    0.387D-05 0.171D-14
                            Exc = -26.4229764732     Coul =  214.651570416    
                              N = 33.999940287    
                            current damping = 0.200
 
          Norm of current diis error: 0.29103E-01
          max. resid. norm for Fia-block=  8.339D-04 for orbital     11a         
          max. resid. fock norm         =  1.081D-03 for orbital     11a         

 ITERATION  ENERGY          1e-ENERGY        2e-ENERGY     RMS[dD(SAO)]   TOL
   8  -174.68580867948    -501.87934990     188.21479205    0.978D-06 0.169D-14
                            Exc = -26.4227266364     Coul =  214.637518691    
                              N = 33.999939738    
                            current damping = 0.050
 
          Norm of current diis error: 0.10479E-01
          max. resid. norm for Fia-block=  2.653D-04 for orbital     15a         
          max. resid. fock norm         =  3.409D-04 for orbital     15a         

 ITERATION  ENERGY          1e-ENERGY        2e-ENERGY     RMS[dD(SAO)]   TOL
   9  -174.68581027110    -501.90164778     188.23708834    0.399D-06 0.168D-14
                            Exc = -26.4244391197     Coul =  214.661527462    
                              N = 33.999939701    
                            current damping = 0.100
 
          Norm of current diis error: 0.40400E-02
          max. resid. norm for Fia-block=  9.604D-05 for orbital     15a         
          max. resid. fock norm         =  1.222D-04 for orbital   5550a         

 ITERATION  ENERGY          1e-ENERGY        2e-ENERGY     RMS[dD(SAO)]   TOL
  10  -174.68581053729    -501.89530265     188.23074295    0.114D-06 0.167D-14
                            Exc = -26.4239559933     Coul =  214.654698940    
                              N = 33.999939744    
                            current damping = 0.150
 
          Norm of current diis error: 0.74644E-03
          max. resid. norm for Fia-block=  3.398D-05 for orbital     15a         
          max. resid. fock norm         =  6.296D-05 for orbital   5550a         
          mo-orthogonalization: Cholesky decomposition

 DENSITY CONVERGED !


 ITERATION  ENERGY          1e-ENERGY        2e-ENERGY     RMS[dD(SAO)]   TOL
  11  -174.68581054181    -501.89509926     188.23053955    0.316D-07 0.166D-14
                            Exc = -26.4239340373     Coul =  214.654473585    
                              N = 33.999939716    
                            current damping = 0.050
 
          Norm of current diis error: 0.55158E-03
          max. resid. norm for Fia-block=  1.316D-05 for orbital     13a         
          max. resid. fock norm         =  2.442D-05 for orbital   5550a         

 DENSITY CONVERGED !


 ITERATION  ENERGY          1e-ENERGY        2e-ENERGY     RMS[dD(SAO)]   TOL
  12  -174.68581054711    -501.89548652     188.23092681    0.145D-07 0.165D-14
                            Exc = -26.4239699328     Coul =  214.654896740    
                              N = 33.999939726    
                            current damping = 0.100
 
          Norm of current diis error: 0.87420E-04
          max. resid. norm for Fia-block=  4.131D-06 for orbital      9a         
          max. resid. fock norm         =  5.248D-06 for orbital     11a         

 DENSITY CONVERGED !


 ITERATION  ENERGY          1e-ENERGY        2e-ENERGY     RMS[dD(SAO)]   TOL
  13  -174.68581054712    -501.89538595     188.23082623    0.342D-08 0.165D-14
                            Exc = -26.4239586890     Coul =  214.654784921    
                              N = 33.999939728    
                            current damping = 0.150
 
          Norm of current diis error: 0.84838E-04
          max. resid. norm for Fia-block=  2.047D-06 for orbital     11a         
          max. resid. fock norm         =  2.746D-06 for orbital     11a         

 ENERGY & DENSITY CONVERGED !

          Overall gridpoints after grid construction =       1871089

 ITERATION  ENERGY          1e-ENERGY        2e-ENERGY     RMS[dD(SAO)]   TOL
  14  -174.68582652130    -501.89539281     188.23081713    0.179D-08 0.164D-14
                            Exc = -26.4239767087     Coul =  214.654793834    
                              N = 33.999943628    
                            current damping = 0.200
 
          Norm of current diis error: 0.11403E-04
          max. resid. norm for Fia-block=  3.572D-07 for orbital     14a         
          max. resid. fock norm         =  4.353D-07 for orbital   5098a         

 End of SCF iterations

   convergence criteria satisfied after   14 iterations


                  ------------------------------------------ 
                 |  total energy      =   -174.68582652130  |
                  ------------------------------------------ 
                 :  kinetic energy    =    173.81614443843  :
                 :  potential energy  =   -348.50197095973  :
                 :  virial theorem    =      1.99502145022  :
                 :  wavefunction norm =      1.00000000000  :
                  .......................................... 


 orbitals $scfmo  will be written to file mos

    irrep                 13a         14a         15a         16a         17a   
 eigenvalues H         -0.54516    -0.52233    -0.49178    -0.46913    -0.45989
            eV         -14.8347    -14.2135    -13.3823    -12.7657    -12.5144
 occupation              2.0000      2.0000      2.0000      2.0000      2.0000 

    irrep                 18a         19a         20a         21a         22a   
 eigenvalues H         -0.22087    -0.16427    -0.16133    -0.15452    -0.12574
            eV          -6.0102     -4.4700     -4.3900     -4.2049     -3.4217
 
 
 
 
 ==============================================================================
                           electrostatic moments
 ==============================================================================

 reference point for electrostatic moments:    0.00000   0.00000   0.00000

 
              nuc           elec       ->  total
 ------------------------------------------------------------------------------
                          charge      
 ------------------------------------------------------------------------------
          35.000000     -34.000000       1.000000
 
 ------------------------------------------------------------------------------
                       dipole moment  
 ------------------------------------------------------------------------------
   x      -8.120437       7.171736      -0.948701
   y      88.280257     -83.417683       4.862575
   z       0.000000       0.000000       0.000000
 
   | dipole moment | =     4.9543 a.u. =    12.5925 debye 
 
 ------------------------------------------------------------------------------
                     quadrupole moment
 ------------------------------------------------------------------------------
  xx      60.092240     -75.664386     -15.572146
  yy     507.897539    -495.300790      12.596749
  zz      21.697767     -38.744652     -17.046885
  xy     -82.216712      75.996902      -6.219811
  xz       0.000000       0.000000       0.000000
  yz       0.000000       0.000000       0.000000
 
     1/3  trace=      -6.674094
     anisotropy=      30.874931
 
 ==============================================================================
 
 


    ------------------------------------------------------------------------
         total  cpu-time :  8 hours 42 minutes and  6 seconds
         total wall-time :  8 hours 43 minutes and 16 seconds
    ------------------------------------------------------------------------


   ****  ridft : all done  ****


    2016-06-20 19:56:27.771 

