STARTING dscf ON 2 PROCESSORS!
RUNNING PROGRAM /beegfs/modfac/apps/TURBOMOLE/7.2.1-official/bin/em64t-unknown-linux-gnu_mpi/dscf_mpi.
PLEASE WAIT UNTIL dscf HAS FINISHED.
Look for the output in slave1.output.
MACHINEFILE is ./hostlist
 this is node-proc. number 1 running on node c-5-27.local
 the total number of node-proc. spawned is   3
  parallel platform: MPP or cluster with fast interconnect

 dscf (c-5-27.local) : TURBOMOLE V7.2 ( 21471 ) 7 Nov 2017 at 16:15:16
 Copyright (C) 2017 TURBOMOLE GmbH, Karlsruhe


    2018-02-14 09:35:52.170 


 SCF run will be profiled !



                             d s c f - program

                   idea & directorship : reinhart ahlrichs
                   program development : marco haeser
                                         michael baer
                           dft version : oliver treutler
           parallelized version : malte v. arnim, gina corongiu, GMD 


                          quantum chemistry group
                          universitaet  karlsruhe
                                  germany




                          References             
                                                 
          TURBOMOLE:                             
              R. Ahlrichs, M. Baer, M. Haeser, H. Horn, and
              C. Koelmel
              Electronic structure calculations on workstation
              computers: the program system TURBOMOLE
              Chem. Phys. Lett. 162: 165 (1989)
          Density Functional:                              
              O. Treutler and R. Ahlrichs                      
              Efficient Molecular Numerical Integration Schemes
              J. Chem. Phys. 102: 346 (1995)                   
          Parallel Version:                                
              Performance of parallel TURBOMOLE for Density    
              Functional Calculations                          
              M. v. Arnim and R. Ahlrichs                      
              J. Comp. Chem. 19: 1746 (1998)                   
                                         




              +--------------------------------------------------+
              | Atomic coordinate, charge and isotop information |
              +--------------------------------------------------+

                    atomic coordinates            atom    charge  isotop
         -3.54794406    3.26913394    0.00000000    c      6.000     0
          1.04499575   -4.70983313    0.00000000    c      6.000     0
         -2.72575688    7.24691791    0.00000000    c      6.000     0
          4.89750688   -5.99725688    0.00000000    c      6.000     0
         -5.38673981    7.02714176    0.00000000    c      6.000     0
          3.37066441   -8.18767082    0.00000000    c      6.000     0
         -5.86203274    4.42500034    0.00000000    n      7.000     0
          0.88191148   -7.29142139    0.00000000    n      7.000     0
         -3.31203195    0.63510525    0.00000000    n      7.000     0
         -1.11416405   -3.18256726    0.00000000    n      7.000     0
         -1.04918789   -0.60361236    0.00000000    c      6.000     0
          6.99524387  -10.79578234    0.00000000    c      6.000     0
         -5.82106142   11.47137485    0.00000000    c      6.000     0
         -3.17314352   11.72247429    0.00000000    c      6.000     0
          8.54263898   -8.63241083    0.00000000    c      6.000     0
          7.52817008   -6.20786701    0.00000000    c      6.000     0
         -1.58629995    9.62728862    0.00000000    c      6.000     0
         -6.98920670    9.11264205    0.00000000    c      6.000     0
          4.36888304  -10.62089999    0.00000000    c      6.000     0
          1.09609376    0.63187794    0.00000000    n      7.000     0
         -1.63006515    4.84204563    0.00000000    n      7.000     0
          3.36849507   -3.84176942    0.00000000    n      7.000     0
          0.96183124    2.58807143    0.00000000    h      1.000     0
          2.72079142   -0.46585828    0.00000000    h      1.000     0
         -2.81618184   -4.05068353    0.00000000    h      1.000     0
         -4.91757120   -0.40070721    0.00000000    h      1.000     0
         -7.58538356    3.59967887    0.00000000    h      1.000     0
         -0.69731842   -8.36710442    0.00000000    h      1.000     0
         -2.35486292   13.60269173    0.00000000    h      1.000     0
         10.57949694   -8.86947682    0.00000000    h      1.000     0
          7.86984698  -12.65042618    0.00000000    h      1.000     0
         -6.98538743   13.15929293    0.00000000    h      1.000     0
          8.72057845   -4.54063690    0.00000000    h      1.000     0
          0.45433697    9.82064699    0.00000000    h      1.000     0
          3.18446404  -12.29483008    0.00000000    h      1.000     0
         -9.03160987    8.92943031    0.00000000    h      1.000     0
 
       center of nuclear mass  :   -0.04874018   -0.02807757    0.00000000
       center of nuclear charge:   -0.04631992   -0.02668087    0.00000000

              +--------------------------------------------------+
              |               basis set information              |
              +--------------------------------------------------+

              we will work with the 1s 3p 5d 7f 9g ... basis set
              ...i.e. with spherical basis functions...

   type   atoms  prim   cont   basis
   ---------------------------------------------------------------------------
    c       15     50     30   cc-pVTZ   [4s3p2d1f|18s5p2d1f]
    n        7     50     30   cc-pVTZ   [4s3p2d1f|18s5p2d1f]
    h       14     16     14   cc-pVTZ   [3s2p1d|5s2p1d]
   ---------------------------------------------------------------------------
   total:   36   1324    856
   ---------------------------------------------------------------------------

   total number of primitive shells          :   60
   total number of contracted shells         :  304
   total number of cartesian basis functions :  980
   total number of SCF-basis functions       :  856


 integral neglect threshold       :  0.34E-13
 integral storage threshold THIZE :  0.10E-04
 integral storage threshold THIME :         5


 DENSITY CONVERGENCE CHECK SWITCHED ON !
 SCF CONVERGENCE IF RMS(delta[D]) <     0.1000000000E-06


 symmetry group of the molecule :   c1 

 the group has the following generators :
   c1(z)

    1 symmetry operations found

 there are 1 real representations :   a   

 maximum number of shells which are related by symmetry :  1


    mo occupation :
   irrep   mo's   occupied
    a      856       76
 
 number of basis functions   :                    856
 number of occupied orbitals :                     76
 

 automatic virtual orbital shift switched on 
      shift if e(lumo)-e(homo) < 0.10000000    


 keyword $2e-ints_shell_statistics missing in file <control>

 ! One task per shell generated
  No pre-computed optimal task distribution found
  ... using automatic task generation

          ------------------------
          nuclear repulsion energy  :   1592.94845557    
          ------------------------


         -----------------
         -S,T+V- integrals
         -----------------

 1e-integrals will be neglected if expon. factor < 0.341016E-14
 
   Difference densities algorithm switched on.
   The maximal number of linear combinations of
   difference densities is                    20 .

 DIIS switched on: error vector is FDS-SDF
 Max. Iterations for DIIS is     :   5
 DIIS matrix (see manual) 
    Scaling factor of diagonals  :  1.200
    threshold for scaling factor :  0.000

 scf convergence criterion : increment of total energy < .1000000D-08
                  and increment of one-electron energy < .1000000D-05

  MOs are in ASCII format !


 reading orbital data $scfmo  from file mos
 orbital characterization : scfconv=9

 DSCF restart information will be dumped onto file mos

 
                                              current damping :  0.300
 ITERATION  ENERGY          1e-ENERGY        2e-ENERGY     RMS[dD(SAO)]   TOL
   1  -957.49334478366    -4445.5736707     1895.1318703    0.000D+00 0.340D-13
          max. resid. norm for Fia-block=  2.684D-04 for orbital     75a         
          max. resid. fock norm         =  2.871D-03 for orbital    831a         
          Delta Eig. =     0.1425554892 eV 
 
                                              current damping :  0.250
 ITERATION  ENERGY          1e-ENERGY        2e-ENERGY     RMS[dD(SAO)]   TOL
   2  -957.49334540971    -4445.5775648     1895.1357638    0.577D-05 0.216D-13
          Norm of current diis error: 0.11533E-02
          max. resid. norm for Fia-block=  8.094D-05 for orbital     75a         
          max. resid. fock norm         =  6.566D-04 for orbital    831a         
          Delta Eig. =     0.0333791333 eV 
 
                                              current damping :  0.200
 ITERATION  ENERGY          1e-ENERGY        2e-ENERGY     RMS[dD(SAO)]   TOL
   3  -957.49334546776    -4445.5764120     1895.1346110    0.187D-05 0.171D-13
          Norm of current diis error: 0.31727E-03
          max. resid. norm for Fia-block=  2.053D-05 for orbital     75a         
          max. resid. fock norm         =  1.345D-04 for orbital    831a         
          Delta Eig. =     0.0072292999 eV 
 
                                              current damping :  0.250
 ITERATION  ENERGY          1e-ENERGY        2e-ENERGY     RMS[dD(SAO)]   TOL
   4  -957.49334547194    -4445.5769734     1895.1351723    0.458D-06 0.154D-13
          Norm of current diis error: 0.73010E-04
          max. resid. norm for Fia-block=  3.704D-06 for orbital     75a         
          max. resid. fock norm         =  2.162D-05 for orbital    831a         
          Delta Eig. =     0.0010952367 eV 

 DENSITY CONVERGED !

 
                                              current damping :  0.300
 ITERATION  ENERGY          1e-ENERGY        2e-ENERGY     RMS[dD(SAO)]   TOL
   5  -957.49334547219    -4445.5768628     1895.1350618    0.825D-07 0.146D-13
          Norm of current diis error: 0.22600E-04
          max. resid. norm for Fia-block=  1.120D-06 for orbital     53a         
          max. resid. fock norm         =  4.520D-06 for orbital    831a         
 mo-orthogonalization: Cholesky decomposition
          Delta Eig. =     0.0002182946 eV 

 DENSITY CONVERGED !

 
                                              current damping :  0.350
 ITERATION  ENERGY          1e-ENERGY        2e-ENERGY     RMS[dD(SAO)]   TOL
   6  -957.49334547222    -4445.5768737     1895.1350727    0.188D-07 0.139D-13
          Norm of current diis error: 0.91065E-05
          max. resid. norm for Fia-block=  5.544D-07 for orbital     48a         
          max. resid. fock norm         =  1.033D-06 for orbital    831a         
          Delta Eig. =     0.0000476618 eV 

 ENERGY & DENSITY CONVERGED !

 
                                              current damping :  0.200
 ITERATION  ENERGY          1e-ENERGY        2e-ENERGY     RMS[dD(SAO)]   TOL
   7  -957.49334547224    -4445.5768746     1895.1350736    0.605D-08 0.132D-13
          max. resid. norm for Fia-block=  1.810D-07 for orbital     48a         
          max. resid. fock norm         =  2.832D-07 for orbital    831a         

 convergence criteria satisfied after     7 iterations


                  ------------------------------------------ 
                 |  total energy      =   -957.49334547224  |
                  ------------------------------------------ 
                 :  kinetic energy    =    955.54635582656  :
                 :  potential energy  =  -1913.03970129879  :
                 :  virial theorem    =      1.99796657632  :
                 :  wavefunction norm =      1.00000000000  :
                  .......................................... 


 orbitals $scfmo  will be written to file mos

    irrep                 72a         73a         74a         75a         76a   
 eigenvalues H         -0.54825    -0.42241    -0.42212    -0.41321    -0.40385
            eV         -14.9189    -11.4945    -11.4867    -11.2441    -10.9894
 occupation              2.0000      2.0000      2.0000      2.0000      2.0000 

    irrep                 77a         78a         79a         80a         81a   
 eigenvalues H         -0.03901    -0.02926    -0.00016     0.01745     0.03130
            eV          -1.0616     -0.7962     -0.0043      0.4749      0.8516
 
 
 
 
 ==============================================================================
                           electrostatic moments
 ==============================================================================

 reference point for electrostatic moments:    0.00000   0.00000   0.00000

 
              nuc           elec       ->  total
 ------------------------------------------------------------------------------
                          charge      
 ------------------------------------------------------------------------------
         153.000000    -152.000000       1.000000
 
 ------------------------------------------------------------------------------
                       dipole moment  
 ------------------------------------------------------------------------------
   x      -7.086948       4.223697      -2.863250
   y      -4.082173       2.435588      -1.646585
   z       0.000000      -0.000000      -0.000000
 
   | dipole moment | =     3.3029 a.u. =     8.3952 debye 
 
 ------------------------------------------------------------------------------
                     quadrupole moment
 ------------------------------------------------------------------------------
  xx    3209.917964   -3265.939051     -56.021087
  yy    8056.161155   -8098.109593     -41.948438
  zz       0.000000    -100.146854    -100.146854
  xy   -4171.409027    4159.294992     -12.114034
  xz       0.000000       0.000000       0.000000
  yz       0.000000      -0.000000      -0.000000
 
     1/3  trace=     -66.038793
     anisotropy=      56.624541
 
 ==============================================================================
 

    dscf profiling
  --------------------------------------------------------------------
             module   cpu total (s)       %  wall total (s)       %

          dscf.total          1986.7  100.00          1986.5  100.00
        dscf.prepare             1.3    0.07             1.4    0.07
      prepare.oneint             0.1    0.00             0.1    0.00
     prepare.moinput             0.6    0.03             0.6    0.03
     moinput_orthmos             0.4    0.02             0.4    0.02
            dscf.scf          1985.2   99.92          1984.8   99.91
             scf.pre             0.0    0.00             0.0    0.00
        scf.makedmat             0.3    0.02             0.4    0.02
          scf.shloop          1961.1   98.71          1960.1   98.67
          shloop_omp          1961.1   98.71          1960.1   98.67
          scf.symcar             0.1    0.00             0.1    0.00
        scf.makefock             0.1    0.01             0.2    0.01
          scf.newerg             0.0    0.00             0.0    0.00
          scf.newcnv             1.4    0.07             1.4    0.07
           scf.fdiag             4.1    0.20             4.1    0.20
         diag_tritrn             1.3    0.07             1.3    0.07
          diag_rdiag             2.7    0.14             2.7    0.14
          scf.modump            15.1    0.76            15.3    0.77
           ortho_all             0.4    0.02             0.4    0.02
            scf.post             2.6    0.13             2.7    0.14
        dscf.postscf             0.2    0.01             0.3    0.02
 


    ------------------------------------------------------------------------
         total  cpu-time : 33 minutes and  7 seconds
         total wall-time : 33 minutes and  7 seconds
    ------------------------------------------------------------------------

   ****  dscf : all done  ****


    2018-02-14 10:08:58.684 

