
   OpenMP run-time library returned nthreads = 20

 ricc2 (c-9-413.local) : TURBOMOLE V7.2 ( 21471 ) 11 Oct 2017 at 17:04:51
 Copyright (C) 2017 TURBOMOLE GmbH, Karlsruhe


    2018-04-05 16:38:47.125 



                              R I C C 2 - PROGRAM

                          the quantum chemistry groups
                             at the universities in
                           Karlsruhe, Bochum & Mainz
                                   Germany



   *-----------------------------------------------------------------------*
   |                     program will use 20 thread(s)                     |
   *-----------------------------------------------------------------------*


              +--------------------------------------------------+
              | Atomic coordinate, charge and isotop information |
              +--------------------------------------------------+

                    atomic coordinates            atom    charge  isotop
          0.55678650    7.16619056    6.08923677    c      0.000     0
          0.94964135    6.87105738    3.48704933    c      0.000     0
          1.41085660    9.05241356    2.00286579    c      0.000     0
          1.46985657   11.44872388    3.15083560    c      0.000     0
          1.07602272   11.68273831    5.72530310    c      0.000     0
          0.60832648    9.53905070    7.24309806    c      0.000     0
          1.76107574    8.74055328   -0.65241502    c      0.000     0
          1.73652693    6.57768610   -1.85061532    n      0.000     0
          1.36407775    4.37236203   -0.49601687    c      0.000     0
          0.92395734    4.44971696    2.19383238    c      0.000     0
          0.50695343    2.16786417    3.39541312    c      0.000     0
          0.60366892   -0.09381260    2.01682339    c      0.000     0
          1.11791520    0.00959234   -0.65175322    c      0.000     0
          1.44418684    2.24392819   -1.85852429    n      0.000     0
          1.34565618   -2.12395972   -2.04800891    n      0.000     0
          1.06722315   -4.35441400   -0.89124923    c      0.000     0
          0.47761581   -4.64170492    1.75543476    c      0.000     0
          0.25513812   -2.45596477    3.16764082    c      0.000     0
          1.38812487   -6.45028310   -2.41862460    n      0.000     0
          1.13386299   -8.70875224   -1.44637714    c      0.000     0
          0.54019810   -9.23186296    1.13141927    c      0.000     0
          0.18761464   -7.16500835    2.79768267    c      0.000     0
          0.28987010  -11.71947586    2.03284233    c      0.000     0
         -0.30066317  -12.15428450    4.54290542    c      0.000     0
         -0.66377626  -10.12715012    6.23887746    c      0.000     0
         -0.41088544   -7.66298129    5.32873506    c      0.000     0
         -1.32799346  -10.54371936    9.02314793    c      0.000     0
         -3.89855970   -9.27439623    9.58673718    c      0.000     0
          0.15354967    9.73518956   10.09300263    c      0.000     0
          2.17664005    8.15964298   11.49314946    c      0.000     0
         -2.49515714    8.66534276   10.70712419    c      0.000     0
          0.28891973   12.47419055   11.04973453    c      0.000     0
          0.73621102   -9.32010861   10.68973627    c      0.000     0
         -1.51790377  -13.36030883    9.70659688    c      0.000     0
          1.13302678   -6.29951544   -7.61597768    n      7.000     0
          0.47911634   -4.15743603   -8.88204333    c      6.000     0
         -0.05546639   -4.52310829  -11.30863290    n      7.000     0
          0.25398629   -7.11399025  -11.66110775    c      6.000     0
          0.99015665   -8.25768887   -9.35026171    c      6.000     0
         -0.05419743   -8.58553199  -13.83298433    c      6.000     0
          0.38126374  -11.17788928  -13.62844747    c      6.000     0
          1.10807239  -12.28958363  -11.32405375    c      6.000     0
          1.42749524  -10.84681155   -9.13830189    c      6.000     0
          0.46603635   -1.86234259   -7.63008881    n      7.000     0
         -0.07979776    0.36340685   -8.77787086    c      6.000     0
          0.17107637    2.49133415   -7.37692432    n      7.000     0
         -0.22783447    4.89269799   -8.32597243    c      6.000     0
          0.26116047    6.94476919   -6.85326477    n      7.000     0
         -0.27966825    9.05204588   -8.31208865    c      6.000     0
         -1.08928235    8.09053727  -10.68066508    c      6.000     0
         -1.03813980    5.45816781  -10.63412813    n      7.000     0
         -1.78825763    9.74493619  -12.61760369    c      6.000     0
         -1.65701950   12.33191380  -12.12621460    c      6.000     0
         -0.85124155   13.26131995   -9.76796291    c      6.000     0
         -0.14719866   11.63539201   -7.81334484    c      6.000     0
         -0.75415397    0.45852176  -11.17531939    n      7.000     0
         -4.40722570    0.07726652   -3.47380025    cl    17.000     0
         -0.69263271   -6.09706518    6.62179679    h      0.000     0
          0.20283012    5.51090803    7.24632857    h      0.000     0
          1.12671503   13.54570931    6.57389703    h      0.000     0
         -0.48677096  -14.08457085    5.20096702    h      0.000     0
         -0.15357266   -2.52013758    5.17685002    h      0.000     0
          0.13045318    2.07566948    5.40980010    h      0.000     0
          1.82216826   13.10985425    1.99564595    h      0.000     0
          0.56198432  -13.29077371    0.73880159    h      0.000     0
          1.39416784  -10.29879852   -2.73090039    h      0.000     0
          2.05866460   10.42345079   -1.80406564    h      0.000     0
         -1.99223601  -13.53807824   11.71250566    h      0.000     0
         -0.04779209   12.49379744   13.09086622    h      0.000     0
         -2.66180093    6.68377477   10.13790532    h      0.000     0
          2.09870580    6.16755210   10.94252039    h      0.000     0
         -3.83714955   -7.24140626    9.21161378    h      0.000     0
          0.88610863   -7.28741196   10.33818900    h      0.000     0
         -2.99783480  -14.31249800    8.61664856    h      0.000     0
          0.27406078  -14.34617997    9.38656359    h      0.000     0
          2.14957711   13.31291816   10.70370997    h      0.000     0
         -1.14832778   13.66656362   10.15683619    h      0.000     0
          4.07546347    8.87428646   11.08432943    h      0.000     0
         -3.96643776    9.74692301    9.73336009    h      0.000     0
         -5.39641120  -10.10471933    8.42499451    h      0.000     0
          2.58157238  -10.18227319   10.32263034    h      0.000     0
         -4.38603471   -9.54796480   11.58019718    h      0.000     0
          0.26936746   -9.59513381   12.68784255    h      0.000     0
         -2.83566521    8.78095847   12.74594849    h      0.000     0
          1.85719704    8.27625875   13.53531575    h      0.000     0
         -1.11779095    2.21734566  -11.91972040    h      1.000     0
         -0.81103622   -1.22698674  -12.14281065    h      1.000     0
          0.78625264   -1.87107438   -5.68642880    h      1.000     0
          0.57562202    2.31722263   -5.45977158    h      1.000     0
          0.96667290    6.84978022   -5.00386826    h      1.000     0
          1.45312774   -6.38297979   -5.65714651    h      1.000     0
         -2.18995219   13.66354319  -13.59466008    h      1.000     0
          0.15496722  -12.37002149  -15.28413727    h      1.000     0
          1.43026157  -14.31496456  -11.24301578    h      1.000     0
         -0.77554289   15.28910935   -9.45993696    h      1.000     0
         -0.61544667   -7.73361555  -15.61361570    h      1.000     0
         -2.41302064    9.03348224  -14.43825341    h      1.000     0
          2.00008237  -11.71272486   -7.36832570    h      1.000     0
          0.47198841   12.36380356   -5.99798722    h      1.000     0
 
       center of nuclear mass  :    0.01302050    0.06196756   -1.57002475
       center of nuclear charge:   -0.48781361    0.39864792   -9.25598926

              +--------------------------------------------------+
              |               basis set information              |
              +--------------------------------------------------+

              we will work with the 1s 3p 5d 7f 9g ... basis set
              ...i.e. with spherical basis functions...

   type   atoms  prim   cont   basis
   ---------------------------------------------------------------------------
    c       45     77     55   cc-pVQZ   [5s4p3d2f1g|21s6p3d2f1g]
    n       11     77     55   cc-pVQZ   [5s4p3d2f1g|21s6p3d2f1g]
    cl       1    137     59   cc-pVQZ   [6s5p3d2f1g|42s19p3d2f1g]
    h       42     32     30   cc-pVQZ   [4s3p2d1f|6s3p2d1f]
   ---------------------------------------------------------------------------
   total:   99   5793   4399
   ---------------------------------------------------------------------------

   total number of primitive shells          :  145
   total number of contracted shells         : 1277
   total number of cartesian basis functions : 5464
   total number of SCF-basis functions       : 4399


 symmetry group of the molecule :   c1 

 the group has the following generators :
   c1(z)

    1 symmetry operations found

 there are 1 real representations :   a   


   =========================================================================


     restricted closed shell calculation for the wavefunction models:
               MP2        - Second Order Moeller Plesset PT


     global parameters for ricc2 program:

        hard restart (reuse of interm.) :  disabled
        soft restart (reuse of vectors) :  disabled
        threshold for vector function   :    0.100000E-05
        convergence threshold energy    :    0.100000E-06
        linear dependence threshold     :    0.100000E-13
        global print level              :      1
        maximum number of iterations    :   300
        maximum number DIIS vectors     :    10
        max. dim. of reduced space      :   100
        core memory limit (MB)          : 95367


     MP2 energy only: Energy will be calculated directly from T2 amplitudes!

     Scratch Directory : 


   =========================================================================

    der. integral neglect threshold  :  0.10E-07
    integral neglect threshold       :  0.61E-12
    integral storage threshold THIZE :  0.10E-04
    integral storage threshold THIME :         5


                  +------------------------------------------+
                  |     Auxiliary basis set information      |
                  +------------------------------------------+

              we will work with the 1s 3p 5d 7f 9g ... basis set
              ...i.e. with spherical basis functions...

   type   atoms  prim   cont   basis
   ---------------------------------------------------------------------------
    c       45    132    132   cc-pVQZ   [8s7p6d5f3g1h|8s7p6d5f3g1h]
    n       11    132    132   cc-pVQZ   [8s7p6d5f3g1h|8s7p6d5f3g1h]
    cl       1    158    158   cc-pVQZ   [11s9p8d6f3g1h|11s9p8d6f3g1h]
    h       42     55     55   cc-pVQZ   [5s4p3d2f1g|5s4p3d2f1g]
   ---------------------------------------------------------------------------
   total:   99   9860   9860
   ---------------------------------------------------------------------------

   total number of primitive shells          :  113
   total number of contracted shells         : 2348
   total number of cartesian basis functions :13288
   total number of SCF-basis functions       : 9860


 maximum number of shells which are related by symmetry :  1


 The symmetry information takes   1 MB

*---------------------------------------------------------------------*
|               simplified C1 algorithm will be applied               |
*---------------------------------------------------------------------*
  MOs are in ASCII format !


 reading orbital data $scfmo  from file mos
 orbital characterization : scfconv=7



              +--------------------------------------------+
              | list of orbitals that will be kept frozen: |
              +--------------------------------------------+
              |   irrep   index      energy     occ/vir    |
              +--------------------------------------------+
              |   a         1     -104.6482     occupied   |
              |   a         2      -15.6813     occupied   |
              |   a         3      -15.6786     occupied   |
              |   a         4      -15.6593     occupied   |
              |   a         5      -15.6561     occupied   |
              |   a         6      -15.6312     occupied   |
              |   a         7      -15.5866     occupied   |
              |   a         8      -15.5836     occupied   |
              |   a         9      -11.4657     occupied   |
              |   a        10      -11.4092     occupied   |
              |   a        11      -11.4059     occupied   |
              |   a        12      -11.3012     occupied   |
              |   a        13      -11.2986     occupied   |
              |   a        14      -11.2872     occupied   |
              |   a        15      -11.2844     occupied   |
              |   a        16      -11.2612     occupied   |
              |   a        17      -11.2586     occupied   |
              |   a        18      -11.2541     occupied   |
              |   a        19      -11.2523     occupied   |
              |   a        20      -11.2516     occupied   |
              |   a        21      -11.2498     occupied   |
              |   a        22      -11.2492     occupied   |
              |   a        23      -11.2467     occupied   |
              |   a        24      -10.3728     occupied   |
              |   a        25       -7.8392     occupied   |
              |   a        26       -7.8391     occupied   |
              |   a        27       -7.8391     occupied   |
              +--------------------------------------------+



   Molecular Orbital Statistic:
   ============================

   -----------------------------
   orbitals in total:
   -----------------------------
    frozen occupied :     27
    active occupied :     58
    active virtual  :   4314
    frozen virtual  :      0
    all together    :   4399
   -----------------------------


     time in riccmos       cpu: 30.68 sec    wall: 14.83 sec    ratio:  2.1

     total memory allocated for calculation of (Q|P)**(-1/2) : 1113 MiB


     calculation of (P|Q) ...
     time in lp2sym        cpu: 28.84 sec    wall:  1.71 sec    ratio: 16.9


     calculation of the Cholesky decomposition of (P|Q)**(-1) ...
     time in invmetri      cpu:  2 min  8 s  wall:  0 min 11 s  ratio: 11.4

   threshold for RMS(d[D]) in SCF was     :  0.10E-06
   integral neglect threshold             :  0.61E-12
   derivative integral neglect threshold  :  0.10E-07


   =========================================================================

     Energy of reference wave function is -1417.2553873259999
     Maximum orbital residual is           0.5524608675028E-05


     Number of symmetry-nonredundant auxiliary basis functions:     9860

     Block lengths for integral files:
        frozen occupied (BOI):        3 MiB
        active occupied (BJI):        5 MiB
        active virtual  (BAI):      325 MiB
        frozen virtual  (BGI):        0 MiB
               general  (BTI):      331 MiB

   =========================================================================




   **************************************************************************
   *                                                                        *
   *          OPTIMIZATION OF THE GROUND STATE CLUSTER AMPLITUDES           *
   *                                                                        *
   **************************************************************************


   Iter.   MP2 energy       Norm(Omega)    Norm(t1)  Norm(t2)     cpu    wall
   ...........................................................................
    1  -1421.4663615077     ------          0.00000   0.68407  536.80   30.42
   ...........................................................................


     time in total         cpu:  8 h 56 min  wall:  0 h 30 min  ratio: 17.6


     **********************************************************************
     *                                                                    *
     *   RHF  energy                             :  -1417.2553873260      *
     *   MP2 correlation energy (doubles)        :     -4.2109741817      *
     *                                                                    *
     *   Final MP2 energy                        :  -1421.4663615077      *
     *                                                                    *
     *    E(S)   =     -2.5913966975      E(T)   =     -1.6195774843      *
     *    E(OS)  =     -3.1312558589      E(SS)  =     -1.0797183228      *
     *                                                                    *
     *   SCS-MP2 energy                          :  -1421.3728004643      *
     *   (computed with  C(OS) =   1.2000  and  C(SS) =   0.3333)         *
     *                                                                    *
     *   SOS-MP2 energy                          :  -1421.3260199426      *
     *   (computed with  C(OS) =   1.3000)                                *
     *                                                                    *
     *   Norm of MP1 T2 amplitudes               :      0.6840745070      *
     *                                                                    *
     **********************************************************************



    ------------------------------------------------------------------------
         total  cpu-time : 22 hours 20 minutes and 17 seconds
         total wall-time :  1 hours 38 minutes and 36 seconds
    ------------------------------------------------------------------------

   ****  ricc2 : all done  ****


    2018-04-05 18:17:22.950 

