
   OpenMP run-time library returned nthreads = 28
 operating system is UNIX !

 dscf (c-13-42) : TURBOMOLE V7.3 ( 22142 ) 4 Jul 2018 at 18:12:42
 Copyright (C) 2018 TURBOMOLE GmbH, Karlsruhe


    2019-04-01 23:48:52.895 



                             d s c f - program

                   idea & directorship : reinhart ahlrichs
                   program development : marco haeser
                                         michael baer
                           dft version : oliver treutler


                          quantum chemistry group
                          universitaet  karlsruhe
                                  germany




                          References             
                                                 
          TURBOMOLE:                             
              R. Ahlrichs, M. Baer, M. Haeser, H. Horn, and
              C. Koelmel
              Electronic structure calculations on workstation
              computers: the program system TURBOMOLE
              Chem. Phys. Lett. 162: 165 (1989)
          Density Functional:                              
              O. Treutler and R. Ahlrichs                      
              Efficient Molecular Numerical Integration Schemes
              J. Chem. Phys. 102: 346 (1995)                   
          Parallel Version:                                
              Performance of parallel TURBOMOLE for Density    
              Functional Calculations                          
              M. v. Arnim and R. Ahlrichs                      
              J. Comp. Chem. 19: 1746 (1998)                   
                                         




              +--------------------------------------------------+
              | Atomic coordinate, charge and isotop information |
              +--------------------------------------------------+

                    atomic coordinates            atom    charge  isotop
         -1.15379604    0.42991855   -0.32239119    c      6.000     0
          0.20292835    1.62787817   -1.19848177    h      1.000     0
         -2.61968147   -0.99272133    0.71804590    c      6.000     0
         -3.93195928   -2.21866583    1.61454302    h      1.000     0
 
       center of nuclear mass  :   -1.88501818   -0.28248472    0.19861732
       center of nuclear charge:   -1.88356400   -0.28340031    0.19928497

              +--------------------------------------------------+
              |               basis set information              |
              +--------------------------------------------------+

              we will work with the 1s 3p 5d 7f 9g ... basis set
              ...i.e. with spherical basis functions...

   type   atoms  prim   cont   basis
   ---------------------------------------------------------------------------
    c        2     50     30   cc-pVTZ   [4s3p2d1f|18s5p2d1f]
    h        2     16     14   cc-pVTZ   [3s2p1d|5s2p1d]
   ---------------------------------------------------------------------------
   total:    4    132     88
   ---------------------------------------------------------------------------

   total number of primitive shells          :   34
   total number of contracted shells         :   32
   total number of cartesian basis functions :  100
   total number of SCF-basis functions       :   88


 integral neglect threshold       :  0.33E-12
 integral storage threshold THIZE :  0.10E-04
 integral storage threshold THIME :         5


 DENSITY CONVERGENCE CHECK SWITCHED ON !
 SCF CONVERGENCE IF RMS(delta[D]) <     0.1000000000E-06


 symmetry group of the molecule :   c1 

 the group has the following generators :
   c1(z)

    1 symmetry operations found

 there are 1 real representations :   a   

 maximum number of shells which are related by symmetry :  1


    mo occupation :
   irrep   mo's   occupied
    a       88        7
 
 number of basis functions   :                     88
 number of occupied orbitals :                      7
 

 automatic virtual orbital shift switched on 
      shift if e(lumo)-e(homo) < 0.10000000    


          ------------------------
          nuclear repulsion energy  :   24.6257463838    
          ------------------------


         -----------------
         -S,T+V- integrals
         -----------------

 1e-integrals will be neglected if expon. factor < 0.334196E-13
 
   Difference densities algorithm switched on.
   The maximal number of linear combinations of
   difference densities is                    20 .

 DIIS switched on: error vector is FDS-SDF
 Max. Iterations for DIIS is     :   5
 DIIS matrix (see manual) 
    Scaling factor of diagonals  :  1.200
    threshold for scaling factor :  0.000

 scf convergence criterion : increment of total energy < .1000000D-08
                  and increment of one-electron energy < .1000000D-05

  MOs are in ASCII format !


 reading orbital data $scfmo  from file mos
 orbital characterization : scfconv=9

 DSCF restart information will be dumped onto file mos

 
                                              current damping :  0.700
 ITERATION  ENERGY          1e-ENERGY        2e-ENERGY     RMS[dD(SAO)]   TOL
   1  -76.832654710542    -151.69527086     50.236869769    0.000D+00 0.333D-12
          max. resid. norm for Fia-block=  9.476D-02 for orbital      2a         
          max. resid. fock norm         =  1.674D-01 for orbital     88a         
          Delta Eig. =    20.8408862061 eV 
 
                                              current damping :  0.650
 ITERATION  ENERGY          1e-ENERGY        2e-ENERGY     RMS[dD(SAO)]   TOL
   2  -76.845287230320    -151.42800465     49.956971034    0.218D-02 0.213D-12
          Norm of current diis error: 0.22790    
          max. resid. norm for Fia-block=  4.608D-02 for orbital      2a         
          max. resid. fock norm         =  5.925D-02 for orbital     42a         
          Delta Eig. =     9.7725251042 eV 
 
                                              current damping :  0.600
 ITERATION  ENERGY          1e-ENERGY        2e-ENERGY     RMS[dD(SAO)]   TOL
   3  -76.847555783009    -151.42889254     49.955590374    0.959D-03 0.163D-12
          Norm of current diis error: 0.96474E-01
          max. resid. norm for Fia-block=  1.884D-02 for orbital      2a         
          max. resid. fock norm         =  2.465D-02 for orbital     42a         
          Delta Eig. =     3.8049230591 eV 
 
                                              current damping :  0.650
 ITERATION  ENERGY          1e-ENERGY        2e-ENERGY     RMS[dD(SAO)]   TOL
   4  -76.847998008128    -151.41034656     49.936602169    0.406D-03 0.143D-12
          Norm of current diis error: 0.38634E-01
          max. resid. norm for Fia-block=  7.128D-03 for orbital      2a         
          max. resid. fock norm         =  9.484D-03 for orbital     42a         
          Delta Eig. =     1.3813017988 eV 
 
                                              current damping :  0.500
 ITERATION  ENERGY          1e-ENERGY        2e-ENERGY     RMS[dD(SAO)]   TOL
   5  -76.848069224817    -151.40424744     49.930431827    0.154D-03 0.130D-12
          Norm of current diis error: 0.16095E-01
          max. resid. norm for Fia-block=  2.789D-03 for orbital      2a         
          max. resid. fock norm         =  3.825D-03 for orbital     42a         
 mo-orthogonalization: Cholesky decomposition
          Delta Eig. =     0.5960850304 eV 
 
                                              current damping :  0.350
 ITERATION  ENERGY          1e-ENERGY        2e-ENERGY     RMS[dD(SAO)]   TOL
   6  -76.848082722640    -151.40164063     49.927811523    0.696D-04 0.119D-12
          Norm of current diis error: 0.57815E-02
          max. resid. norm for Fia-block=  9.112D-04 for orbital      2a         
          max. resid. fock norm         =  1.315D-03 for orbital     42a         
          Delta Eig. =     0.2190562601 eV 
 
                                              current damping :  0.200
 ITERATION  ENERGY          1e-ENERGY        2e-ENERGY     RMS[dD(SAO)]   TOL
   7  -76.848084678144    -151.40063040     49.926799340    0.275D-04 0.108D-12
          Norm of current diis error: 0.16884E-02
          max. resid. norm for Fia-block=  2.302D-04 for orbital      2a         
          max. resid. fock norm         =  3.488D-04 for orbital     42a         
          Delta Eig. =     0.0642991168 eV 
 
                                              current damping :  0.050
 ITERATION  ENERGY          1e-ENERGY        2e-ENERGY     RMS[dD(SAO)]   TOL
   8  -76.848084874610    -151.40040825     49.926576992    0.898D-05 0.972D-13
          Norm of current diis error: 0.36349E-03
          max. resid. norm for Fia-block=  4.838D-05 for orbital      4a         
          max. resid. fock norm         =  6.303D-05 for orbital     42a         
          Delta Eig. =     0.0118327319 eV 
 
                                              current damping :  0.050
 ITERATION  ENERGY          1e-ENERGY        2e-ENERGY     RMS[dD(SAO)]   TOL
   9  -76.848084887183    -151.40033627     49.926504995    0.229D-05 0.884D-13
          Norm of current diis error: 0.61303E-04
          max. resid. norm for Fia-block=  1.124D-05 for orbital      5a         
          max. resid. fock norm         =  1.130D-05 for orbital      5a         
          Delta Eig. =     0.0005863334 eV 
 
                                              current damping :  0.100
 ITERATION  ENERGY          1e-ENERGY        2e-ENERGY     RMS[dD(SAO)]   TOL
  10  -76.848084887695    -151.40033995     49.926508683    0.430D-06 0.836D-13
          Norm of current diis error: 0.16765E-04
          max. resid. norm for Fia-block=  3.278D-06 for orbital      5a         
          max. resid. fock norm         =  3.288D-06 for orbital      5a         
 mo-orthogonalization: Cholesky decomposition
          Delta Eig. =     0.0000478729 eV 
 
                                              current damping :  0.150
 ITERATION  ENERGY          1e-ENERGY        2e-ENERGY     RMS[dD(SAO)]   TOL
  11  -76.848084887744    -151.40033666     49.926505386    0.133D-06 0.951D-13
          Norm of current diis error: 0.54302E-05
          max. resid. norm for Fia-block=  1.001D-06 for orbital      5a         
          max. resid. fock norm         =  1.011D-06 for orbital      5a         
          Delta Eig. =     0.0000122936 eV 

 ENERGY & DENSITY CONVERGED !

 
                                              current damping :  0.200
 ITERATION  ENERGY          1e-ENERGY        2e-ENERGY     RMS[dD(SAO)]   TOL
  12  -76.848084887756    -151.40033784     49.926506569    0.396D-07 0.951D-13
          max. resid. norm for Fia-block=  2.768D-07 for orbital      6a         
          max. resid. fock norm         =  2.771D-07 for orbital      6a         

 convergence criteria satisfied after    12 iterations


                  ------------------------------------------ 
                 |  total energy      =    -76.84808488776  |
                  ------------------------------------------ 
                 :  kinetic energy    =     76.63329912680  :
                 :  potential energy  =   -153.48138401456  :
                 :  virial theorem    =      1.99720506033  :
                 :  wavefunction norm =      1.00000000000  :
                  .......................................... 


 orbitals $scfmo  will be written to file mos

    irrep                  3a          4a          5a          6a          7a   
 eigenvalues H         -1.02568    -0.76756    -0.67927    -0.40739    -0.40738
            eV         -27.9105    -20.8866    -18.4839    -11.0858    -11.0856
 occupation              2.0000      2.0000      2.0000      2.0000      2.0000 

    irrep                  8a          9a         10a         11a         12a   
 eigenvalues H          0.15075     0.17063     0.17455     0.17461     0.30981
            eV           4.1021      4.6431      4.7498      4.7515      8.4305
 
 
 
 
 ==============================================================================
                           electrostatic moments
 ==============================================================================

 reference point for electrostatic moments:    0.00000   0.00000   0.00000

 
              nuc           elec       ->  total
 ------------------------------------------------------------------------------
                          charge      
 ------------------------------------------------------------------------------
          14.000000     -14.000000       0.000000
 
 ------------------------------------------------------------------------------
                       dipole moment  
 ------------------------------------------------------------------------------
   x     -26.369896      26.379927       0.010031
   y      -3.967604       3.960789      -0.006816
   z       2.789990      -2.785019       0.004971
 
   | dipole moment | =     0.0131 a.u. =     0.0333 debye 
 
 ------------------------------------------------------------------------------
                     quadrupole moment
 ------------------------------------------------------------------------------
  xx      64.665342     -72.713014      -8.047673
  yy      14.594419     -22.918623      -8.324203
  zz       7.760264     -17.037187      -9.276924
  xy      21.681499     -19.475022       2.206477
  xz     -15.645991      14.032313      -1.613678
  yz     -10.641642       9.144065      -1.497578
 
     1/3  trace=      -8.549600
     anisotropy=       5.513012
 
 ==============================================================================
 


    ------------------------------------------------------------------------
         total  cpu-time :  1 minutes and 20 seconds
         total wall-time :   3.01 seconds
    ------------------------------------------------------------------------

   ****  dscf : all done  ****


    2019-04-01 23:48:55.833 

