           Doing BLAS/Lapack in the master proc. with  8 CPUs.
           SMPCPUS    set: Shared-memory Parallelization with   8 CPUs.

           SMP Parallelization Reference:
           C. van Wullen, J. Comput. Chem. 32 (2011) 1195--1201
 operating system is UNIX !

 ridft (c-18-263.gp.local) : TURBOMOLE V7.2 ( 21454 ) 4 Oct 2017 at 12:48:15
 Copyright (C) 2017 TURBOMOLE GmbH, Karlsruhe


    2018-04-28 20:58:00.455 



                                  r i d f t

                        DFT program with RI approximation 
                                for coulomb part 




                                                 
                                 References:     
                                                 
          TURBOMOLE:                             
              R. Ahlrichs, M. Baer, M. Haeser, H. Horn, and
              C. Koelmel
              Electronic structure calculations on workstation
              computers: the program system TURBOMOLE
              Chem. Phys. Lett. 162: 165 (1989)
          Density Functional:                              
              O. Treutler and R. Ahlrichs                      
              Efficient Molecular Numerical Integration Schemes
              J. Chem. Phys. 102: 346 (1995)                   
          Parallel Version:                                
              Performance of parallel TURBOMOLE for Density    
              Functional Calculations                          
              M. v. Arnim and R. Ahlrichs                      
              J. Comp. Chem. 19: 1746 (1998)                   
          RI-J Method:                                     
              Auxiliary Basis Sets to approximate Coulomb      
              Potentials                                       
              Chem. Phys. Lett. 240: 283 (1995)                
              K. Eichkorn, O. Treutler, H. Oehm, M. Haeser     
              and R. Ahlrichs                                  
              Chem. Phys. Lett. 242: 652 (1995)                
                                                           
              Auxiliary Basis Sets for Main Row Atoms and their
              Use to approximate Coulomb Potentials            
              K. Eichkorn, F. Weigend, O. Treutler and         
              R. Ahlrichs                                      
              Theo. Chem. Acc. 97: 119 (1997)                   
                                                           
              Accurate Coulomb-fitting basis sets for H to Rn 
              F. Weigend                                        
              Phys. Chem. Chem. Phys. 8: 1057 (2006)            
                                                           
          Multipole accelerated RI-J (MARI-J):             
              Fast evaluation of the Coulomb potential for     
              electron densities using multipole accelerated   
              resolution of identity approximation             
              M. Sierka, A. Hogekamp and R. Ahlrichs           
              J. Chem. Phys. 118: 9136 (2003)                  
          RI-JK Method:                                     
              A fully direct RI-HF algorithm: Implementation,
              optimised auxiliary basis sets, demonstration of
              accuracy and efficiency                         
              F. Weigend                                      
              Phys. Chem. Chem. Phys. 4: 4285 (2002)           
          Two-component HF and DFT with spin-orbit coupling:  
              Self-consistent treatment of spin-orbit         
              interactions with efficient Hartree-Fock and    
              density functional methods                      
              M. K. Armbruster, F. Weigend, C. van Wüllen and 
              W. Klopper                                      
              Phys. Chem. Chem. Phys. 10: 1748 (2008)         
          Relativistic all-electron 2c calculations           
              An efficient implementation of two-component    
              relativistic exact-decoupling methods for large 
              molecules                                       
              D. Peng, N. Middendorf, F. Weigend, M. Reiher   
              J. Chem. Phys. 138, 184105 (2013)               
                                         




              +--------------------------------------------------+
              |      general information about current run       |
              +--------------------------------------------------+

 

 DENSITY CONVERGENCE CHECK SWITCHED ON !
 SCF CONVERGENCE IF RMS(delta[D]) <     0.1000000000E-06

 PBE functional
 exchange:    LDA + PBE
 correlation: LDA (PW) + PBE
 A DFT calculation using the RI-J approximation will be carried out.
 Allocatable memory for RI due to $ricore (MB):                  5000


              +--------------------------------------------------+
              | Atomic coordinate, charge and isotop information |
              +--------------------------------------------------+

                    atomic coordinates            atom    charge  isotop
          1.47426450   -1.15257181   -2.28195181    c      6.000     0
          1.69355668   -2.14982727   -4.05184613    h      1.000     0
          0.90318091    1.41917229   -2.28259152    c      6.000     0
          0.67456464    2.41538710   -4.05167501    h      1.000     0
          0.61848710    2.70583813    0.00000000    c      6.000     0
          0.17284385    4.70001197    0.00000000    h      1.000     0
          0.90318091    1.41917229    2.28259152    c      6.000     0
          0.67456464    2.41538710    4.05167501    h      1.000     0
          1.47426450   -1.15257181    2.28195181    c      6.000     0
          1.69355668   -2.14982727    4.05184613    h      1.000     0
          1.76056016   -2.43771145    0.00000000    c      6.000     0
          2.20811802   -4.43181160    0.00000000    h      1.000     0
 
       center of nuclear mass  :    1.18877375    0.13352870    0.00000000
       center of nuclear charge:    1.18859126    0.13350681    0.00000000

              +--------------------------------------------------+
              |               basis set information              |
              +--------------------------------------------------+

              we will work with the 1s 3p 5d 7f 9g ... basis set
              ...i.e. with spherical basis functions...

   type   atoms  prim   cont   basis
   ---------------------------------------------------------------------------
    c        6     50     30   cc-pVTZ   [4s3p2d1f|18s5p2d1f]
    h        6     16     14   cc-pVTZ   [3s2p1d|5s2p1d]
   ---------------------------------------------------------------------------
   total:   12    396    264
   ---------------------------------------------------------------------------

   total number of primitive shells          :   34
   total number of contracted shells         :   96
   total number of cartesian basis functions :  300
   total number of SCF-basis functions       :  264


 integral neglect threshold       :  0.11E-12
 integral storage threshold THIZE :  0.10E-04
 integral storage threshold THIME :         5

 RI-J AUXILIARY BASIS SET information:

              we will work with the 1s 3p 5d 7f 9g ... basis set
              ...i.e. with spherical basis functions...

   type   atoms  prim   cont   basis
   ---------------------------------------------------------------------------
    c        6     70     49   cc-pVTZ   [6s4p3d1f1g|12s5p4d2f1g]
    h        6     16     11   cc-pVTZ   [3s1p1d|5s2p1d]
   ---------------------------------------------------------------------------
   total:   12    516    360
   ---------------------------------------------------------------------------

   total number of primitive shells          :   32
   total number of contracted shells         :  120
   total number of cartesian basis functions :  438
   total number of SCF-basis functions       :  360


 symmetry group of the molecule :   c1 

 the group has the following generators :
   c1(z)

    1 symmetry operations found

 there are 1 real representations :   a   

 maximum number of shells which are related by symmetry :  1


    mo occupation :
   irrep   mo's   occupied
    a      264       21
 
 number of basis functions   :                    264
 number of occupied orbitals :                     21
 
  
           ------------------
           density functional
           ------------------
 PBE functional
 exchange:    LDA + PBE
 correlation: LDA (PW) + PBE

 iterations will be done with small grid
  
 spherical integration : Lebedev's spherical grid
 spherical gridsize    :                     5
    i.e. gridpoints    :                   590
 value for diffuse not defined
 radial integration    : Chebyshev 2nd kind (scaling 3)
 radial gridsize       :                     8
 integration cells     :                    12
 partition function    : becke
 partition sharpness   :                     3
  

 biggest AO integral is expected to be     3.593180334
  
           ------------------------
               RI-J - INFORMATION
           ------------------------
 Contributions to RI integral batches: 
  neglected integral batches:                   139
  direct contribution:                            0
  memory contribution:                  4517
 Memory core needed for (P|Q) and Cholesky      1 MByte
 Memory core minimum needed except of (P|Q)     1 MByte
 Total minimum memory core needed (sum)         2 MByte
  
 ****************************************
 Memory allocated for RI-J   148 MByte
 ****************************************
                                            

          ------------------------
          nuclear repulsion energy  :   203.633900413    
          ------------------------


         -----------------
         -S,T+V- integrals
         -----------------

 1e-integrals will be neglected if expon. factor < 0.111399E-13
 Difference densities >>NOT<< switched on in parallel ridft!

 DIIS switched on: error vector is FDS-SDF
 Max. Iterations for DIIS is     :   4
 DIIS matrix (see manual) 
    Scaling factor of diagonals  :  1.200
    threshold for scaling factor :  0.000

 scf convergence criterion : increment of total energy < .1000000D-08
                  and increment of one-electron energy < .1000000D-05

  MOs are in ASCII format !


 automatic virtual orbital shift switched on 
      shift if e(lumo)-e(homo) < 0.10000000    


 reading orbital data $scfmo  from file mos
 orbital characterization : expanded
 mo provided and orthogonalized by Cholesky decomposition

 DSCF restart information will be dumped onto file mos


 Starting SCF iterations

          Overall gridpoints after grid construction =         58212

 ITERATION  ENERGY          1e-ENERGY        2e-ENERGY     RMS[dD(SAO)]   TOL
   1  -231.26784038025    -704.45306368     269.55132289    0.000D+00 0.111D-12
                            Exc = -33.4910288481     Coul =  303.042351740    
                              N = 41.999952680    
                            current damping = 0.700
 
          max. resid. norm for Fia-block=  2.638D-01 for orbital     12a         
          max. resid. fock norm         =  4.428D+00 for orbital    258a         

 ITERATION  ENERGY          1e-ENERGY        2e-ENERGY     RMS[dD(SAO)]   TOL
   2  -231.86119097968    -711.48566252     275.99057113    0.337D-02 0.111D-12
                            Exc = -34.1212759480     Coul =  310.111847079    
                              N = 41.999953269    
                            current damping = 0.650
 
          Norm of current diis error:  1.9642    
          max. resid. norm for Fia-block=  1.120D-01 for orbital      4a         
          max. resid. fock norm         =  1.404D-01 for orbital     45a         

 ITERATION  ENERGY          1e-ENERGY        2e-ENERGY     RMS[dD(SAO)]   TOL
   3  -231.97495674687    -712.80406807     277.19521092    0.188D-02 0.111D-12
                            Exc = -34.2907954146     Coul =  311.486006330    
                              N = 41.999957138    
                            current damping = 0.550
 
          Norm of current diis error: 0.97229    
          max. resid. norm for Fia-block=  5.330D-02 for orbital      7a         
          max. resid. fock norm         =  6.182D-02 for orbital      7a         

 ITERATION  ENERGY          1e-ENERGY        2e-ENERGY     RMS[dD(SAO)]   TOL
   4  -232.00855038972    -714.15136416     278.50891335    0.972D-03 0.111D-12
                            Exc = -34.4172160992     Coul =  312.926129454    
                              N = 41.999956890    
                            current damping = 0.450
 
          Norm of current diis error: 0.35593    
          max. resid. norm for Fia-block=  2.048D-02 for orbital      7a         
          max. resid. fock norm         =  2.301D-02 for orbital      7a         

 ITERATION  ENERGY          1e-ENERGY        2e-ENERGY     RMS[dD(SAO)]   TOL
   5  -232.01385869226    -714.41520344     278.76744433    0.432D-03 0.111D-12
                            Exc = -34.4562120181     Coul =  313.223656348    
                              N = 41.999957866    
                            current damping = 0.300
 
          Norm of current diis error: 0.13084    
          max. resid. norm for Fia-block=  7.251D-03 for orbital      7a         
          max. resid. fock norm         =  8.299D-03 for orbital      7a         
          mo-orthogonalization: Cholesky decomposition

 ITERATION  ENERGY          1e-ENERGY        2e-ENERGY     RMS[dD(SAO)]   TOL
   6  -232.01459769380    -714.71684972     279.06835161    0.188D-03 0.111D-12
                            Exc = -34.4817950407     Coul =  313.550146654    
                              N = 41.999957733    
                            current damping = 0.150
 
          Norm of current diis error: 0.32360E-01
          max. resid. norm for Fia-block=  1.535D-03 for orbital      7a         
          max. resid. fock norm         =  2.724D-03 for orbital     65a         

 ITERATION  ENERGY          1e-ENERGY        2e-ENERGY     RMS[dD(SAO)]   TOL
   7  -232.01463337927    -714.63320346     278.98466967    0.580D-04 0.111D-12
                            Exc = -34.4789229058     Coul =  313.463592572    
                              N = 41.999958066    
                            current damping = 0.200
 
          Norm of current diis error: 0.19327E-01
          max. resid. norm for Fia-block=  5.747D-04 for orbital     12a         
          max. resid. fock norm         =  7.454D-04 for orbital     12a         

 ITERATION  ENERGY          1e-ENERGY        2e-ENERGY     RMS[dD(SAO)]   TOL
   8  -232.01464574927    -714.68437039     279.03582423    0.187D-04 0.111D-12
                            Exc = -34.4821702795     Coul =  313.517994511    
                              N = 41.999957980    
                            current damping = 0.250
 
          Norm of current diis error: 0.21955E-02
          max. resid. norm for Fia-block=  1.587D-04 for orbital     21a         
          max. resid. fock norm         =  3.533D-04 for orbital      4a         

 ITERATION  ENERGY          1e-ENERGY        2e-ENERGY     RMS[dD(SAO)]   TOL
   9  -232.01464535636    -714.68619883     279.03765306    0.576D-05 0.111D-12
                            Exc = -34.4822911301     Coul =  313.519944186    
                              N = 41.999957978    
                            current damping = 0.300
 
          Norm of current diis error: 0.37711E-02
          max. resid. norm for Fia-block=  7.309D-05 for orbital     21a         
          max. resid. fock norm         =  1.558D-04 for orbital      4a         

 ITERATION  ENERGY          1e-ENERGY        2e-ENERGY     RMS[dD(SAO)]   TOL
  10  -232.01464589318    -714.68603286     279.03748655    0.250D-05 0.111D-12
                            Exc = -34.4822848277     Coul =  313.519771381    
                              N = 41.999957979    
                            current damping = 0.350
 
          Norm of current diis error: 0.11784E-02
          max. resid. norm for Fia-block=  3.109D-05 for orbital     21a         
          max. resid. fock norm         =  6.654D-05 for orbital      4a         
          mo-orthogonalization: Cholesky decomposition

 ITERATION  ENERGY          1e-ENERGY        2e-ENERGY     RMS[dD(SAO)]   TOL
  11  -232.01464595055    -714.68583479     279.03728842    0.102D-05 0.111D-12
                            Exc = -34.4822781899     Coul =  313.519566614    
                              N = 41.999957980    
                            current damping = 0.200
 
          Norm of current diis error: 0.11581E-03
          max. resid. norm for Fia-block=  3.043D-06 for orbital     21a         
          max. resid. fock norm         =  7.122D-06 for orbital      2a         

 ITERATION  ENERGY          1e-ENERGY        2e-ENERGY     RMS[dD(SAO)]   TOL
  12  -232.01464595111    -714.68579323     279.03724686    0.114D-06 0.111D-12
                            Exc = -34.4822745654     Coul =  313.519521427    
                              N = 41.999957980    
                            current damping = 0.050
 
          Norm of current diis error: 0.59956E-05
          max. resid. norm for Fia-block=  3.799D-07 for orbital     14a         
          max. resid. fock norm         =  8.400D-07 for orbital      1a         

 ENERGY & DENSITY CONVERGED !

          Overall gridpoints after grid construction =        188568

 ITERATION  ENERGY          1e-ENERGY        2e-ENERGY     RMS[dD(SAO)]   TOL
  13  -232.01463738126    -714.68579203     279.03725423    0.129D-07 0.111D-12
                            Exc = -34.4822662731     Coul =  313.519520507    
                              N = 42.000005680    
                            current damping = 0.100
 
          Norm of current diis error: 0.96567E-05
          max. resid. norm for Fia-block=  2.114D-07 for orbital     21a         
          max. resid. fock norm         =  4.960D-07 for orbital      1a         

 End of SCF iterations

   convergence criteria satisfied after    13 iterations


                  ------------------------------------------ 
                 |  total energy      =   -232.01463738126  |
                  ------------------------------------------ 
                 :  kinetic energy    =    230.53499989723  :
                 :  potential energy  =   -462.54963727848  :
                 :  virial theorem    =      1.99362265458  :
                 :  wavefunction norm =      1.00000000000  :
                  .......................................... 


 <geterg> : there is no data group $energy 


 <skperg> : $end is missing 


 orbitals $scfmo  will be written to file mos

    irrep                 17a         18a         19a         20a         21a   
 eigenvalues H         -0.33109    -0.30033    -0.30030    -0.23039    -0.23028
            eV          -9.0095     -8.1724     -8.1716     -6.2693     -6.2663
 occupation              2.0000      2.0000      2.0000      2.0000      2.0000 

    irrep                 22a         23a         24a         25a         26a   
 eigenvalues H         -0.04032    -0.04025     0.02241     0.05563     0.05565
            eV          -1.0971     -1.0951      0.6098      1.5139      1.5145
 
 
 
 
 ==============================================================================
                           electrostatic moments
 ==============================================================================

 reference point for electrostatic moments:    0.00000   0.00000   0.00000

 
              nuc           elec       ->  total
 ------------------------------------------------------------------------------
                          charge      
 ------------------------------------------------------------------------------
          42.000000     -42.000000      -0.000000
 
 ------------------------------------------------------------------------------
                       dipole moment  
 ------------------------------------------------------------------------------
   x      49.920833     -49.922930      -0.002097
   y       5.607286      -5.607559      -0.000274
   z      -0.000000      -0.000000      -0.000000
 
   | dipole moment | =     0.0021 a.u. =     0.0054 debye 
 
 ------------------------------------------------------------------------------
                     quadrupole moment
 ------------------------------------------------------------------------------
  xx      68.314893     -97.325150     -29.010258
  yy     182.336415    -206.392794     -24.056379
  zz     190.677392    -214.466304     -23.788911
  xy     -33.715021      32.548006      -1.167015
  xz       0.000000      -0.000000      -0.000000
  yz      -0.000000      -0.000000      -0.000000
 
     1/3  trace=     -25.618516
     anisotropy=       5.479345
 
 ==============================================================================
 


    ------------------------------------------------------------------------
         total  cpu-time :  1 minutes and 31 seconds
         total wall-time :   8.28 seconds
    ------------------------------------------------------------------------

   ****  ridft : all done  ****


    2018-04-28 20:58:08.720 

