           Doing BLAS/Lapack in the master proc. with  8 CPUs.
           SMPCPUS    set: Shared-memory Parallelization with   8 CPUs.

           SMP Parallelization Reference:
           C. van Wullen, J. Comput. Chem. 32 (2011) 1195--1201
 operating system is UNIX !

 ridft (c-18-134.gp.local) : TURBOMOLE V7.2 ( 21454 ) 4 Oct 2017 at 12:48:15
 Copyright (C) 2017 TURBOMOLE GmbH, Karlsruhe


    2018-04-24 21:20:16.455 



                                  r i d f t

                        DFT program with RI approximation 
                                for coulomb part 




                                                 
                                 References:     
                                                 
          TURBOMOLE:                             
              R. Ahlrichs, M. Baer, M. Haeser, H. Horn, and
              C. Koelmel
              Electronic structure calculations on workstation
              computers: the program system TURBOMOLE
              Chem. Phys. Lett. 162: 165 (1989)
          Density Functional:                              
              O. Treutler and R. Ahlrichs                      
              Efficient Molecular Numerical Integration Schemes
              J. Chem. Phys. 102: 346 (1995)                   
          Parallel Version:                                
              Performance of parallel TURBOMOLE for Density    
              Functional Calculations                          
              M. v. Arnim and R. Ahlrichs                      
              J. Comp. Chem. 19: 1746 (1998)                   
          RI-J Method:                                     
              Auxiliary Basis Sets to approximate Coulomb      
              Potentials                                       
              Chem. Phys. Lett. 240: 283 (1995)                
              K. Eichkorn, O. Treutler, H. Oehm, M. Haeser     
              and R. Ahlrichs                                  
              Chem. Phys. Lett. 242: 652 (1995)                
                                                           
              Auxiliary Basis Sets for Main Row Atoms and their
              Use to approximate Coulomb Potentials            
              K. Eichkorn, F. Weigend, O. Treutler and         
              R. Ahlrichs                                      
              Theo. Chem. Acc. 97: 119 (1997)                   
                                                           
              Accurate Coulomb-fitting basis sets for H to Rn 
              F. Weigend                                        
              Phys. Chem. Chem. Phys. 8: 1057 (2006)            
                                                           
          Multipole accelerated RI-J (MARI-J):             
              Fast evaluation of the Coulomb potential for     
              electron densities using multipole accelerated   
              resolution of identity approximation             
              M. Sierka, A. Hogekamp and R. Ahlrichs           
              J. Chem. Phys. 118: 9136 (2003)                  
          RI-JK Method:                                     
              A fully direct RI-HF algorithm: Implementation,
              optimised auxiliary basis sets, demonstration of
              accuracy and efficiency                         
              F. Weigend                                      
              Phys. Chem. Chem. Phys. 4: 4285 (2002)           
          Two-component HF and DFT with spin-orbit coupling:  
              Self-consistent treatment of spin-orbit         
              interactions with efficient Hartree-Fock and    
              density functional methods                      
              M. K. Armbruster, F. Weigend, C. van Wüllen and 
              W. Klopper                                      
              Phys. Chem. Chem. Phys. 10: 1748 (2008)         
          Relativistic all-electron 2c calculations           
              An efficient implementation of two-component    
              relativistic exact-decoupling methods for large 
              molecules                                       
              D. Peng, N. Middendorf, F. Weigend, M. Reiher   
              J. Chem. Phys. 138, 184105 (2013)               
                                         




              +--------------------------------------------------+
              |      general information about current run       |
              +--------------------------------------------------+

 

 DENSITY CONVERGENCE CHECK SWITCHED ON !
 SCF CONVERGENCE IF RMS(delta[D]) <     0.1000000000E-06

 TPSS meta-GGA functional
 exchange:    LDA + TPSS
 correlation: LDA (PW) + TPSS
 A DFT calculation using the RI-J approximation will be carried out.
 Allocatable memory for RI due to $ricore (MB):                   500


              +--------------------------------------------------+
              | Atomic coordinate, charge and isotop information |
              +--------------------------------------------------+

                    atomic coordinates            atom    charge  isotop
          1.82184790    1.65368669    0.71434225    c      6.000     0
          3.13662339    3.21240370    0.84289774    h      1.000     0
          2.70430597   -0.78070905    0.22486138    c      6.000     0
          4.70451956   -1.10966451   -0.03214918    h      1.000     0
          1.00935500   -2.79233284    0.08015756    c      6.000     0
          1.69501119   -4.68158557   -0.28726103    h      1.000     0
         -1.56909029   -2.36896840    0.41735756    c      6.000     0
         -2.88326856   -3.92992049    0.31013532    h      1.000     0
         -2.45208435    0.06503041    0.90752704    c      6.000     0
         -4.44916378    0.39309349    1.18780806    h      1.000     0
         -0.75673155    2.07828152    1.06127278    c      6.000     0
         -1.43705195    3.95664962    1.48297577    h      1.000     0
         -0.22649344    1.00984960    8.23935934    c      6.000     0
         -1.11124355    2.99301631    7.52266108    o      8.000     0
          0.53546790   -0.83747725    6.65334005    o      8.000     0
          0.21666199   -0.22158983    4.94993098    h      1.000     0
          0.17026268    0.25965273   10.94432427    c      6.000     0
         -0.41548845    1.78907722   12.17262525    h      1.000     0
         -0.91837212   -1.43472103   11.35430246    h      1.000     0
          2.15163566   -0.18657225   11.25616420    h      1.000     0
 
       center of nuclear mass  :    0.00743792    0.15735220    3.92068363
       center of nuclear charge:    0.01896126    0.13214090    3.94838718

              +--------------------------------------------------+
              |               basis set information              |
              +--------------------------------------------------+

              we will work with the 1s 3p 5d 7f 9g ... basis set
              ...i.e. with spherical basis functions...

   type   atoms  prim   cont   basis
   ---------------------------------------------------------------------------
    c        8     77     55   cc-pVQZ   [5s4p3d2f1g|21s6p3d2f1g]
    h       10     32     30   cc-pVQZ   [4s3p2d1f|6s3p2d1f]
    o        2     77     55   cc-pVQZ   [5s4p3d2f1g|21s6p3d2f1g]
   ---------------------------------------------------------------------------
   total:   20   1090    850
   ---------------------------------------------------------------------------

   total number of primitive shells          :   78
   total number of contracted shells         :  250
   total number of cartesian basis functions : 1050
   total number of SCF-basis functions       :  850


 integral neglect threshold       :  0.32E-13
 integral storage threshold THIZE :  0.10E-04
 integral storage threshold THIME :         5

 RI-J AUXILIARY BASIS SET information:

              we will work with the 1s 3p 5d 7f 9g ... basis set
              ...i.e. with spherical basis functions...

   type   atoms  prim   cont   basis
   ---------------------------------------------------------------------------
    c        8     70     49   cc-pVQZ   [6s4p3d1f1g|12s5p4d2f1g]
    h       10     16     11   cc-pVQZ   [3s1p1d|5s2p1d]
    o        2     70     49   cc-pVQZ   [6s4p3d1f1g|12s5p4d2f1g]
   ---------------------------------------------------------------------------
   total:   20    860    600
   ---------------------------------------------------------------------------

   total number of primitive shells          :   56
   total number of contracted shells         :  200
   total number of cartesian basis functions :  730
   total number of SCF-basis functions       :  600


 symmetry group of the molecule :   c1 

 the group has the following generators :
   c1(z)

    1 symmetry operations found

 there are 1 real representations :   a   

 maximum number of shells which are related by symmetry :  1


    mo occupation :
   irrep   mo's   occupied
    a      850       37
 
 number of basis functions   :                    850
 number of occupied orbitals :                     37
 
  
           ------------------
           density functional
           ------------------
 TPSS meta-GGA functional
 exchange:    LDA + TPSS
 correlation: LDA (PW) + TPSS

 iterations will be done with small grid
  
 spherical integration : Lebedev's spherical grid
 spherical gridsize    :                     5
    i.e. gridpoints    :                   590
 value for diffuse not defined
 radial integration    : Chebyshev 2nd kind (scaling 3)
 radial gridsize       :                     8
 integration cells     :                    20
 partition function    : becke
 partition sharpness   :                     3
  

 biggest AO integral is expected to be     4.785886462
  
           ------------------------
               RI-J - INFORMATION
           ------------------------
 Contributions to RI integral batches: 
  neglected integral batches:                  8699
  direct contribution:                        14162
  memory contribution:                  8514
 Memory core needed for (P|Q) and Cholesky      3 MByte
 Memory core minimum needed except of (P|Q)     1 MByte
 Total minimum memory core needed (sum)         4 MByte
  
 ****************************************
 Memory allocated for RI-J   401 MByte
 ****************************************
                                            

          ------------------------
          nuclear repulsion energy  :   488.722042919    
          ------------------------


         -----------------
         -S,T+V- integrals
         -----------------

 1e-integrals will be neglected if expon. factor < 0.318282E-14
 Difference densities >>NOT<< switched on in parallel ridft!

 DIIS switched on: error vector is FDS-SDF
 Max. Iterations for DIIS is     :   4
 DIIS matrix (see manual) 
    Scaling factor of diagonals  :  1.200
    threshold for scaling factor :  0.000

 scf convergence criterion : increment of total energy < .1000000D-08
                  and increment of one-electron energy < .1000000D-05

  MOs are in ASCII format !


 automatic virtual orbital shift switched on 
      shift if e(lumo)-e(homo) < 0.10000000    


 reading orbital data $scfmo  from file mos
 orbital characterization : expanded
 mo provided and orthogonalized by Cholesky decomposition

 DSCF restart information will be dumped onto file mos


 Starting SCF iterations

          Overall gridpoints after grid construction =         96529

 ITERATION  ENERGY          1e-ENERGY        2e-ENERGY     RMS[dD(SAO)]   TOL
   1  -459.77669817688    -1580.6112390     632.11249794    0.000D+00 0.317D-13
                            Exc = -63.3439947698     Coul =  695.456492705    
                              N = 73.999946041    
                            current damping = 0.700
 
          max. resid. norm for Fia-block=  3.921D-01 for orbital     26a         
          max. resid. fock norm         =  1.133D+01 for orbital    765a         

 ITERATION  ENERGY          1e-ENERGY        2e-ENERGY     RMS[dD(SAO)]   TOL
   2  -461.29118617083    -1589.9256172     639.91238816    0.344D-02 0.317D-13
                            Exc = -63.9200684783     Coul =  703.832456637    
                              N = 73.999956280    
                            current damping = 0.650
 
          Norm of current diis error:  3.5961    
          max. resid. norm for Fia-block=  1.690D-01 for orbital      2a         
          max. resid. fock norm         =  3.034D-01 for orbital    443a         

 ITERATION  ENERGY          1e-ENERGY        2e-ENERGY     RMS[dD(SAO)]   TOL
   3  -461.52588398528    -1593.1093766     642.86144966    0.180D-02 0.317D-13
                            Exc = -64.3282911438     Coul =  707.189740807    
                              N = 73.999962586    
                            current damping = 0.550
 
          Norm of current diis error:  1.7369    
          max. resid. norm for Fia-block=  6.436D-02 for orbital      2a         
          max. resid. fock norm         =  6.772D-02 for orbital      2a         

 ITERATION  ENERGY          1e-ENERGY        2e-ENERGY     RMS[dD(SAO)]   TOL
   4  -461.59993764132    -1593.6910069     643.36902635    0.105D-02 0.317D-13
                            Exc = -64.3575800975     Coul =  707.726606447    
                              N = 73.999969650    
                            current damping = 0.450
 
          Norm of current diis error: 0.67651    
          max. resid. norm for Fia-block=  3.652D-02 for orbital     12a         
          max. resid. fock norm         =  7.734D-02 for orbital    769a         

 ITERATION  ENERGY          1e-ENERGY        2e-ENERGY     RMS[dD(SAO)]   TOL
   5  -461.60847032860    -1594.9181590     644.58764575    0.376D-03 0.317D-13
                            Exc = -64.5174912251     Coul =  709.105136979    
                              N = 73.999971724    
                            current damping = 0.350
 
          Norm of current diis error: 0.43006    
          max. resid. norm for Fia-block=  1.710D-02 for orbital     37a         
          max. resid. fock norm         =  2.139D-02 for orbital     34a         
          mo-orthogonalization: Cholesky decomposition

 ITERATION  ENERGY          1e-ENERGY        2e-ENERGY     RMS[dD(SAO)]   TOL
   6  -461.61318323602    -1594.8598794     644.52465324    0.293D-03 0.317D-13
                            Exc = -64.5003676055     Coul =  709.025020850    
                              N = 73.999974553    
                            current damping = 0.400
 
          Norm of current diis error: 0.19761    
          max. resid. norm for Fia-block=  8.062D-03 for orbital     34a         
          max. resid. fock norm         =  1.461D-02 for orbital    815a         

 ITERATION  ENERGY          1e-ENERGY        2e-ENERGY     RMS[dD(SAO)]   TOL
   7  -461.61409152817    -1594.7249376     644.38880320    0.756D-04 0.317D-13
                            Exc = -64.4894766881     Coul =  708.878279888    
                              N = 73.999974732    
                            current damping = 0.250
 
          Norm of current diis error: 0.79927E-01
          max. resid. norm for Fia-block=  2.715D-03 for orbital     19a         
          max. resid. fock norm         =  5.034D-03 for orbital    811a         

 ITERATION  ENERGY          1e-ENERGY        2e-ENERGY     RMS[dD(SAO)]   TOL
   8  -461.61423280161    -1594.8425387     644.50626296    0.233D-04 0.317D-13
                            Exc = -64.5032648594     Coul =  709.009527822    
                              N = 73.999974869    
                            current damping = 0.300
 
          Norm of current diis error: 0.20375E-01
          max. resid. norm for Fia-block=  5.549D-04 for orbital     35a         
          max. resid. fock norm         =  1.225D-03 for orbital    843a         

 ITERATION  ENERGY          1e-ENERGY        2e-ENERGY     RMS[dD(SAO)]   TOL
   9  -461.61423722057    -1594.8609914     644.52471126    0.870D-05 0.317D-13
                            Exc = -64.5044608912     Coul =  709.029172153    
                              N = 73.999974878    
                            current damping = 0.150
 
          Norm of current diis error: 0.14787E-01
          max. resid. norm for Fia-block=  3.419D-04 for orbital     35a         
          max. resid. fock norm         =  7.617D-04 for orbital    843a         

 ITERATION  ENERGY          1e-ENERGY        2e-ENERGY     RMS[dD(SAO)]   TOL
  10  -461.61424121274    -1594.8416892     644.50540511    0.685D-05 0.317D-13
                            Exc = -64.5025046213     Coul =  709.007909734    
                              N = 73.999974934    
                            current damping = 0.200
 
          Norm of current diis error: 0.77267E-02
          max. resid. norm for Fia-block=  1.471D-04 for orbital     23a         
          max. resid. fock norm         =  2.515D-04 for orbital     21a         
          mo-orthogonalization: Cholesky decomposition

 ITERATION  ENERGY          1e-ENERGY        2e-ENERGY     RMS[dD(SAO)]   TOL
  11  -461.61424256005    -1594.8404016     644.50411617    0.188D-05 0.317D-13
                            Exc = -64.5026876797     Coul =  709.006803848    
                              N = 73.999974922    
                            current damping = 0.050
 
          Norm of current diis error: 0.20384E-02
          max. resid. norm for Fia-block=  8.796D-05 for orbital     34a         
          max. resid. fock norm         =  1.355D-04 for orbital    796a         

 ITERATION  ENERGY          1e-ENERGY        2e-ENERGY     RMS[dD(SAO)]   TOL
  12  -461.61424257616    -1594.8445160     644.50823051    0.923D-06 0.317D-13
                            Exc = -64.5029500656     Coul =  709.011180571    
                              N = 73.999974927    
                            current damping = 0.100
 
          Norm of current diis error: 0.17990E-02
          max. resid. norm for Fia-block=  6.068D-05 for orbital     34a         
          max. resid. fock norm         =  9.519D-05 for orbital    796a         

 ITERATION  ENERGY          1e-ENERGY        2e-ENERGY     RMS[dD(SAO)]   TOL
  13  -461.61424265034    -1594.8440371     644.50775150    0.651D-06 0.317D-13
                            Exc = -64.5029556333     Coul =  709.010707138    
                              N = 73.999974924    
                            current damping = 0.150
 
          Norm of current diis error: 0.61642E-03
          max. resid. norm for Fia-block=  2.443D-05 for orbital     37a         
          max. resid. fock norm         =  3.896D-05 for orbital    765a         

 ITERATION  ENERGY          1e-ENERGY        2e-ENERGY     RMS[dD(SAO)]   TOL
  14  -461.61424265930    -1594.8429353     644.50664971    0.383D-06 0.317D-13
                            Exc = -64.5028333614     Coul =  709.009483072    
                              N = 73.999974926    
                            current damping = 0.050
 
          Norm of current diis error: 0.29550E-03
          max. resid. norm for Fia-block=  6.673D-06 for orbital     37a         
          max. resid. fock norm         =  1.308D-05 for orbital    843a         

 ITERATION  ENERGY          1e-ENERGY        2e-ENERGY     RMS[dD(SAO)]   TOL
  15  -461.61424266080    -1594.8431645     644.50687891    0.110D-06 0.317D-13
                            Exc = -64.5028760943     Coul =  709.009755000    
                              N = 73.999974926    
                            current damping = 0.100
 
          Norm of current diis error: 0.18836E-03
          max. resid. norm for Fia-block=  3.399D-06 for orbital     35a         
          max. resid. fock norm         =  7.581D-06 for orbital    843a         
          mo-orthogonalization: Cholesky decomposition

 DENSITY CONVERGED !


 ITERATION  ENERGY          1e-ENERGY        2e-ENERGY     RMS[dD(SAO)]   TOL
  16  -461.61424266154    -1594.8433078     644.50702224    0.569D-07 0.317D-13
                            Exc = -64.5028795782     Coul =  709.009901816    
                              N = 73.999974925    
                            current damping = 0.050
 
          Norm of current diis error: 0.56020E-04
          max. resid. norm for Fia-block=  1.614D-06 for orbital     37a         
          max. resid. fock norm         =  3.103D-06 for orbital      6a         

 DENSITY CONVERGED !


 ITERATION  ENERGY          1e-ENERGY        2e-ENERGY     RMS[dD(SAO)]   TOL
  17  -461.61424266156    -1594.8432012     644.50691560    0.308D-07 0.317D-13
                            Exc = -64.5028687377     Coul =  709.009784334    
                              N = 73.999974926    
                            current damping = 0.100
 
          Norm of current diis error: 0.52114E-04
          max. resid. norm for Fia-block=  8.209D-07 for orbital     24a         
          max. resid. fock norm         =  1.522D-06 for orbital      6a         

 DENSITY CONVERGED !


 ITERATION  ENERGY          1e-ENERGY        2e-ENERGY     RMS[dD(SAO)]   TOL
  18  -461.61424266161    -1594.8432212     644.50693558    0.124D-07 0.317D-13
                            Exc = -64.5028725374     Coul =  709.009808115    
                              N = 73.999974926    
                            current damping = 0.150
 
          Norm of current diis error: 0.71858E-05
          max. resid. norm for Fia-block=  2.046D-07 for orbital     21a         
          max. resid. fock norm         =  3.311D-07 for orbital    674a         

 ENERGY & DENSITY CONVERGED !

          Overall gridpoints after grid construction =        311916

 ITERATION  ENERGY          1e-ENERGY        2e-ENERGY     RMS[dD(SAO)]   TOL
  19  -461.61409636278    -1594.8432432     644.50710389    0.333D-08 0.317D-13
                            Exc = -64.5027276109     Coul =  709.009831504    
                              N = 73.999995892    
                            current damping = 0.050
 
          Norm of current diis error: 0.36768E-05
          max. resid. norm for Fia-block=  8.459D-08 for orbital     37a         
          max. resid. fock norm         =  1.271D-07 for orbital    843a         

 End of SCF iterations

   convergence criteria satisfied after    19 iterations


                  ------------------------------------------ 
                 |  total energy      =   -461.61409636278  |
                  ------------------------------------------ 
                 :  kinetic energy    =    459.76705524342  :
                 :  potential energy  =   -921.38115160621  :
                 :  virial theorem    =      1.99599873328  :
                 :  wavefunction norm =      1.00000000000  :
                  .......................................... 


 <geterg> : there is no data group $energy 


 <skperg> : $end is missing 


 orbitals $scfmo  will be written to file mos

    irrep                 33a         34a         35a         36a         37a   
 eigenvalues H         -0.31370    -0.27613    -0.24146    -0.24045    -0.22743
            eV          -8.5362     -7.5138     -6.5706     -6.5429     -6.1886
 occupation              2.0000      2.0000      2.0000      2.0000      2.0000 

    irrep                 38a         39a         40a         41a         42a   
 eigenvalues H         -0.04489    -0.04416    -0.02083     0.01369     0.02689
            eV          -1.2216     -1.2016     -0.5669      0.3726      0.7317
 
 
 
 
 ==============================================================================
                           electrostatic moments
 ==============================================================================

 reference point for electrostatic moments:    0.00000   0.00000   0.00000

 
              nuc           elec       ->  total
 ------------------------------------------------------------------------------
                          charge      
 ------------------------------------------------------------------------------
          74.000000     -74.000000       0.000000
 
 ------------------------------------------------------------------------------
                       dipole moment  
 ------------------------------------------------------------------------------
   x       1.403133      -1.158129       0.245004
   y       9.778427     -10.356392      -0.577965
   z     292.180652    -292.275503      -0.094851
 
   | dipole moment | =     0.6349 a.u. =     1.6137 debye 
 
 ------------------------------------------------------------------------------
                     quadrupole moment
 ------------------------------------------------------------------------------
  xx     207.555957    -248.921868     -41.365911
  yy     280.325375    -325.376154     -45.050779
  zz    2381.795113   -2424.307589     -42.512477
  xy     -29.953087      31.817953       1.864867
  xz     -45.046454      46.473127       1.426673
  yz     226.362494    -229.903699      -3.541205
 
     1/3  trace=     -42.976389
     anisotropy=       8.051565
 
 ==============================================================================
 


    ------------------------------------------------------------------------
         total  cpu-time : 19 minutes and 23 seconds
         total wall-time :  2 minutes and 39 seconds
    ------------------------------------------------------------------------

   ****  ridft : all done  ****


    2018-04-24 21:22:55.898 

