
   OpenMP run-time library returned nthreads = 28
 operating system is UNIX !

 dscf (c-16-38) : TURBOMOLE V7.3 ( 22142 ) 4 Jul 2018 at 18:12:42
 Copyright (C) 2018 TURBOMOLE GmbH, Karlsruhe


    2019-04-01 23:16:25.984 



                             d s c f - program

                   idea & directorship : reinhart ahlrichs
                   program development : marco haeser
                                         michael baer
                           dft version : oliver treutler


                          quantum chemistry group
                          universitaet  karlsruhe
                                  germany




                          References             
                                                 
          TURBOMOLE:                             
              R. Ahlrichs, M. Baer, M. Haeser, H. Horn, and
              C. Koelmel
              Electronic structure calculations on workstation
              computers: the program system TURBOMOLE
              Chem. Phys. Lett. 162: 165 (1989)
          Density Functional:                              
              O. Treutler and R. Ahlrichs                      
              Efficient Molecular Numerical Integration Schemes
              J. Chem. Phys. 102: 346 (1995)                   
          Parallel Version:                                
              Performance of parallel TURBOMOLE for Density    
              Functional Calculations                          
              M. v. Arnim and R. Ahlrichs                      
              J. Comp. Chem. 19: 1746 (1998)                   
                                         




              +--------------------------------------------------+
              | Atomic coordinate, charge and isotop information |
              +--------------------------------------------------+

                    atomic coordinates            atom    charge  isotop
          2.59306506    1.91330493    1.83459277    c      6.000     0
          1.79935231    3.80600206    1.95230866    h      1.000     0
          3.68009367    1.75086073    0.09584267    h      1.000     0
          3.87715505    1.60971628    3.40708639    h      1.000     0
          0.61744356   -0.14673208    1.86742503    c      6.000     0
          1.16940274   -2.36684665    2.21340080    o      8.000     0
         -1.79529433    0.65174159    1.46248724    n      7.000     0
         -2.08752672    2.49826613    1.14538599    h      1.000     0
         -3.89256069   -1.09106919    1.28530382    c      6.000     0
         -3.15462569   -2.96081536    1.69543253    h      1.000     0
         -5.35660212   -0.62621806    2.65253562    h      1.000     0
         -4.70725206   -1.09400938   -0.60459758    h      1.000     0
          5.02792916    0.87446206    9.17149562    c      0.000     0
          5.24872340    2.30010149    7.69988117    h      0.000     0
          4.86520414    1.86635346   10.96986494    h      0.000     0
          6.75153219   -0.24849240    9.22215541    h      0.000     0
          2.70683103   -0.75710388    8.68479372    c      0.000     0
          2.52812086   -2.16580779   10.18344261    h      0.000     0
          2.92683320   -1.80299988    6.92008469    h      0.000     0
          0.28318575    0.78985229    8.56139205    c      0.000     0
          0.07234840    1.88161300   10.30576734    h      0.000     0
          0.43291659    2.17467177    7.03137028    h      0.000     0
         -2.06830685   -0.81704842    8.15154844    c      0.000     0
         -2.23989769   -2.16723221    9.70380204    h      0.000     0
         -1.82678661   -1.92997944    6.43149241    h      0.000     0
         -4.46228466    0.77087239    7.98125629    c      0.000     0
         -4.33583697    2.10700511    6.41699914    h      0.000     0
         -6.13533898   -0.39323196    7.69055423    h      0.000     0
         -4.74641640    1.85975355    9.70699122    h      0.000     0
 
       center of nuclear mass  :    0.00556987   -0.01205370    5.09757071
       center of nuclear charge:   -0.33133891   -0.13339394    1.70531353

              +--------------------------------------------------+
              |               basis set information              |
              +--------------------------------------------------+

              we will work with the 1s 3p 5d 7f 9g ... basis set
              ...i.e. with spherical basis functions...

   type   atoms  prim   cont   basis
   ---------------------------------------------------------------------------
    c        8     77     55   cc-pVQZ   [5s4p3d2f1g|21s6p3d2f1g]
    h       19     32     30   cc-pVQZ   [4s3p2d1f|6s3p2d1f]
    o        1     77     55   cc-pVQZ   [5s4p3d2f1g|21s6p3d2f1g]
    n        1     77     55   cc-pVQZ   [5s4p3d2f1g|21s6p3d2f1g]
   ---------------------------------------------------------------------------
   total:   29   1378   1120
   ---------------------------------------------------------------------------

   total number of primitive shells          :  111
   total number of contracted shells         :  340
   total number of cartesian basis functions : 1365
   total number of SCF-basis functions       : 1120


 integral neglect threshold       :  0.24E-13
 integral storage threshold THIZE :  0.10E-04
 integral storage threshold THIME :         5


 DENSITY CONVERGENCE CHECK SWITCHED ON !
 SCF CONVERGENCE IF RMS(delta[D]) <     0.1000000000E-06


 symmetry group of the molecule :   c1 

 the group has the following generators :
   c1(z)

    1 symmetry operations found

 there are 1 real representations :   a   

 maximum number of shells which are related by symmetry :  1


    mo occupation :
   irrep   mo's   occupied
    a     1120       20
 
 number of basis functions   :                   1120
 number of occupied orbitals :                     20
 

 automatic virtual orbital shift switched on 
      shift if e(lumo)-e(homo) < 0.10000000    


          ------------------------
          nuclear repulsion energy  :   180.490449900    
          ------------------------


         -----------------
         -S,T+V- integrals
         -----------------

 1e-integrals will be neglected if expon. factor < 0.244832E-14
 
   Difference densities algorithm switched on.
   The maximal number of linear combinations of
   difference densities is                    20 .

 DIIS switched on: error vector is FDS-SDF
 Max. Iterations for DIIS is     :   5
 DIIS matrix (see manual) 
    Scaling factor of diagonals  :  1.200
    threshold for scaling factor :  0.000

 scf convergence criterion : increment of total energy < .1000000D-08
                  and increment of one-electron energy < .1000000D-05

  MOs are in ASCII format !


 reading orbital data $scfmo  from file mos
 orbital characterization : scfconv=9

 DSCF restart information will be dumped onto file mos

 
                                              current damping :  0.700
 ITERATION  ENERGY          1e-ENERGY        2e-ENERGY     RMS[dD(SAO)]   TOL
   1  -247.05869771667    -694.09723477     266.54808715    0.000D+00 0.244D-13
          max. resid. norm for Fia-block=  1.166D-01 for orbital      1a         
          max. resid. fock norm         =  3.896D-01 for orbital   1081a         
          Delta Eig. =    29.7839910440 eV 
 
                                              current damping :  0.650
 ITERATION  ENERGY          1e-ENERGY        2e-ENERGY     RMS[dD(SAO)]   TOL
   2  -247.10525301526    -693.51396945     265.91826654    0.488D-03 0.159D-13
          Norm of current diis error: 0.61032    
          max. resid. norm for Fia-block=  5.211D-02 for orbital      1a         
          max. resid. fock norm         =  1.590D-01 for orbital   1038a         
          Delta Eig. =    13.0101452370 eV 
 
                                              current damping :  0.600
 ITERATION  ENERGY          1e-ENERGY        2e-ENERGY     RMS[dD(SAO)]   TOL
   3  -247.11476428266    -693.59721293     265.99199875    0.227D-03 0.120D-13
          Norm of current diis error: 0.27324    
          max. resid. norm for Fia-block=  2.422D-02 for orbital      1a         
          max. resid. fock norm         =  5.755D-02 for orbital   1031a         
          Delta Eig. =     5.5707968915 eV 
 
                                              current damping :  0.650
 ITERATION  ENERGY          1e-ENERGY        2e-ENERGY     RMS[dD(SAO)]   TOL
   4  -247.11698182953    -693.59230324     265.98487151    0.111D-03 0.105D-13
          Norm of current diis error: 0.11515    
          max. resid. norm for Fia-block=  8.210D-03 for orbital      1a         
          max. resid. fock norm         =  2.433D-02 for orbital   1080a         
          Delta Eig. =     2.0284533431 eV 
 
                                              current damping :  0.500
 ITERATION  ENERGY          1e-ENERGY        2e-ENERGY     RMS[dD(SAO)]   TOL
   5  -247.11739029872    -693.57551556     265.96767536    0.404D-04 0.973D-14
          Norm of current diis error: 0.50183E-01
          max. resid. norm for Fia-block=  3.456D-03 for orbital     13a         
          max. resid. fock norm         =  8.908D-03 for orbital   1035a         
 mo-orthogonalization: Cholesky decomposition
          Delta Eig. =     0.8161240724 eV 
 
                                              current damping :  0.350
 ITERATION  ENERGY          1e-ENERGY        2e-ENERGY     RMS[dD(SAO)]   TOL
   6  -247.11748264367    -693.57368220     265.96574966    0.206D-04 0.915D-14
          Norm of current diis error: 0.20146E-01
          max. resid. norm for Fia-block=  1.530D-03 for orbital     13a         
          max. resid. fock norm         =  3.302D-03 for orbital   1036a         
          Delta Eig. =     0.3092575594 eV 
 
                                              current damping :  0.200
 ITERATION  ENERGY          1e-ENERGY        2e-ENERGY     RMS[dD(SAO)]   TOL
   7  -247.11750085507    -693.57262284     265.96467208    0.871D-05 0.859D-14
          Norm of current diis error: 0.73079E-02
          max. resid. norm for Fia-block=  6.137D-04 for orbital     13a         
          max. resid. fock norm         =  7.671D-04 for orbital   1047a         
          Delta Eig. =     0.0869213656 eV 
 
                                              current damping :  0.050
 ITERATION  ENERGY          1e-ENERGY        2e-ENERGY     RMS[dD(SAO)]   TOL
   8  -247.11750391127    -693.57236727     265.96441346    0.341D-05 0.807D-14
          Norm of current diis error: 0.24121E-02
          max. resid. norm for Fia-block=  2.201D-04 for orbital     13a         
          max. resid. fock norm         =  2.235D-04 for orbital     13a         
          Delta Eig. =     0.0195773881 eV 
 
                                              current damping :  0.050
 ITERATION  ENERGY          1e-ENERGY        2e-ENERGY     RMS[dD(SAO)]   TOL
   9  -247.11750433733    -693.57230697     265.96435274    0.116D-05 0.760D-14
          Norm of current diis error: 0.74941E-03
          max. resid. norm for Fia-block=  7.130D-05 for orbital     19a         
          max. resid. fock norm         =  8.074D-05 for orbital     19a         
          Delta Eig. =     0.0042727444 eV 
 
                                              current damping :  0.100
 ITERATION  ENERGY          1e-ENERGY        2e-ENERGY     RMS[dD(SAO)]   TOL
  10  -247.11750437567    -693.57233939     265.96438512    0.343D-06 0.728D-14
          Norm of current diis error: 0.29384E-03
          max. resid. norm for Fia-block=  3.364D-05 for orbital     20a         
          max. resid. fock norm         =  4.007D-05 for orbital     20a         
 mo-orthogonalization: Cholesky decomposition
          Delta Eig. =     0.0023141616 eV 
 
                                              current damping :  0.150
 ITERATION  ENERGY          1e-ENERGY        2e-ENERGY     RMS[dD(SAO)]   TOL
  11  -247.11750438011    -693.57232229     265.96436800    0.101D-06 0.710D-14
          Norm of current diis error: 0.14890E-03
          max. resid. norm for Fia-block=  1.121D-05 for orbital     19a         
          max. resid. fock norm         =  1.446D-05 for orbital   1009a         
          Delta Eig. =     0.0008452997 eV 

 DENSITY CONVERGED !

 
                                              current damping :  0.200
 ITERATION  ENERGY          1e-ENERGY        2e-ENERGY     RMS[dD(SAO)]   TOL
  12  -247.11750438110    -693.57233103     265.96437675    0.517D-07 0.696D-14
          Norm of current diis error: 0.40761E-04
          max. resid. norm for Fia-block=  5.624D-06 for orbital     20a         
          max. resid. fock norm         =  5.691D-06 for orbital     20a         
          Delta Eig. =     0.0000771184 eV 

 ENERGY & DENSITY CONVERGED !

 
                                              current damping :  0.250
 ITERATION  ENERGY          1e-ENERGY        2e-ENERGY     RMS[dD(SAO)]   TOL
  13  -247.11750438122    -693.57232899     265.96437471    0.214D-07 0.697D-14
          max. resid. norm for Fia-block=  1.446D-06 for orbital     20a         
          max. resid. fock norm         =  1.462D-06 for orbital     20a         

 convergence criteria satisfied after    13 iterations


                  ------------------------------------------ 
                 |  total energy      =   -247.11750438122  |
                  ------------------------------------------ 
                 :  kinetic energy    =    246.85578906070  :
                 :  potential energy  =   -493.97329344192  :
                 :  virial theorem    =      1.99894092763  :
                 :  wavefunction norm =      1.00000000000  :
                  .......................................... 


 orbitals $scfmo  will be written to file mos

    irrep                 16a         17a         18a         19a         20a   
 eigenvalues H         -0.55475    -0.54361    -0.50437    -0.42015    -0.39130
            eV         -15.0958    -14.7925    -13.7248    -11.4330    -10.6478
 occupation              2.0000      2.0000      2.0000      2.0000      2.0000 

    irrep                 21a         22a         23a         24a         25a   
 eigenvalues H          0.05345     0.07911     0.09998     0.11712     0.12645
            eV           1.4545      2.1526      2.7206      3.1871      3.4410
 
 
 
 
 ==============================================================================
                           electrostatic moments
 ==============================================================================

 reference point for electrostatic moments:    0.00000   0.00000   0.00000

 
              nuc           elec       ->  total
 ------------------------------------------------------------------------------
                          charge      
 ------------------------------------------------------------------------------
          40.000000     -40.000000       0.000000
 
 ------------------------------------------------------------------------------
                       dipole moment  
 ------------------------------------------------------------------------------
   x     -13.253556      12.590421      -0.663135
   y      -5.335758       6.778537       1.442779
   z      68.212541     -68.539240      -0.326699
 
   | dipole moment | =     1.6211 a.u. =     4.1205 debye 
 
 ------------------------------------------------------------------------------
                     quadrupole moment
 ------------------------------------------------------------------------------
  xx     264.019033    -284.755461     -20.736428
  yy     113.764381    -138.200008     -24.435627
  zz     132.212121    -156.549645     -24.337525
  xy      56.535855     -54.530299       2.005555
  xz       5.743779      -6.764157      -1.020378
  yz     -14.310756      17.227352       2.916595
 
     1/3  trace=     -23.169860
     anisotropy=       7.351235
 
 ==============================================================================
 


    ------------------------------------------------------------------------
         total  cpu-time :  9 hours 56 minutes and 10 seconds
         total wall-time : 26 minutes and  0 seconds
    ------------------------------------------------------------------------

   ****  dscf : all done  ****


    2019-04-01 23:42:26.284 

