
   OpenMP run-time library returned nthreads =  8
 operating system is UNIX !

 dscf (c-7-23) : TURBOMOLE V7.3 ( 22142 ) 4 Jul 2018 at 18:12:42
 Copyright (C) 2018 TURBOMOLE GmbH, Karlsruhe


    2019-04-02 13:10:56.928 



                             d s c f - program

                   idea & directorship : reinhart ahlrichs
                   program development : marco haeser
                                         michael baer
                           dft version : oliver treutler


                          quantum chemistry group
                          universitaet  karlsruhe
                                  germany




                          References             
                                                 
          TURBOMOLE:                             
              R. Ahlrichs, M. Baer, M. Haeser, H. Horn, and
              C. Koelmel
              Electronic structure calculations on workstation
              computers: the program system TURBOMOLE
              Chem. Phys. Lett. 162: 165 (1989)
          Density Functional:                              
              O. Treutler and R. Ahlrichs                      
              Efficient Molecular Numerical Integration Schemes
              J. Chem. Phys. 102: 346 (1995)                   
          Parallel Version:                                
              Performance of parallel TURBOMOLE for Density    
              Functional Calculations                          
              M. v. Arnim and R. Ahlrichs                      
              J. Comp. Chem. 19: 1746 (1998)                   
                                         




              +--------------------------------------------------+
              | Atomic coordinate, charge and isotop information |
              +--------------------------------------------------+

                    atomic coordinates            atom    charge  isotop
         -0.99272944   -0.09632139   -0.59435073    o      8.000     0
         -1.78013455    1.41332926    0.02126474    h      1.000     0
          0.76287587    0.11297913   -0.13902407    h      1.000     0
 
       center of nuclear mass  :   -0.93855801   -0.00014495   -0.53443082
       center of nuclear charge:   -0.89590942    0.07557373   -0.48725652

              +--------------------------------------------------+
              |               basis set information              |
              +--------------------------------------------------+

              we will work with the 1s 3p 5d 7f 9g ... basis set
              ...i.e. with spherical basis functions...

   type   atoms  prim   cont   basis
   ---------------------------------------------------------------------------
    o        1     50     30   cc-pVTZ   [4s3p2d1f|18s5p2d1f]
    h        2     16     14   cc-pVTZ   [3s2p1d|5s2p1d]
   ---------------------------------------------------------------------------
   total:    3     82     58
   ---------------------------------------------------------------------------

   total number of primitive shells          :   34
   total number of contracted shells         :   22
   total number of cartesian basis functions :   65
   total number of SCF-basis functions       :   58


 integral neglect threshold       :  0.51E-12
 integral storage threshold THIZE :  0.10E-04
 integral storage threshold THIME :         5


 DENSITY CONVERGENCE CHECK SWITCHED ON !
 SCF CONVERGENCE IF RMS(delta[D]) <     0.1000000000E-06


 symmetry group of the molecule :   c1 

 the group has the following generators :
   c1(z)

    1 symmetry operations found

 there are 1 real representations :   a   

 maximum number of shells which are related by symmetry :  1


    mo occupation :
   irrep   mo's   occupied
    a       58        5
 
 number of basis functions   :                     58
 number of occupied orbitals :                      5
 

 automatic virtual orbital shift switched on 
      shift if e(lumo)-e(homo) < 0.10000000    


          ------------------------
          nuclear repulsion energy  :   9.14996829977    
          ------------------------


         -----------------
         -S,T+V- integrals
         -----------------

 1e-integrals will be neglected if expon. factor < 0.514148E-13
 
   Difference densities algorithm switched on.
   The maximal number of linear combinations of
   difference densities is                    20 .

 DIIS switched on: error vector is FDS-SDF
 Max. Iterations for DIIS is     :   5
 DIIS matrix (see manual) 
    Scaling factor of diagonals  :  1.200
    threshold for scaling factor :  0.000

 scf convergence criterion : increment of total energy < .1000000D-08
                  and increment of one-electron energy < .1000000D-05

  MOs are in ASCII format !


 reading orbital data $scfmo  from file mos
 orbital characterization : scfconv=9

 DSCF restart information will be dumped onto file mos

 
                                              current damping :  0.700
 ITERATION  ENERGY          1e-ENERGY        2e-ENERGY     RMS[dD(SAO)]   TOL
   1  -76.056716511362    -123.03731773     37.830632919    0.000D+00 0.513D-12
          max. resid. norm for Fia-block=  6.674D-07 for orbital      3a         
          max. resid. fock norm         =  6.675D-07 for orbital      3a         
          Delta Eig. =     0.0000000003 eV 
 
                                              current damping :  0.700
 ITERATION  ENERGY          1e-ENERGY        2e-ENERGY     RMS[dD(SAO)]   TOL
   2  -76.056716511363    -123.03731776     37.830632948    0.147D-07 0.325D-12
          Norm of current diis error: 0.25818E-05
          max. resid. norm for Fia-block=  5.745D-07 for orbital      3a         
          max. resid. fock norm         =  5.746D-07 for orbital      3a         
          Delta Eig. =     0.0000019550 eV 

 ENERGY & DENSITY CONVERGED !

 
                                              current damping :  0.750
 ITERATION  ENERGY          1e-ENERGY        2e-ENERGY     RMS[dD(SAO)]   TOL
   3  -76.056716511364    -123.03731771     37.830632903    0.126D-07 0.224D-12
          max. resid. norm for Fia-block=  2.584D-07 for orbital      3a         
          max. resid. fock norm         =  2.584D-07 for orbital      3a         

 convergence criteria satisfied after     3 iterations


                  ------------------------------------------ 
                 |  total energy      =    -76.05671651136  |
                  ------------------------------------------ 
                 :  kinetic energy    =     75.98795791094  :
                 :  potential energy  =   -152.04467442231  :
                 :  virial theorem    =      1.99909595623  :
                 :  wavefunction norm =      1.00000000000  :
                  .......................................... 


 orbitals $scfmo  will be written to file mos

    irrep                  1a          2a          3a          4a          5a   
 eigenvalues H        -20.55597    -1.34374    -0.70569    -0.57829    -0.50434
            eV        -559.3609    -36.5653    -19.2030    -15.7361    -13.7238
 occupation              2.0000      2.0000      2.0000      2.0000      2.0000 

    irrep                  6a          7a          8a          9a         10a   
 eigenvalues H          0.14161     0.20376     0.54085     0.60218     0.66860
            eV           3.8534      5.5447     14.7174     16.3864     18.1937
 
 
 
 
 ==============================================================================
                           electrostatic moments
 ==============================================================================

 reference point for electrostatic moments:    0.00000   0.00000   0.00000

 
              nuc           elec       ->  total
 ------------------------------------------------------------------------------
                          charge      
 ------------------------------------------------------------------------------
          10.000000     -10.000000      -0.000000
 
 ------------------------------------------------------------------------------
                       dipole moment  
 ------------------------------------------------------------------------------
   x      -8.959094       9.303811       0.344716
   y       0.755737      -0.140011       0.615726
   z      -4.872565       5.255760       0.383195
 
   | dipole moment | =     0.8030 a.u. =     2.0410 debye 
 
 ------------------------------------------------------------------------------
                     quadrupole moment
 ------------------------------------------------------------------------------
  xx      11.634953     -15.675751      -4.040798
  yy       2.084486      -6.385949      -4.301463
  zz       2.845802      -8.427779      -5.581977
  xy      -1.664759       0.510315      -1.154443
  xz       4.576324      -5.010764      -0.434441
  yz       0.472337      -0.338291       0.134046
 
     1/3  trace=      -4.641413
     anisotropy=       2.580656
 
 ==============================================================================
 


    ------------------------------------------------------------------------
         total  cpu-time :   1.53 seconds
         total wall-time :   0.21 seconds
    ------------------------------------------------------------------------

   ****  dscf : all done  ****


    2019-04-02 13:10:57.127 

