
 eiger (gplogin3.local) : TURBOMOLE V7.2 ( 21285 ) 30 Jun 2017 at 11:51:10
 Copyright (C) 2017 TURBOMOLE GmbH, Karlsruhe


    2017-11-11 17:47:50.480 

                                                                                
  
 HOMO-LUMO Separation
   HOMO:   102.   102 a     -0.14633377 H =     -3.98195 eV
   LUMO:   103.   103 a     -0.07649508 H =     -2.08154 eV
   Gap :                    +0.06983869 H =     +1.90041 eV
 
Number of MOs=   2408, Electrons=    204.00, Symmetry: c1   
 
   Nr.   Orbital    Occupation       Energy
  119.   119 a                     +0.014319 H =        +0.390 eV
  118.   118 a                     +0.014307 H =        +0.389 eV
  117.   117 a                     +0.006370 H =        +0.173 eV
  116.   116 a                     -0.002034 H =        -0.055 eV
  115.   115 a                     -0.007755 H =        -0.211 eV
  114.   114 a                     -0.007766 H =        -0.211 eV
  113.   113 a                     -0.011642 H =        -0.317 eV
  112.   112 a                     -0.012646 H =        -0.344 eV
  111.   111 a                     -0.012665 H =        -0.345 eV
  110.   110 a                     -0.019405 H =        -0.528 eV
  109.   109 a                     -0.021669 H =        -0.590 eV
  108.   108 a                     -0.028531 H =        -0.776 eV
  107.   107 a                     -0.028535 H =        -0.776 eV
  106.   106 a                     -0.042608 H =        -1.159 eV
  105.   105 a                     -0.042624 H =        -1.160 eV
  104.   104 a                     -0.045123 H =        -1.228 eV
  103.   103 a                     -0.076495 H =        -2.082 eV
  102.   102 a        2.000        -0.146334 H =        -3.982 eV
  101.   101 a        2.000        -0.146335 H =        -3.982 eV
  100.   100 a        2.000        -0.146352 H =        -3.982 eV
   99.    99 a        2.000        -0.146353 H =        -3.982 eV
   98.    98 a        2.000        -0.152487 H =        -4.149 eV
   97.    97 a        2.000        -0.152513 H =        -4.150 eV
   96.    96 a        2.000        -0.312500 H =        -8.504 eV
   95.    95 a        2.000        -0.312514 H =        -8.504 eV
   94.    94 a        2.000        -0.329140 H =        -8.956 eV
   93.    93 a        2.000        -0.341946 H =        -9.305 eV
   92.    92 a        2.000        -0.343178 H =        -9.338 eV
   91.    91 a        2.000        -0.343180 H =        -9.338 eV
   90.    90 a        2.000        -0.351626 H =        -9.568 eV
   89.    89 a        2.000        -0.351636 H =        -9.569 eV
   88.    88 a        2.000        -0.377387 H =       -10.269 eV
   87.    87 a        2.000        -0.377648 H =       -10.276 eV


    ------------------------------------------------------------------------
         total  cpu-time :   2.68 seconds
         total wall-time :   2.78 seconds
    ------------------------------------------------------------------------

   ****  eiger : all done  ****


    2017-11-11 17:47:53.251 

