           Doing BLAS/Lapack in the master proc. with  8 CPUs.
           SMPCPUS    set: Shared-memory Parallelization with   8 CPUs.

           SMP Parallelization Reference:
           C. van Wullen, J. Comput. Chem. 32 (2011) 1195--1201
 operating system is UNIX !

 ridft (c-18-261.gp.local) : TURBOMOLE V7.2 ( 21454 ) 4 Oct 2017 at 12:48:15
 Copyright (C) 2017 TURBOMOLE GmbH, Karlsruhe


    2018-04-28 20:59:33.886 



                                  r i d f t

                        DFT program with RI approximation 
                                for coulomb part 




                                                 
                                 References:     
                                                 
          TURBOMOLE:                             
              R. Ahlrichs, M. Baer, M. Haeser, H. Horn, and
              C. Koelmel
              Electronic structure calculations on workstation
              computers: the program system TURBOMOLE
              Chem. Phys. Lett. 162: 165 (1989)
          Density Functional:                              
              O. Treutler and R. Ahlrichs                      
              Efficient Molecular Numerical Integration Schemes
              J. Chem. Phys. 102: 346 (1995)                   
          Parallel Version:                                
              Performance of parallel TURBOMOLE for Density    
              Functional Calculations                          
              M. v. Arnim and R. Ahlrichs                      
              J. Comp. Chem. 19: 1746 (1998)                   
          RI-J Method:                                     
              Auxiliary Basis Sets to approximate Coulomb      
              Potentials                                       
              Chem. Phys. Lett. 240: 283 (1995)                
              K. Eichkorn, O. Treutler, H. Oehm, M. Haeser     
              and R. Ahlrichs                                  
              Chem. Phys. Lett. 242: 652 (1995)                
                                                           
              Auxiliary Basis Sets for Main Row Atoms and their
              Use to approximate Coulomb Potentials            
              K. Eichkorn, F. Weigend, O. Treutler and         
              R. Ahlrichs                                      
              Theo. Chem. Acc. 97: 119 (1997)                   
                                                           
              Accurate Coulomb-fitting basis sets for H to Rn 
              F. Weigend                                        
              Phys. Chem. Chem. Phys. 8: 1057 (2006)            
                                                           
          Multipole accelerated RI-J (MARI-J):             
              Fast evaluation of the Coulomb potential for     
              electron densities using multipole accelerated   
              resolution of identity approximation             
              M. Sierka, A. Hogekamp and R. Ahlrichs           
              J. Chem. Phys. 118: 9136 (2003)                  
          RI-JK Method:                                     
              A fully direct RI-HF algorithm: Implementation,
              optimised auxiliary basis sets, demonstration of
              accuracy and efficiency                         
              F. Weigend                                      
              Phys. Chem. Chem. Phys. 4: 4285 (2002)           
          Two-component HF and DFT with spin-orbit coupling:  
              Self-consistent treatment of spin-orbit         
              interactions with efficient Hartree-Fock and    
              density functional methods                      
              M. K. Armbruster, F. Weigend, C. van Wüllen and 
              W. Klopper                                      
              Phys. Chem. Chem. Phys. 10: 1748 (2008)         
          Relativistic all-electron 2c calculations           
              An efficient implementation of two-component    
              relativistic exact-decoupling methods for large 
              molecules                                       
              D. Peng, N. Middendorf, F. Weigend, M. Reiher   
              J. Chem. Phys. 138, 184105 (2013)               
                                         




              +--------------------------------------------------+
              |      general information about current run       |
              +--------------------------------------------------+

 

 DENSITY CONVERGENCE CHECK SWITCHED ON !
 SCF CONVERGENCE IF RMS(delta[D]) <     0.1000000000E-06

 TPSS meta-GGA functional
 exchange:    LDA + TPSS
 correlation: LDA (PW) + TPSS
 A DFT calculation using the RI-J approximation will be carried out.
 Allocatable memory for RI due to $ricore (MB):                  5000


              +--------------------------------------------------+
              | Atomic coordinate, charge and isotop information |
              +--------------------------------------------------+

                    atomic coordinates            atom    charge  isotop
         -0.99272944   -0.09632139   -0.59435073    o      8.000     0
         -1.78013455    1.41332926    0.02126474    h      1.000     0
          0.76287587    0.11297913   -0.13902407    h      1.000     0
 
       center of nuclear mass  :   -0.93855801   -0.00014495   -0.53443082
       center of nuclear charge:   -0.89590942    0.07557373   -0.48725652

              +--------------------------------------------------+
              |               basis set information              |
              +--------------------------------------------------+

              we will work with the 1s 3p 5d 7f 9g ... basis set
              ...i.e. with spherical basis functions...

   type   atoms  prim   cont   basis
   ---------------------------------------------------------------------------
    o        1     50     30   cc-pVTZ   [4s3p2d1f|18s5p2d1f]
    h        2     16     14   cc-pVTZ   [3s2p1d|5s2p1d]
   ---------------------------------------------------------------------------
   total:    3     82     58
   ---------------------------------------------------------------------------

   total number of primitive shells          :   34
   total number of contracted shells         :   22
   total number of cartesian basis functions :   65
   total number of SCF-basis functions       :   58


 integral neglect threshold       :  0.51E-12
 integral storage threshold THIZE :  0.10E-04
 integral storage threshold THIME :         5

 RI-J AUXILIARY BASIS SET information:

              we will work with the 1s 3p 5d 7f 9g ... basis set
              ...i.e. with spherical basis functions...

   type   atoms  prim   cont   basis
   ---------------------------------------------------------------------------
    o        1     70     49   cc-pVTZ   [6s4p3d1f1g|12s5p4d2f1g]
    h        2     16     11   cc-pVTZ   [3s1p1d|5s2p1d]
   ---------------------------------------------------------------------------
   total:    3    102     71
   ---------------------------------------------------------------------------

   total number of primitive shells          :   32
   total number of contracted shells         :   25
   total number of cartesian basis functions :   85
   total number of SCF-basis functions       :   71


 symmetry group of the molecule :   c1 

 the group has the following generators :
   c1(z)

    1 symmetry operations found

 there are 1 real representations :   a   

 maximum number of shells which are related by symmetry :  1


    mo occupation :
   irrep   mo's   occupied
    a       58        5
 
 number of basis functions   :                     58
 number of occupied orbitals :                      5
 
  
           ------------------
           density functional
           ------------------
 TPSS meta-GGA functional
 exchange:    LDA + TPSS
 correlation: LDA (PW) + TPSS

 iterations will be done with small grid
  
 spherical integration : Lebedev's spherical grid
 spherical gridsize    :                     5
    i.e. gridpoints    :                   590
 value for diffuse not defined
 radial integration    : Chebyshev 2nd kind (scaling 3)
 radial gridsize       :                     8
 integration cells     :                     3
 partition function    : becke
 partition sharpness   :                     3
  

 biggest AO integral is expected to be     4.866064444
  
           ------------------------
               RI-J - INFORMATION
           ------------------------
 Contributions to RI integral batches: 
  neglected integral batches:                     0
  direct contribution:                            0
  memory contribution:                   253
 Memory core needed for (P|Q) and Cholesky      1 MByte
 Memory core minimum needed except of (P|Q)     1 MByte
 Total minimum memory core needed (sum)         1 MByte
  
 ****************************************
 Memory allocated for RI-J     2 MByte
 ****************************************
                                            

          ------------------------
          nuclear repulsion energy  :   9.14996829977    
          ------------------------


         -----------------
         -S,T+V- integrals
         -----------------

 1e-integrals will be neglected if expon. factor < 0.514148E-13
 Difference densities >>NOT<< switched on in parallel ridft!

 DIIS switched on: error vector is FDS-SDF
 Max. Iterations for DIIS is     :   4
 DIIS matrix (see manual) 
    Scaling factor of diagonals  :  1.200
    threshold for scaling factor :  0.000

 scf convergence criterion : increment of total energy < .1000000D-08
                  and increment of one-electron energy < .1000000D-05

  MOs are in ASCII format !


 automatic virtual orbital shift switched on 
      shift if e(lumo)-e(homo) < 0.10000000    


 reading orbital data $scfmo  from file mos
 orbital characterization : expanded
 mo provided and orthogonalized by Cholesky decomposition

 DSCF restart information will be dumped onto file mos


 Starting SCF iterations

          Overall gridpoints after grid construction =         13755

 ITERATION  ENERGY          1e-ENERGY        2e-ENERGY     RMS[dD(SAO)]   TOL
   1  -76.217808585644    -124.35160586     38.983828978    0.000D+00 0.513D-12
                            Exc = -9.51759311912     Coul =  48.5014220972    
                              N = 10.000000675    
                            current damping = 0.700
 
          max. resid. norm for Fia-block=  3.038D-01 for orbital      4a         
          max. resid. fock norm         =  4.725D+00 for orbital     56a         

 ITERATION  ENERGY          1e-ENERGY        2e-ENERGY     RMS[dD(SAO)]   TOL
   2  -76.416763214281    -123.16091618     37.594184666    0.584D-02 0.513D-12
                            Exc = -9.33497090933     Coul =  46.9291555753    
                              N = 10.000000461    
                            current damping = 0.650
 
          Norm of current diis error: 0.86337    
          max. resid. norm for Fia-block=  1.333D-01 for orbital      1a         
          max. resid. fock norm         =  1.355D-01 for orbital      1a         

 ITERATION  ENERGY          1e-ENERGY        2e-ENERGY     RMS[dD(SAO)]   TOL
   3  -76.450424845403    -123.29144274     37.691049596    0.280D-02 0.513D-12
                            Exc = -9.36684468114     Coul =  47.0578942771    
                              N = 10.000000491    
                            current damping = 0.600
 
          Norm of current diis error: 0.38877    
          max. resid. norm for Fia-block=  5.462D-02 for orbital      1a         
          max. resid. fock norm         =  5.624D-02 for orbital      1a         

 ITERATION  ENERGY          1e-ENERGY        2e-ENERGY     RMS[dD(SAO)]   TOL
   4  -76.458948786308    -123.03532418     37.426407091    0.176D-02 0.513D-12
                            Exc = -9.33956709997     Coul =  46.7659741906    
                              N = 10.000000464    
                            current damping = 0.650
 
          Norm of current diis error: 0.14175    
          max. resid. norm for Fia-block=  2.035D-02 for orbital      1a         
          max. resid. fock norm         =  2.416D-02 for orbital     37a         

 ITERATION  ENERGY          1e-ENERGY        2e-ENERGY     RMS[dD(SAO)]   TOL
   5  -76.460195455197    -123.10347155     37.493307796    0.781D-03 0.513D-12
                            Exc = -9.35266797481     Coul =  46.8459757705    
                              N = 10.000000482    
                            current damping = 0.700
 
          Norm of current diis error: 0.58819E-01
          max. resid. norm for Fia-block=  8.202D-03 for orbital      1a         
          max. resid. fock norm         =  8.478D-03 for orbital      6a         
          mo-orthogonalization: Cholesky decomposition

 ITERATION  ENERGY          1e-ENERGY        2e-ENERGY     RMS[dD(SAO)]   TOL
   6  -76.460436973675    -123.06733699     37.456931715    0.351D-03 0.513D-12
                            Exc = -9.34916532334     Coul =  46.8060970381    
                              N = 10.000000477    
                            current damping = 0.750
 
          Norm of current diis error: 0.23248E-01
          max. resid. norm for Fia-block=  3.357D-03 for orbital      1a         
          max. resid. fock norm         =  4.030D-03 for orbital     37a         

 ITERATION  ENERGY          1e-ENERGY        2e-ENERGY     RMS[dD(SAO)]   TOL
   7  -76.460474077136    -123.07281217     37.462369789    0.140D-03 0.513D-12
                            Exc = -9.35051782109     Coul =  46.8128876100    
                              N = 10.000000478    
                            current damping = 0.800
 
          Norm of current diis error: 0.10019E-01
          max. resid. norm for Fia-block=  1.439D-03 for orbital      1a         
          max. resid. fock norm         =  1.557D-03 for orbital      6a         

 ITERATION  ENERGY          1e-ENERGY        2e-ENERGY     RMS[dD(SAO)]   TOL
   8  -76.460481330637    -123.07033541     37.459885781    0.626D-04 0.513D-12
                            Exc = -9.35043281134     Coul =  46.8103185924    
                              N = 10.000000478    
                            current damping = 0.850
 
          Norm of current diis error: 0.44390E-02
          max. resid. norm for Fia-block=  6.391D-04 for orbital      1a         
          max. resid. fock norm         =  7.797D-04 for orbital     37a         

 ITERATION  ENERGY          1e-ENERGY        2e-ENERGY     RMS[dD(SAO)]   TOL
   9  -76.460482681252    -123.07126096     37.460809981    0.265D-04 0.513D-12
                            Exc = -9.35066895781     Coul =  46.8114789392    
                              N = 10.000000478    
                            current damping = 0.900
 
          Norm of current diis error: 0.20508E-02
          max. resid. norm for Fia-block=  2.955D-04 for orbital      1a         
          max. resid. fock norm         =  3.150D-04 for orbital      6a         

 ITERATION  ENERGY          1e-ENERGY        2e-ENERGY     RMS[dD(SAO)]   TOL
  10  -76.460482981603    -123.07029687     37.459845590    0.126D-04 0.513D-12
                            Exc = -9.35058609139     Coul =  46.8104316812    
                              N = 10.000000478    
                            current damping = 0.950
 
          Norm of current diis error: 0.99380E-03
          max. resid. norm for Fia-block=  1.396D-04 for orbital      1a         
          max. resid. fock norm         =  1.960D-04 for orbital     37a         
          mo-orthogonalization: Cholesky decomposition

 ITERATION  ENERGY          1e-ENERGY        2e-ENERGY     RMS[dD(SAO)]   TOL
  11  -76.460483042801    -123.07081337     37.460362031    0.537D-05 0.513D-12
                            Exc = -9.35067866553     Coul =  46.8110406962    
                              N = 10.000000478    
                            current damping = 1.000
 
          Norm of current diis error: 0.47671E-03
          max. resid. norm for Fia-block=  6.821D-05 for orbital      1a         
          max. resid. fock norm         =  7.266D-05 for orbital      6a         

 ITERATION  ENERGY          1e-ENERGY        2e-ENERGY     RMS[dD(SAO)]   TOL
  12  -76.460483058742    -123.07058546     37.460134104    0.278D-05 0.513D-12
                            Exc = -9.35065807570     Coul =  46.8107921800    
                              N = 10.000000478    
                            current damping = 1.050
 
          Norm of current diis error: 0.23461E-03
          max. resid. norm for Fia-block=  3.402D-05 for orbital      1a         
          max. resid. fock norm         =  4.358D-05 for orbital     37a         

 ITERATION  ENERGY          1e-ENERGY        2e-ENERGY     RMS[dD(SAO)]   TOL
  13  -76.460483062276    -123.07063212     37.460180753    0.125D-05 0.513D-12
                            Exc = -9.35066946160     Coul =  46.8108502148    
                              N = 10.000000478    
                            current damping = 1.100
 
          Norm of current diis error: 0.11836E-03
          max. resid. norm for Fia-block=  1.746D-05 for orbital      1a         
          max. resid. fock norm         =  1.980D-05 for orbital     37a         

 ITERATION  ENERGY          1e-ENERGY        2e-ENERGY     RMS[dD(SAO)]   TOL
  14  -76.460483063212    -123.07061431     37.460162948    0.643D-06 0.513D-12
                            Exc = -9.35066953645     Coul =  46.8108324843    
                              N = 10.000000478    
                            current damping = 1.150
 
          Norm of current diis error: 0.62412E-04
          max. resid. norm for Fia-block=  9.139D-06 for orbital      1a         
          max. resid. fock norm         =  1.188D-05 for orbital     37a         

 ITERATION  ENERGY          1e-ENERGY        2e-ENERGY     RMS[dD(SAO)]   TOL
  15  -76.460483063456    -123.07062672     37.460175359    0.318D-06 0.513D-12
                            Exc = -9.35067249542     Coul =  46.8108478540    
                              N = 10.000000478    
                            current damping = 1.200
 
          Norm of current diis error: 0.33125E-04
          max. resid. norm for Fia-block=  4.905D-06 for orbital      1a         
          max. resid. fock norm         =  5.255D-06 for orbital      6a         
          mo-orthogonalization: Cholesky decomposition

 ITERATION  ENERGY          1e-ENERGY        2e-ENERGY     RMS[dD(SAO)]   TOL
  16  -76.460483063528    -123.07061503     37.460163672    0.176D-06 0.513D-12
                            Exc = -9.35067156363     Coul =  46.8108352352    
                              N = 10.000000478    
                            current damping = 1.250
 
          Norm of current diis error: 0.18564E-04
          max. resid. norm for Fia-block=  2.670D-06 for orbital      1a         
          max. resid. fock norm         =  3.764D-06 for orbital     37a         

 DENSITY CONVERGED !


 ITERATION  ENERGY          1e-ENERGY        2e-ENERGY     RMS[dD(SAO)]   TOL
  17  -76.460483063548    -123.07062173     37.460170362    0.869D-07 0.513D-12
                            Exc = -9.35067282079     Coul =  46.8108431829    
                              N = 10.000000478    
                            current damping = 1.300
 
          Norm of current diis error: 0.99988E-05
          max. resid. norm for Fia-block=  1.488D-06 for orbital      1a         
          max. resid. fock norm         =  1.647D-06 for orbital     37a         

 ENERGY & DENSITY CONVERGED !

          Overall gridpoints after grid construction =         46248

 ITERATION  ENERGY          1e-ENERGY        2e-ENERGY     RMS[dD(SAO)]   TOL
  18  -76.460471653161    -123.07061896     37.460179002    0.503D-07 0.513D-12
                            Exc = -9.35066122074     Coul =  46.8108402230    
                              N = 9.9999999987    
                            current damping = 1.350
 
          Norm of current diis error: 0.57146E-05
          max. resid. norm for Fia-block=  8.388D-07 for orbital      1a         
          max. resid. fock norm         =  1.044D-06 for orbital     37a         

 End of SCF iterations

   convergence criteria satisfied after    18 iterations


                  ------------------------------------------ 
                 |  total energy      =    -76.46047165316  |
                  ------------------------------------------ 
                 :  kinetic energy    =     76.14619642064  :
                 :  potential energy  =   -152.60666807380  :
                 :  virial theorem    =      1.99588970319  :
                 :  wavefunction norm =      1.00000000000  :
                  .......................................... 


 <geterg> : there is no data group $energy 


 <skperg> : $end is missing 


 orbitals $scfmo  will be written to file mos

    irrep                  1a          2a          3a          4a          5a   
 eigenvalues H        -18.87378    -0.93886    -0.47529    -0.33392    -0.25388
            eV        -513.5858    -25.5480    -12.9333     -9.0865     -6.9086
 occupation              2.0000      2.0000      2.0000      2.0000      2.0000 

    irrep                  6a          7a          8a          9a         10a   
 eigenvalues H          0.01683     0.08835     0.34476     0.39369     0.47990
            eV           0.4580      2.4040      9.3814     10.7128     13.0587
 
 
 
 
 ==============================================================================
                           electrostatic moments
 ==============================================================================

 reference point for electrostatic moments:    0.00000   0.00000   0.00000

 
              nuc           elec       ->  total
 ------------------------------------------------------------------------------
                          charge      
 ------------------------------------------------------------------------------
          10.000000     -10.000000      -0.000000
 
 ------------------------------------------------------------------------------
                       dipole moment  
 ------------------------------------------------------------------------------
   x      -8.959094       9.276336       0.317242
   y       0.755737      -0.187621       0.568116
   z      -4.872565       5.225968       0.353403
 
   | dipole moment | =     0.7405 a.u. =     1.8821 debye 
 
 ------------------------------------------------------------------------------
                     quadrupole moment
 ------------------------------------------------------------------------------
  xx      11.634953     -15.752820      -4.117868
  yy       2.084486      -6.476496      -4.392009
  zz       2.845802      -8.440959      -5.595157
  xy      -1.664759       0.577118      -1.087640
  xz       4.576324      -4.976442      -0.400119
  yz       0.472337      -0.339559       0.132777
 
     1/3  trace=      -4.701678
     anisotropy=       2.436106
 
 ==============================================================================
 


    ------------------------------------------------------------------------
         total  cpu-time :  10.83 seconds
         total wall-time :   0.98 seconds
    ------------------------------------------------------------------------

   ****  ridft : all done  ****


    2018-04-28 20:59:34.853 

