
   OpenMP run-time library returned nthreads = 28

 ricc2 (c-16-29) : TURBOMOLE V7.3 ( 22142 ) 4 Jul 2018 at 18:12:42
 Copyright (C) 2018 TURBOMOLE GmbH, Karlsruhe


    2019-04-01 22:35:33.550 



                              R I C C 2 - PROGRAM

                          the quantum chemistry groups
                             at the universities in
                           Karlsruhe, Bochum & Mainz
                                   Germany



   *-----------------------------------------------------------------------*
   |                     program will use 28 thread(s)                     |
   *-----------------------------------------------------------------------*


              +--------------------------------------------------+
              | Atomic coordinate, charge and isotop information |
              +--------------------------------------------------+

                    atomic coordinates            atom    charge  isotop
          2.61043403   -0.00044121    0.24843046    n      0.000     0
          1.28378694   -2.15474030    0.17400534    c      0.000     0
          2.37863533   -3.88331583    0.23788555    h      0.000     0
         -1.34118081   -2.25465884    0.01259364    c      0.000     0
         -2.29429321   -4.06019307   -0.04782615    h      0.000     0
         -2.68646032    0.00025214   -0.07713276    c      0.000     0
         -4.72563086    0.00048674   -0.20630090    h      0.000     0
         -1.34057398    2.25477470    0.01232476    c      0.000     0
         -2.29320463    4.06054494   -0.04824151    h      0.000     0
          1.28435551    2.15420508    0.17365266    c      0.000     0
          2.37965791    3.88246293    0.23716531    h      0.000     0
          0.03704729    1.25938784    6.58998956    c      6.000     0
          1.75759381    2.31666263    6.28930608    h      1.000     0
         -1.68174839    2.32217781    6.88660192    h      1.000     0
          0.03767597   -1.25902618    6.59023945    c      6.000     0
          1.75871701   -2.31553896    6.28975328    h      1.000     0
         -1.68062950   -2.32261085    6.88709493    h      1.000     0
 
       center of nuclear mass  :   -0.00566454   -0.00002951    1.79247081
       center of nuclear charge:    0.03764203    0.00017879    6.58963314

              +--------------------------------------------------+
              |               basis set information              |
              +--------------------------------------------------+

              we will work with the 1s 3p 5d 7f 9g ... basis set
              ...i.e. with spherical basis functions...

   type   atoms  prim   cont   basis
   ---------------------------------------------------------------------------
    n        1     77     55   cc-pVQZ   [5s4p3d2f1g|21s6p3d2f1g]
    c        7     77     55   cc-pVQZ   [5s4p3d2f1g|21s6p3d2f1g]
    h        9     32     30   cc-pVQZ   [4s3p2d1f|6s3p2d1f]
   ---------------------------------------------------------------------------
   total:   17    904    710
   ---------------------------------------------------------------------------

   total number of primitive shells          :   78
   total number of contracted shells         :  210
   total number of cartesian basis functions :  875
   total number of SCF-basis functions       :  710


 symmetry group of the molecule :   c1 

 the group has the following generators :
   c1(z)

    1 symmetry operations found

 there are 1 real representations :   a   


   =========================================================================


     restricted closed shell calculation for the wavefunction models:
               MP2        - Second Order Moeller Plesset PT


     global parameters for ricc2 program:

        hard restart (reuse of interm.) :  disabled
        soft restart (reuse of vectors) :  disabled
        threshold for vector function   :    0.100000E-05
        convergence threshold energy    :    0.100000E-06
        linear dependence threshold     :    0.100000E-13
        global print level              :      1
        maximum number of iterations    :   300
        maximum number DIIS vectors     :    10
        max. dim. of reduced space      :   100
        core memory limit (MB)          : *****


     MP2 energy only: Energy will be calculated directly from T2 amplitudes!

     Scratch Directory : 


   =========================================================================

    der. integral neglect threshold  :  0.10E-07
    integral neglect threshold       :  0.38E-11
    integral storage threshold THIZE :  0.10E-04
    integral storage threshold THIME :         5


                  +------------------------------------------+
                  |     Auxiliary basis set information      |
                  +------------------------------------------+

              we will work with the 1s 3p 5d 7f 9g ... basis set
              ...i.e. with spherical basis functions...

   type   atoms  prim   cont   basis
   ---------------------------------------------------------------------------
    n        1    132    132   cc-pVQZ   [8s7p6d5f3g1h|8s7p6d5f3g1h]
    c        7    132    132   cc-pVQZ   [8s7p6d5f3g1h|8s7p6d5f3g1h]
    h        9     55     55   cc-pVQZ   [5s4p3d2f1g|5s4p3d2f1g]
   ---------------------------------------------------------------------------
   total:   17   1551   1551
   ---------------------------------------------------------------------------

   total number of primitive shells          :   75
   total number of contracted shells         :  375
   total number of cartesian basis functions : 2078
   total number of SCF-basis functions       : 1551


 maximum number of shells which are related by symmetry :  1


 The symmetry information takes   1 MB

*---------------------------------------------------------------------*
|               simplified C1 algorithm will be applied               |
*---------------------------------------------------------------------*
  MOs are in ASCII format !


 reading orbital data $scfmo  from file mos
 orbital characterization : scfconv=9



              +--------------------------------------------+
              | list of orbitals that will be kept frozen: |
              +--------------------------------------------+
              |   irrep   index      energy     occ/vir    |
              +--------------------------------------------+
              |   a         1      -11.2296     occupied   |
              |   a         2      -11.2279     occupied   |
              +--------------------------------------------+



   Molecular Orbital Statistic:
   ============================

   -----------------------------
   orbitals in total:
   -----------------------------
    frozen occupied :      2
    active occupied :      6
    active virtual  :    702
    frozen virtual  :      0
    all together    :    710
   -----------------------------


     time in riccmos       cpu:  8.40 sec    wall:  0.67 sec    ratio: 12.6

     total memory allocated for calculation of (Q|P)**(-1/2) : 28 MiB


     calculation of (P|Q) ...
     time in lp2sym        cpu:  2.59 sec    wall:  0.09 sec    ratio: 28.1


     calculation of the Cholesky decomposition of (P|Q)**(-1) ...
     time in invmetri      cpu: 10.53 sec    wall:  0.38 sec    ratio: 27.7

   threshold for RMS(d[D]) in SCF was     :  0.10E-06
   integral neglect threshold             :  0.38E-11
   derivative integral neglect threshold  :  0.10E-07


   =========================================================================

     Energy of reference wave function is   -78.0692327428100
     Maximum orbital residual is           0.2482559730115E-06


     Number of symmetry-nonredundant auxiliary basis functions:     1551

     Block lengths for integral files:
        frozen occupied (BOI):        1 MiB
        active occupied (BJI):        1 MiB
        active virtual  (BAI):        9 MiB
        frozen virtual  (BGI):        0 MiB
               general  (BTI):        9 MiB

   =========================================================================




   **************************************************************************
   *                                                                        *
   *          OPTIMIZATION OF THE GROUND STATE CLUSTER AMPLITUDES           *
   *                                                                        *
   **************************************************************************


   Iter.   MP2 energy       Norm(Omega)   Norm(t1)  Norm(t2)     cpu    wall
   ...........................................................................
    1    -78.4254658892     ------          0.00000   0.20774    0.64    0.02
   ...........................................................................


     time in total         cpu: 38.50 sec    wall:  1.40 sec    ratio: 27.5


     **********************************************************************
     *                                                                    *
     *   RHF  energy                             :    -78.0692327428      *
     *   MP2 correlation energy (doubles)        :     -0.3562331464      *
     *                                                                    *
     *   Final MP2 energy                        :    -78.4254658892      *
     *                                                                    *
     *    E(S)   =     -0.2462164227      E(T)   =     -0.1100167236      *
     *    E(OS)  =     -0.2828886639      E(SS)  =     -0.0733444824      *
     *                                                                    *
     *   SCS-MP2 energy                          :    -78.4331473003      *
     *   (computed with  C(OS) =   1.2000  and  C(SS) =   0.3333)         *
     *                                                                    *
     *   SOS-MP2 energy                          :    -78.4369880059      *
     *   (computed with  C(OS) =   1.3000)                                *
     *                                                                    *
     *   Norm of MP1 T2 amplitudes               :      0.2077429673      *
     *                                                                    *
     **********************************************************************



    ------------------------------------------------------------------------
         total  cpu-time :  2 minutes and 11 seconds
         total wall-time :   5.71 seconds
    ------------------------------------------------------------------------

   ****  ricc2 : all done  ****


    2019-04-01 22:35:39.210 

