
 eiger (gplogin3.local) : TURBOMOLE V7.2 ( 21285 ) 30 Jun 2017 at 11:51:10
 Copyright (C) 2017 TURBOMOLE GmbH, Karlsruhe


    2017-11-10 14:01:17.689 

                                                                                
  
 HOMO-LUMO Separation
   HOMO:    84.    84 a     -0.47249696 H =    -12.85730 eV
   LUMO:    85.    85 a     -0.22908866 H =     -6.23382 eV
   Gap :                    +0.24340830 H =     +6.62348 eV
 
Number of MOs=   1164, Electrons=    168.00, Symmetry: c1   
 
   Nr.   Orbital    Occupation       Energy
  101.   101 a                     -0.151165 H =        -4.113 eV
  100.   100 a                     -0.163878 H =        -4.459 eV
   99.    99 a                     -0.163965 H =        -4.462 eV
   98.    98 a                     -0.164068 H =        -4.465 eV
   97.    97 a                     -0.166247 H =        -4.524 eV
   96.    96 a                     -0.169821 H =        -4.621 eV
   95.    95 a                     -0.170095 H =        -4.629 eV
   94.    94 a                     -0.173966 H =        -4.734 eV
   93.    93 a                     -0.176373 H =        -4.799 eV
   92.    92 a                     -0.176651 H =        -4.807 eV
   91.    91 a                     -0.182080 H =        -4.955 eV
   90.    90 a                     -0.189224 H =        -5.149 eV
   89.    89 a                     -0.189236 H =        -5.149 eV
   88.    88 a                     -0.200336 H =        -5.451 eV
   87.    87 a                     -0.203176 H =        -5.529 eV
   86.    86 a                     -0.213414 H =        -5.807 eV
   85.    85 a                     -0.229089 H =        -6.234 eV
   84.    84 a        2.000        -0.472497 H =       -12.857 eV
   83.    83 a        2.000        -0.472591 H =       -12.860 eV
   82.    82 a        2.000        -0.497696 H =       -13.543 eV
   81.    81 a        2.000        -0.504978 H =       -13.741 eV
   80.    80 a        2.000        -0.508944 H =       -13.849 eV
   79.    79 a        2.000        -0.508972 H =       -13.850 eV
   78.    78 a        2.000        -0.517808 H =       -14.090 eV
   77.    77 a        2.000        -0.517825 H =       -14.091 eV
   76.    76 a        2.000        -0.550387 H =       -14.977 eV
   75.    75 a        2.000        -0.550478 H =       -14.979 eV
   74.    74 a        2.000        -0.562666 H =       -15.311 eV
   73.    73 a        2.000        -0.563329 H =       -15.329 eV
   72.    72 a        2.000        -0.575336 H =       -15.656 eV
   71.    71 a        2.000        -0.575361 H =       -15.656 eV
   70.    70 a        2.000        -0.577886 H =       -15.725 eV
   69.    69 a        2.000        -0.578041 H =       -15.729 eV


    ------------------------------------------------------------------------
         total  cpu-time :   0.67 seconds
         total wall-time :   0.68 seconds
    ------------------------------------------------------------------------

   ****  eiger : all done  ****


    2017-11-10 14:01:18.349 

