
   OpenMP run-time library returned nthreads = 20

 ricc2 (c-15-19.gp.local) : TURBOMOLE V7.2 ( 21471 ) 11 Oct 2017 at 17:04:51
 Copyright (C) 2017 TURBOMOLE GmbH, Karlsruhe


    2018-04-09 00:31:12.427 



                              R I C C 2 - PROGRAM

                          the quantum chemistry groups
                             at the universities in
                           Karlsruhe, Bochum & Mainz
                                   Germany



   *-----------------------------------------------------------------------*
   |                     program will use 20 thread(s)                     |
   *-----------------------------------------------------------------------*


              +--------------------------------------------------+
              | Atomic coordinate, charge and isotop information |
              +--------------------------------------------------+

                    atomic coordinates            atom    charge  isotop
         12.16567394   -2.59366482    4.59295909    c      6.000     0
         10.46168331   -1.31107404    3.01375614    c      6.000     0
         10.45676899    1.34625969    3.01493745    c      6.000     0
         12.15599909    2.63375225    4.59528118    c      6.000     0
         13.85404802    1.33998502    6.13098712    c      6.000     0
         13.85892485   -1.29498242    6.12981416    c      6.000     0
          8.65897271    2.89585681    1.51828357    c      6.000     0
          7.12905441    4.60781531    2.80988031    c      6.000     0
          5.65888605    6.44663429    1.59966978    c      6.000     0
          5.73753819    6.55140080   -1.13886775    c      6.000     0
          7.21114346    4.74356680   -2.39855967    c      6.000     0
          8.67059685    2.93235315   -1.15366036    c      6.000     0
          4.02327773    8.15827859    3.04373236    c      6.000     0
          2.99407277   10.10892441    1.65600238    c      6.000     0
          3.09993385   10.23818873   -1.03999961    c      6.000     0
          4.23506100    8.42482684   -2.52985382    c      6.000     0
          1.01112762   11.69006059   -1.86879995    c      6.000     0
         -0.38574094   12.44387339    0.28788022    c      6.000     0
          0.84662056   11.48198724    2.46209805    c      6.000     0
         -2.95305645   12.96217322    0.21622597    c      6.000     0
         -4.00772093   13.06507501   -2.30149995    c      6.000     0
         -2.63588282   12.34351975   -4.42176448    c      6.000     0
         -0.06773851   11.43062408   -4.24696531    c      6.000     0
          1.35960110    9.86033501   -5.94827165    c      6.000     0
          3.40430648    8.42010250   -5.12284819    c      6.000     0
         -4.19300273   12.83059234    2.64693462    c      6.000     0
         -2.98232298   11.90317103    4.78524004    c      6.000     0
         -0.40849609   10.99431369    4.71419204    c      6.000     0
          0.87551991    9.23248292    6.34534908    c      6.000     0
          2.98177445    7.87391103    5.54216798    c      6.000     0
         10.41882841    1.35340540   -2.68352306    c      6.000     0
         10.42366397   -1.31329646   -2.68470019    c      6.000     0
         12.09488204   -2.58551960   -4.30927953    c      6.000     0
         13.74785504   -1.28956835   -5.88999480    c      6.000     0
         13.74308428    1.34455744   -5.88883044    c      6.000     0
         12.08542319    2.63311335   -4.30697591    c      6.000     0
          8.66957414   -2.86594066    1.51574835    c      6.000     0
          7.14598360   -4.58465475    2.80583860    c      6.000     0
          5.68237061   -6.42761834    1.59399284    c      6.000     0
          5.76118532   -6.52951354   -1.14466038    c      6.000     0
          7.22822852   -4.71523960   -2.40273886    c      6.000     0
          8.68119991   -2.89993680   -1.15622400    c      6.000     0
          4.26528338   -8.40696650   -2.53730461    c      6.000     0
          3.13675818  -10.22577125   -1.04908070    c      6.000     0
          3.03066378  -10.09945352    1.64704511    c      6.000     0
          4.05300696   -8.14646927    3.03654065    c      6.000     0
          0.88818653  -11.48093504    2.45200614    c      6.000     0
         -0.34092155  -12.44511866    0.27697615    c      6.000     0
          1.05308815  -11.68430264   -1.87909795    c      6.000     0
          3.43436555   -8.40283557   -5.13025665    c      6.000     0
          1.39478747   -9.84962357   -5.95690594    c      6.000     0
         -0.02684251  -11.42656335   -4.25696104    c      6.000     0
         -2.59172257  -12.34847762   -4.43240670    c      6.000     0
         -3.96082731  -13.07688865   -2.31271046    c      6.000     0
         -2.90636292  -12.97258222    0.20503977    c      6.000     0
          3.01065523   -7.86817722    5.53531042    c      6.000     0
          0.90934408   -9.23503104    6.33737800    c      6.000     0
         -0.36847882  -10.99993001    4.70467426    c      6.000     0
         -2.93899527  -11.91816446    4.77509537    c      6.000     0
         -4.14654245  -12.84783645    2.63599839    c      6.000     0
          0.71903516    9.61064399   -7.88417618    h      1.000     0
          4.24959492    7.11435556   -6.46273536    h      1.000     0
          3.71332040    6.41928041    6.79322123    h      1.000     0
          0.07470641    8.78104688    8.18246403    h      1.000     0
         -4.08477472   11.67998976    6.50483597    h      1.000     0
         -6.18891676   13.29753622    2.78818197    h      1.000     0
         -5.98990929   13.54758906   -2.54610463    h      1.000     0
         -3.60348985   12.29166175   -6.23350549    h      1.000     0
         -3.55965301  -12.29840124   -6.24402800    h      1.000     0
         -5.94129148  -13.56627399   -2.55764238    h      1.000     0
         -6.14074437  -13.32209567    2.77698683    h      1.000     0
         -4.04209018  -11.70057455    6.49499765    h      1.000     0
          0.10709845   -8.78822351    8.17499761    h      1.000     0
          3.73710484   -6.41213465    6.78769261    h      1.000     0
          4.27495124   -7.09289177   -6.46899927    h      1.000     0
          0.75325477   -9.60046769   -7.89255738    h      1.000     0
          7.13790809    4.55015656    4.86231209    h      1.000     0
          7.27274077    4.78324211   -4.45037688    h      1.000     0
          7.15477787   -4.52888299    4.85832302    h      1.000     0
          7.28987717   -4.75279218   -4.45459397    h      1.000     0
         12.07388058    4.68625416   -4.29093957    h      1.000     0
         15.02351373    2.39139350   -7.10436137    h      1.000     0
         15.03206625   -2.33068703   -7.10644741    h      1.000     0
         12.09078093   -4.63870205   -4.29505351    h      1.000     0
         12.13518587    4.68695525    4.58688483    h      1.000     0
         15.16386627    2.38359534    7.31770714    h      1.000     0
         15.17260745   -2.33478943    7.31560141    h      1.000     0
         12.15246704   -4.64692230    4.58274120    h      1.000     0
          0.99665616    0.00516167   -4.68279590    c      0.000     0
         -0.71121610    0.00396571   -6.70018465    c      0.000     0
         -2.25150188   -2.21677809   -7.17944696    c      0.000     0
         -4.74505318   -1.37318689   -7.95544103    c      0.000     0
          1.22669423   -2.19513895   -3.06856516    c      0.000     0
         -2.01338590   -4.33652944   -5.62331210    c      0.000     0
          1.21907638    2.20344609   -3.06474291    c      0.000     0
         -2.25917675    2.22020608   -7.17559470    c      0.000     0
         -4.74979534    1.36936244   -7.95306691    c      0.000     0
         -2.02840967    4.33803113   -5.61575540    c      0.000     0
         -6.88938115   -2.69166067   -7.14863552    c      0.000     0
         -0.25324273   -4.31508734   -3.52896394    c      0.000     0
         -4.24080189   -5.68713557   -4.78042438    c      0.000     0
         -6.89866480    2.67902543   -7.14397879    c      0.000     0
         -6.62969843   -4.88426133   -5.52982912    c      0.000     0
         -9.10214178   -1.32600268   -6.29555132    c      0.000     0
          1.62666657   -1.35447178   -0.49794015    c      0.000     0
         -0.26819606    4.31904632   -3.52145971    c      0.000     0
          1.62197628    1.35972006   -0.49558487    c      0.000     0
         -1.36813958   -5.67556987   -1.43793085    c      0.000     0
         -3.83213001   -6.51676608   -2.20844816    c      0.000     0
         -8.68529862   -4.88420891   -3.72632778    c      0.000     0
        -10.21131739   -2.68561671   -4.19927137    c      0.000     0
         -9.10668799    1.30425536   -6.29326681    c      0.000     0
          0.69410173   -2.74814147    1.59631814    c      0.000     0
         -0.86255117   -4.99109143    1.10630870    c      0.000     0
         -5.85277204   -6.70054905   -0.45515272    c      0.000     0
         -8.37383587   -5.85208868   -1.24144606    c      0.000     0
        -11.46539435   -1.40555193   -2.20046120    c      0.000     0
        -10.22055643    2.65639457   -4.19463976    c      0.000     0
          0.27738391   -1.36394480    3.85658064    c      0.000     0
          0.68460555    2.74653196    1.60108542    c      0.000     0
         -2.72686661   -5.67691458    2.90661715    c      0.000     0
         -5.19000745   -6.52393871    2.13715159    c      0.000     0
        -10.04369352   -4.88981570    0.62755340    c      0.000     0
        -11.57075787   -2.69142268    0.15356515    c      0.000     0
        -11.47019290    1.36854065   -2.19805677    c      0.000     0
         -1.51953198   -2.20899180    5.73801030    c      0.000     0
          0.27268957    1.35699172    3.85894216    c      0.000     0
         -2.99673117   -4.33316636    5.26958389    c      0.000     0
         -6.98969288   -5.70272854    4.02259132    c      0.000     0
         -9.37992208   -4.89668115    3.27990538    c      0.000     0
        -11.85315945   -1.33838946    2.51165683    c      0.000     0
        -11.57998870    2.64995305    0.15819886    c      0.000     0
         -4.26045910    5.67949022   -4.77054059    c      0.000     0
         -6.64656365    4.86970320   -5.52136778    c      0.000     0
         -1.38773403    5.67209108   -1.42809836    c      0.000     0
         -8.70214140    4.85942371   -3.71787323    c      0.000     0
         -0.87980924    4.98490500    1.11494594    c      0.000     0
         -2.63056853   -0.01116972    6.93504656    c      0.000     0
         -1.52712606    2.19255774    5.74183640    c      0.000     0
         -5.63752430   -4.35893569    5.99019120    c      0.000     0
        -10.51661195   -2.70779963    4.46845869    c      0.000     0
        -11.85769952    1.29185141    2.51393895    c      0.000     0
        -10.06052265    4.85278424    0.63601082    c      0.000     0
         -3.85463772    6.50610181   -2.19715025    c      0.000     0
         -8.39400452    5.82405806   -1.23131255    c      0.000     0
         -2.74647242    5.66115886    2.91644621    c      0.000     0
         -5.18462718   -0.01617482    7.61700742    c      0.000     0
         -3.01166388    4.31242040    5.27709801    c      0.000     0
         -6.72076309   -2.23715638    7.13284837    c      0.000     0
         -9.21357880   -1.39329494    6.35464675    c      0.000     0
        -10.52588659    2.66247315    4.47312319    c      0.000     0
         -9.39677333    4.85732830    3.28837513    c      0.000     0
         -5.87588365    6.67985141   -0.44354595    c      0.000     0
         -5.21251096    6.50101309    2.14845889    c      0.000     0
         -6.72842612    2.20031923    7.13670428    c      0.000     0
         -5.65252959    4.32780350    5.99774211    c      0.000     0
         -9.21831734    1.34920535    6.35702987    c      0.000     0
         -7.00933856    5.67032407    4.03246628    c      0.000     0
 
       center of nuclear mass  :   -0.80137550   -0.00145259   -0.02793186
       center of nuclear charge:    4.11480403    0.00742239    0.20268347

              +--------------------------------------------------+
              |               basis set information              |
              +--------------------------------------------------+

              we will work with the 1s 3p 5d 7f 9g ... basis set
              ...i.e. with spherical basis functions...

   type   atoms  prim   cont   basis
   ---------------------------------------------------------------------------
    c      130     77     55   cc-pVQZ   [5s4p3d2f1g|21s6p3d2f1g]
    h       28     32     30   cc-pVQZ   [4s3p2d1f|6s3p2d1f]
   ---------------------------------------------------------------------------
   total:  158  10906   7990
   ---------------------------------------------------------------------------

   total number of primitive shells          :   45
   total number of contracted shells         : 2230
   total number of cartesian basis functions :10080
   total number of SCF-basis functions       : 7990


 symmetry group of the molecule :   c1 

 the group has the following generators :
   c1(z)

    1 symmetry operations found

 there are 1 real representations :   a   


   =========================================================================


     restricted closed shell calculation for the wavefunction models:
               MP2        - Second Order Moeller Plesset PT


     global parameters for ricc2 program:

        hard restart (reuse of interm.) :  enabled 
        soft restart (reuse of vectors) :  disabled
        threshold for vector function   :    0.100000E-05
        convergence threshold energy    :    0.100000E-06
        linear dependence threshold     :    0.100000E-13
        global print level              :      1
        maximum number of iterations    :   300
        maximum number DIIS vectors     :    10
        max. dim. of reduced space      :   100
        core memory limit (MB)          : *****


     MP2 energy only: Energy will be calculated directly from T2 amplitudes!

     Scratch Directory : 


   =========================================================================

    der. integral neglect threshold  :  0.10E-07
    integral neglect threshold       :  0.33E-12
    integral storage threshold THIZE :  0.10E-04
    integral storage threshold THIME :         5


                  +------------------------------------------+
                  |     Auxiliary basis set information      |
                  +------------------------------------------+

              we will work with the 1s 3p 5d 7f 9g ... basis set
              ...i.e. with spherical basis functions...

   type   atoms  prim   cont   basis
   ---------------------------------------------------------------------------
    c      130    132    132   cc-pVQZ   [8s7p6d5f3g1h|8s7p6d5f3g1h]
    h       28     55     55   cc-pVQZ   [5s4p3d2f1g|5s4p3d2f1g]
   ---------------------------------------------------------------------------
   total:  158  18700  18700
   ---------------------------------------------------------------------------

   total number of primitive shells          :   45
   total number of contracted shells         : 4320
   total number of cartesian basis functions :25490
   total number of SCF-basis functions       :18700


 maximum number of shells which are related by symmetry :  1



     restored sucessfully symmetry projectors
     skipped calculation of symmetry projectors

 The symmetry information takes   1 MB

*---------------------------------------------------------------------*
|               simplified C1 algorithm will be applied               |
*---------------------------------------------------------------------*
  MOs are in ASCII format !


 reading orbital data $scfmo  from file mos
 orbital characterization : scfconv=7



              +--------------------------------------------+
              | list of orbitals that will be kept frozen: |
              +--------------------------------------------+
              |   irrep   index      energy     occ/vir    |
              +--------------------------------------------+
              |   a         1      -11.2612     occupied   |
              |   a         2      -11.2612     occupied   |
              |   a         3      -11.2601     occupied   |
              |   a         4      -11.2601     occupied   |
              |   a         5      -11.2561     occupied   |
              |   a         6      -11.2561     occupied   |
              |   a         7      -11.2556     occupied   |
              |   a         8      -11.2556     occupied   |
              |   a         9      -11.2545     occupied   |
              |   a        10      -11.2545     occupied   |
              |   a        11      -11.2532     occupied   |
              |   a        12      -11.2532     occupied   |
              |   a        13      -11.2531     occupied   |
              |   a        14      -11.2531     occupied   |
              |   a        15      -11.2528     occupied   |
              |   a        16      -11.2528     occupied   |
              |   a        17      -11.2527     occupied   |
              |   a        18      -11.2527     occupied   |
              |   a        19      -11.2527     occupied   |
              |   a        20      -11.2527     occupied   |
              |   a        21      -11.2520     occupied   |
              |   a        22      -11.2520     occupied   |
              |   a        23      -11.2520     occupied   |
              |   a        24      -11.2519     occupied   |
              |   a        25      -11.2519     occupied   |
              |   a        26      -11.2513     occupied   |
              |   a        27      -11.2513     occupied   |
              |   a        28      -11.2513     occupied   |
              |   a        29      -11.2512     occupied   |
              |   a        30      -11.2512     occupied   |
              |   a        31      -11.2512     occupied   |
              |   a        32      -11.2510     occupied   |
              |   a        33      -11.2510     occupied   |
              |   a        34      -11.2509     occupied   |
              |   a        35      -11.2509     occupied   |
              |   a        36      -11.2508     occupied   |
              |   a        37      -11.2501     occupied   |
              |   a        38      -11.2490     occupied   |
              |   a        39      -11.2411     occupied   |
              |   a        40      -11.2411     occupied   |
              |   a        41      -11.2400     occupied   |
              |   a        42      -11.2400     occupied   |
              |   a        43      -11.2389     occupied   |
              |   a        44      -11.2387     occupied   |
              |   a        45      -11.2382     occupied   |
              |   a        46      -11.2380     occupied   |
              |   a        47      -11.2374     occupied   |
              |   a        48      -11.2372     occupied   |
              |   a        49      -11.2369     occupied   |
              |   a        50      -11.2367     occupied   |
              |   a        51      -11.2331     occupied   |
              |   a        52      -11.2331     occupied   |
              |   a        53      -11.2321     occupied   |
              |   a        54      -11.2321     occupied   |
              |   a        55      -11.2318     occupied   |
              |   a        56      -11.2318     occupied   |
              |   a        57      -11.2301     occupied   |
              |   a        58      -11.2301     occupied   |
              |   a        59      -11.2298     occupied   |
              |   a        60      -11.2298     occupied   |
              +--------------------------------------------+



   Molecular Orbital Statistic:
   ============================

   -----------------------------
   orbitals in total:
   -----------------------------
    frozen occupied :     60
    active occupied :    134
    active virtual  :   7796
    frozen virtual  :      0
    all together    :   7990
   -----------------------------


     time in riccmos       cpu:  3 min 12 s  wall:  9 min  3 s  ratio:  0.4

     total memory allocated for calculation of (Q|P)**(-1/2) : 4003 MiB


     calculation of (P|Q) ...
     time in lp2sym        cpu:  4 min  1 s  wall:  0 min 13 s  ratio: 18.7


     calculation of the Cholesky decomposition of (P|Q)**(-1) ...

  ----------------------------------------------------------------------------
  hard_restart flag is disabled because the check sum for the
  (P|Q)**(-1/2) "$chkCCVPQ_ISQR" differs from the reference value:
  reference value:     98511.7346984944    
  computed value :     98511.7346281726    
  relative error :    0.713841521098266E-09
  tolerance      :    0.100000000000000E-11
  the calculation will proceed...
  ----------------------------------------------------------------------------
     time in invmetri      cpu:  2 h 38 min  wall:  0 h  9 min  ratio: 16.6

   threshold for RMS(d[D]) in SCF was     :  0.10E-06
   integral neglect threshold             :  0.33E-12
   derivative integral neglect threshold  :  0.10E-07


   =========================================================================

     Energy of reference wave function is -2289.2647359580001
     Maximum orbital residual is           0.1580184711730E-04


     Number of symmetry-nonredundant auxiliary basis functions:    18700

     Block lengths for integral files:
        frozen occupied (BOI):        9 MiB
        active occupied (BJI):       20 MiB
        active virtual  (BAI):     1113 MiB
        frozen virtual  (BGI):        0 MiB
               general  (BTI):     1140 MiB

   =========================================================================




   **************************************************************************
   *                                                                        *
   *          OPTIMIZATION OF THE GROUND STATE CLUSTER AMPLITUDES           *
   *                                                                        *
   **************************************************************************


   Iter.   MP2 energy       Norm(Omega)    Norm(t1)  Norm(t2)     cpu    wall
   ...........................................................................
    1  -2299.1665346384     ------          0.00000   1.0975734434.39 2033.04
   ...........................................................................


     time in total         cpu:  23 d 21 h 54 min  wall:   1 d  9 h 53 min  ratio: 16.9


     **********************************************************************
     *                                                                    *
     *   RHF  energy                             :  -2289.2647359580      *
     *   MP2 correlation energy (doubles)        :     -9.9017986804      *
     *                                                                    *
     *   Final MP2 energy                        :  -2299.1665346384      *
     *                                                                    *
     *    E(S)   =     -5.9929128403      E(T)   =     -3.9088858401      *
     *    E(OS)  =     -7.2958747870      E(SS)  =     -2.6059238934      *
     *                                                                    *
     *   SCS-MP2 energy                          :  -2298.8884270002      *
     *   (computed with  C(OS) =   1.2000  and  C(SS) =   0.3333)         *
     *                                                                    *
     *   SOS-MP2 energy                          :  -2298.7493731811      *
     *   (computed with  C(OS) =   1.3000)                                *
     *                                                                    *
     *   Norm of MP1 T2 amplitudes               :      1.0975664447      *
     *                                                                    *
     **********************************************************************



    ------------------------------------------------------------------------
         total  cpu-time :  25 days 22 hours  0 minutes and 24 seconds
         total wall-time :   1 days 18 hours 26 minutes and 20 seconds
    ------------------------------------------------------------------------

   ****  ricc2 : all done  ****


    2018-04-10 18:57:32.114 

