
OPTIMIZATION CYCLE 14
Thu Oct 15 03:47:05 PDT 2015
 operating system is UNIX !
 hostname is         c-9-334.local

 statpt (c-9-334.local) : TURBOMOLE V7.0( ) 6 Jul 2015 at 18:30:05
 Copyright (C) 2015 TURBOMOLE GmbH, Karlsruhe


    2015-10-15 03:47:05.913 



                           this is S T A T P T   


                     hessian and coordinate update for
                          stationary point search 

                     by barbara unterreiner, marek sierka,
                           and reinhart ahlrichs

                          quantum chemistry group
                          universitaet  karlsruhe
                                  germany


  Keyword $statpt not found - using default options
 
        ***************  Stationary point options ******************
        ************************************************************
           Maximum allowed trust radius:           3.000000E-01
           Minimum allowed trust radius:           1.000000E-03
           Initial trust radius:                   1.500000E-01
           GDIIS used if gradient norm <           1.000000E-02
           Number of previous steps for GDIIS:       5
           Hessian update method:                  BFGS
                        *** Convergence criteria ***                
           Threshold for energy change:            1.000000E-07
           Threshold for max displacement element: 1.000000E-03
           Threshold for max gradient element :    1.000000E-04
           Threshold for RMS of displacement:      5.000000E-04
           Threshold for RMS of gradient:          5.000000E-04
        ************************************************************
 
     Number of symmetry restricted degrees of freedom:    69
     Constituted by:     3 translational degrees of freedom
                         3 rotational degrees of freedom
                      63 internal degrees of freedom

  *************************************************************************
   ATOM                      CARTESIAN COORDINATES
    1 c      -6.38363374324410      1.60075143952670     -2.08708191171960
    2 c      -4.55409216500349      2.33485579395781     -0.01636782606654
    3 o      -4.66241360155546      4.24503264370641      1.24493698529673
    4 o      -2.73310117207224      0.54794669622275      0.25616224067117
    5 c      -0.87959871727776      1.10283195884249      2.20722037690963
    6 c       1.05071962671221     -1.02813417496728      2.18914797289995
    7 c       2.39218820692110     -1.44923669092856     -0.35423530166165
    8 c       3.68548354653453      0.96076245372319     -1.32023093340132
    9 c       4.32217844151242     -3.59775644968655     -0.08802888677608
   10 h      -7.85363651421554      3.04355351451429     -2.24686471004421
   11 h      -7.23432759422076     -0.23864893173410     -1.65219943150909
   12 h      -5.36783941982251      1.42132292937362     -3.88548840020853
   13 h      -0.02621986492369      2.94874473052662      1.81186515936926
   14 h      -1.85457364740863      1.22667673801525      4.03459169708982
   15 h       0.10918186978783     -2.79131089915030      2.76748129307940
   16 h       2.47056022561508     -0.59075699821228      3.65201545404386
   17 h       0.95924581592756     -2.02645877493654     -1.74819479651900
   18 h       5.00967544890575      1.70640988816819      0.10165755962805
   19 h       4.76748320655084      0.56627033399179     -3.04848794148482
   20 h       2.31543867895145      2.45333548071262     -1.76870567300476
   21 h       5.82014035358998     -3.07488525801960      1.25725751381355
   22 h       3.42291672871310     -5.33821966914204      0.60304138380260
   23 h       5.22422429002227     -4.02308675450450     -1.90949182420837
  *************************************************************************
   ATOM                      CARTESIAN GRADIENTS  
    1 c       0.00000289126831     -0.00000051453388     -0.00000347843020
    2 c      -0.00000436095965     -0.00000117786607     -0.00001024233190
    3 o       0.00000025707014      0.00000102169997      0.00000511776229
    4 o      -0.00000064967672      0.00000062470967      0.00000255556203
    5 c       0.00000118935365      0.00000206571370      0.00000257772147
    6 c       0.00000107008152     -0.00000113366948     -0.00000561514409
    7 c       0.00000088291804      0.00000052032145      0.00000161854050
    8 c       0.00000011448557      0.00000228073763     -0.00000004620219
    9 c       0.00000130854297     -0.00000212302474      0.00000045155752
   10 h       0.00000009443240      0.00000056215099      0.00000325891512
   11 h      -0.00000021162224      0.00000002195385      0.00000245868437
   12 h       0.00000046899565     -0.00000030325916      0.00000067141974
   13 h      -0.00000027920757     -0.00000188950134     -0.00000022176681
   14 h      -0.00000097749128     -0.00000029551131     -0.00000103408371
   15 h      -0.00000057029965      0.00000071257438      0.00000064865407
   16 h       0.00000069896433      0.00000050037368      0.00000047692163
   17 h      -0.00000080847837     -0.00000084337669     -0.00000054357890
   18 h      -0.00000094010757     -0.00000069458475     -0.00000058007776
   19 h      -0.00000058086146     -0.00000010024239      0.00000078291081
   20 h       0.00000109738630     -0.00000054850194      0.00000030705650
   21 h      -0.00000009586095      0.00000012761519      0.00000029216749
   22 h      -0.00000039643845      0.00000014908675      0.00000007904958
   23 h      -0.00000048287585      0.00000087846471      0.00000031208948
  *************************************************************************

  norm of actual CARTESIAN gradient:  1.65960E-05
  norm of actual INTERNAL  gradient:  1.60693E-05

  ENERGY =    -425.9585486252 a.u.; # of cycle =   14

  Approximate Hessian read from $hessapprox data section

  Hessian updated according to BFGS formula
  Number of zero Hessian eigenvalues:   0
  Number of structures for GDIIS interpolation:    4
  GDIIS step:     0.000281

  Transforming internal coordinate displacements to Cartesian space
      Iteration   1 residual norm     2.813553E-04
      Iteration   2 residual norm     1.429368E-07
      Iteration   3 residual norm     1.445461E-14
      Transformation converged
      Residual norm:    1.445461E-14 after    3 iterations

      ****************************************************************** 
                          CONVERGENCE INFORMATION

                               Converged?     Value      Criterion
             Energy change         yes      0.0000001   0.0000001
             RMS of displacement   yes      0.0000354   0.0005000
             RMS of gradient       yes      0.0000020   0.0005000
             MAX displacement      yes      0.0002551   0.0010000
             MAX gradient          yes      0.0000071   0.0001000
      ****************************************************************** 


    ------------------------------------------------------------------------
         total  cpu-time :   0.05 seconds
         total wall-time :   0.05 seconds
    ------------------------------------------------------------------------


   ****  statpt : all done  ****


    2015-10-15 03:47:05.948 

fine, there is no data group "$actual step"
next step = ridft
 operating system is UNIX !
 hostname is         c-9-334.local

 ridft (c-9-334.local) : TURBOMOLE V7.0( ) 28 Sep 2015 at 09:54:12
 Copyright (C) 2015 TURBOMOLE GmbH, Karlsruhe


    2015-10-15 03:47:05.995 



                                  r i d f t

                        DFT program with RI approximation 
                                for coulomb part 




                                                 
                                 References:     
                                                 
          TURBOMOLE:                             
              R. Ahlrichs, M. Baer, M. Haeser, H. Horn, and
              C. Koelmel
              Electronic structure calculations on workstation
              computers: the program system TURBOMOLE
              Chem. Phys. Lett. 162: 165 (1989)
          Density Functional:                              
              O. Treutler and R. Ahlrichs                      
              Efficient Molecular Numerical Integration Schemes
              J. Chem. Phys. 102: 346 (1995)                   
          Parallel Version:                                
              Performance of parallel TURBOMOLE for Density    
              Functional Calculations                          
              M. v. Arnim and R. Ahlrichs                      
              J. Comp. Chem. 19: 1746 (1998)                   
          RI-J Method:                                     
              Auxiliary Basis Sets to approximate Coulomb      
              Potentials                                       
              Chem. Phys. Lett. 240: 283 (1995)                
              K. Eichkorn, O. Treutler, H. Oehm, M. Haeser     
              and R. Ahlrichs                                  
              Chem. Phys. Lett. 242: 652 (1995)                
                                                           
              Auxiliary Basis Sets for Main Row Atoms and their
              Use to approximate Coulomb Potentials            
              K. Eichkorn, F. Weigend, O. Treutler and         
              R. Ahlrichs                                      
              Theo. Chem. Acc. 97: 119 (1997)                   
                                                           
              Accurate Coulomb-fitting basis sets for H to Rn 
              F. Weigend                                        
              Phys. Chem. Chem. Phys. 8: 1057 (2006)            
                                                           
          Multipole accelerated RI-J (MARI-J):             
              Fast evaluation of the Coulomb potential for     
              electron densities using multipole accelerated   
              resolution of identity approximation             
              M. Sierka, A. Hogekamp and R. Ahlrichs           
              J. Chem. Phys. 118: 9136 (2003)                  
          RI-JK Method:                                     
              A fully direct RI-HF algorithm: Implementation,
              optimised auxiliary basis sets, demonstration of
              accuracy and efficiency                         
              F. Weigend                                      
              Phys. Chem. Chem. Phys. 4: 4285 (2002)           
          Two-component HF and DFT with spin-orbit coupling:  
              Self-consistent treatment of spin-orbit         
              interactions with efficient Hartree-Fock and    
              density functional methods                      
              M. K. Armbruster, F. Weigend, C. van Wüllen and 
              W. Klopper                                      
              Phys. Chem. Chem. Phys. 10: 1748 (2008)         
          Relativistic all-electron 2c calculations           
              An efficient implementation of two-component    
              relativistic exact-decoupling methods for large 
              molecules                                       
              D. Peng, N. Middendorf, F. Weigend, M. Reiher   
              J. Chem. Phys. 138, 184105 (2013)               
                                         


 


              +--------------------------------------------------+
              |      general information about current run       |
              +--------------------------------------------------+

 

 DENSITY CONVERGENCE CHECK SWITCHED ON !
 SCF CONVERGENCE IF RMS(delta[D]) <     0.1000000000E-06

 Slater Dirac exchange with PW LDA corr. functional
 A DFT calculation using the RI-J approximation will be carried out.
 Allocatable memory for RI due to $ricore (MB):        7000


              +--------------------------------------------------+
              | Atomic coordinate, charge and isotop information |
              +--------------------------------------------------+

                    atomic coordinates            atom    charge  isotop
         -6.38346705    1.60073575   -2.08713540    c      6.000     0
         -4.55388706    2.33490501   -0.01646602    c      6.000     0
         -4.66193158    4.24534421    1.24445965    o      8.000     0
         -2.73318508    0.54776106    0.25641648    o      8.000     0
         -0.87963799    1.10269388    2.20741404    c      6.000     0
          1.05071804   -1.02823480    2.18927278    c      6.000     0
          2.39209037   -1.44923468   -0.35418768    c      6.000     0
          3.68523367    0.96083393   -1.32021158    c      6.000     0
          4.32218568   -3.59767356   -0.08813524    c      6.000     0
         -7.85320970    3.04375999   -2.24730103    h      1.000     0
         -7.23450659   -0.23844073   -1.65199117    h      1.000     0
         -5.36760559    1.42079777   -3.88545504    h      1.000     0
         -0.02630818    2.94862724    1.81204161    h      1.000     0
         -1.85455718    1.22652274    4.03482085    h      1.000     0
          0.10923894   -2.79145070    2.76758218    h      1.000     0
          2.47059819   -0.59086665    3.65209988    h      1.000     0
          0.95910307   -2.02648330   -1.74808470    h      1.000     0
          5.00944636    1.70654016    0.10163103    h      1.000     0
          4.76718726    0.56641169   -3.04851568    h      1.000     0
          2.31509651    2.45334506   -1.76862293    h      1.000     0
          5.82022437   -3.07475243    1.25704560    h      1.000     0
          3.42305104   -5.33818179    0.60298674    h      1.000     0
          5.22412251   -4.02295986   -1.90966438    h      1.000     0
 
       center of nuclear mass  :   -0.88255883    0.54551346    0.21766932
       center of nuclear charge:   -0.74443942    0.46072034    0.18276233

              +--------------------------------------------------+
              |               basis set information              |
              +--------------------------------------------------+

              we will work with the 1s 3p 5d 7f 9g ... basis set
              ...i.e. with spherical basis functions...

   type   atoms  prim   cont   basis
   ---------------------------------------------------------------------------
    c        7     46     31   def2-TZVP   [5s3p2d1f|11s6p2d1f]
    o        2     46     31   def2-TZVP   [5s3p2d1f|11s6p2d1f]
    h       14      8      6   def2-TZVP   [3s1p|5s1p]
   ---------------------------------------------------------------------------
   total:   23    526    363
   ---------------------------------------------------------------------------

   total number of primitive shells          :   46
   total number of contracted shells         :  155
   total number of cartesian basis functions :  408
   total number of SCF-basis functions       :  363


 integral neglect threshold       :  0.82E-11
 integral storage threshold THIZE :  0.10E-04
 integral storage threshold THIME :         5

 RI-J AUXILIARY BASIS SET information:

              we will work with the 1s 3p 5d 7f 9g ... basis set
              ...i.e. with spherical basis functions...

   type   atoms  prim   cont   basis
   ---------------------------------------------------------------------------
    c        7     70     49   def2-TZVP   [6s4p3d1f1g|12s5p4d2f1g]
    o        2     70     49   def2-TZVP   [6s4p3d1f1g|12s5p4d2f1g]
    h       14     16     11   def2-TZVP   [3s1p1d|5s2p1d]
   ---------------------------------------------------------------------------
   total:   23    854    595
   ---------------------------------------------------------------------------

   total number of primitive shells          :   56
   total number of contracted shells         :  205
   total number of cartesian basis functions :  717
   total number of SCF-basis functions       :  595


 symmetry group of the molecule :   c1 

 the group has the following generators :
   c1(z)

    1 symmetry operations found

 there are 1 real representations :   a   

 maximum number of shells which are related by symmetry :  1


    mo occupation :
   irrep   mo's   occupied
    a      363       36
 
 number of basis functions   :          363
 number of occupied orbitals :           36
 
  
           ------------------
           density functional
           ------------------
 Slater Dirac exchange with PW LDA corr. functional
 iterations will be done with small grid
  
 spherical integration : Lebedev's spherical grid
 spherical gridsize    :           5
    i.e. gridpoints    :         590
 value for diffuse not defined
 radial integration    : Chebyshev 2nd kind (scaling 3)
 radial gridsize       :           8
 integration cells     :          23
 partition function    : becke
 partition sharpness   :           3
  

 biggest AO integral is expected to be     7.998976882
  
           ------------------------
               RI-J - INFORMATION
           ------------------------
 Contributions to RI integral batches: 
  neglected integral batches:        2060
  direct contribution:                  0
  memory contribution:       10030
 Memory core needed for (P|Q) and Cholesky      3 MByte
 Memory core minimum needed except of (P|Q)     1 MByte
 Total minimum memory core needed (sum)         4 MByte
  
 ****************************************
 Memory allocated for RI-J   385 MByte
 ****************************************
                                            

          ------------------------
          nuclear repulsion energy  :   471.585080757    
          ------------------------

 
          -----------------
          -S,T+V- integrals
          -----------------

 1e-integrals will be neglected if expon. factor < 0.819108E-12
 
   Difference densities algorithm switched on.
   The maximal number of linear combinations of
   difference densities is          20 .

 automatic virtual orbital shift switched on 
      shift if e(lumo)-e(homo) < 0.10000000    


 DIIS switched on: error vector is FDS-SDF
 Max. Iterations for DIIS is     :   4
 DIIS matrix (see manual) 
    Scaling factor of diagonals  :  1.200
    threshold for scaling factor :  0.000

 scf convergence criterion : increment of total energy < .1000000D-06
                  and increment of one-electron energy < .1000000D-03

  MOs are in ASCII format !


 reading orbital data $scfmo  from file mos . 

 orbital characterization : scfconv=7
 

 DSCF restart information will be dumped onto file mos


 Starting SCF iterations

          Overall gridpoints after grid construction =        104086

 ITERATION  ENERGY          1e-ENERGY        2e-ENERGY     RMS[dD(SAO)]   TOL
   1  -422.14628785426    -1511.9031563     618.17178769    0.000D+00 0.817D-11
                            Exc = -56.4838140346     Coul =  674.655601722    
                              N = 71.999917650    
                            current damping = 0.700
 
          max. resid. norm for Fia-block=  7.114D-05 for orbital     11a         
          max. resid. fock norm         =  6.958D-04 for orbital    362a         

 ITERATION  ENERGY          1e-ENERGY        2e-ENERGY     RMS[dD(SAO)]   TOL
   2  -422.14628792174    -1511.9032137     618.17184499    0.112D-05 0.518D-11
                            Exc = -56.4838235072     Coul =  674.655668501    
                              N = 71.999917650    
                            current damping = 0.700
 
          Norm of current diis error: 0.37218E-03
          max. resid. norm for Fia-block=  3.382D-05 for orbital     11a         
          max. resid. fock norm         =  2.873D-04 for orbital    362a         

 ENERGY & DENSITY CONVERGED !

          Overall gridpoints after grid construction =        342815

 ITERATION  ENERGY          1e-ENERGY        2e-ENERGY     RMS[dD(SAO)]   TOL
   3  -422.14629438102    -1511.9031394     618.17176428    0.409D-06 0.409D-11
                            Exc = -56.4838163742     Coul =  674.655580656    
                              N = 71.999987530    
                            current damping = 0.750
 
          Norm of current diis error: 0.16042E-03
          max. resid. norm for Fia-block=  1.368D-05 for orbital     11a         
          max. resid. fock norm         =  1.181D-04 for orbital    362a         

 End of SCF iterations

   convergence criteria satisfied after    3 iterations


                  ------------------------------------------ 
                 |  total energy      =   -422.14629438102  |
                  ------------------------------------------ 
                 :  kinetic energy    =    418.87579459276  :
                 :  potential energy  =   -841.02208897378  :
                 :  virial theorem    =      1.99225268626  :
                 :  wavefunction norm =      1.00000000000  :
                  .......................................... 


 orbitals $scfmo  will be written to file mos

    irrep                 32a         33a         34a         35a         36a   
 eigenvalues H         -0.29390    -0.29200    -0.28502    -0.26745    -0.23644
            eV          -7.9975     -7.9458     -7.7558     -7.2778     -6.4339
 occupation              2.0000      2.0000      2.0000      2.0000      2.0000 

    irrep                 37a         38a         39a         40a         41a   
 eigenvalues H         -0.04043    -0.00115     0.02040     0.03218     0.04166
            eV          -1.1003     -0.0312      0.5551      0.8757      1.1335
 
 
 
 
 ==============================================================================
                           electrostatic moments
 ==============================================================================

 reference point for electrostatic moments:    0.00000   0.00000   0.00000

 
              nuc           elec       ->  total
 ------------------------------------------------------------------------------
                          charge      
 ------------------------------------------------------------------------------
          72.000000     -72.000000       0.000000
 
 ------------------------------------------------------------------------------
                       dipole moment  
 ------------------------------------------------------------------------------
   x     -53.599638      53.861631       0.261992
   y      33.171865     -33.892878      -0.721013
   z      13.158887     -13.482622      -0.323734
 
   | dipole moment | =     0.8326 a.u. =     2.1164 debye 
 
 ------------------------------------------------------------------------------
                     quadrupole moment
 ------------------------------------------------------------------------------
  xx    1121.085076   -1163.118972     -42.033896
  yy     401.281575    -449.375301     -48.093726
  zz     192.819465    -234.071284     -41.251819
  xy    -476.693194     480.623193       3.929999
  xz      25.819511     -22.470009       3.349502
  yz       8.272153     -10.514219      -2.242067
 
     1/3  trace=     -43.793147
     anisotropy=      11.710900
 
 ==============================================================================
 
 


    ------------------------------------------------------------------------
         total  cpu-time :   8.92 seconds
         total wall-time :   8.92 seconds
    ------------------------------------------------------------------------


   ****  ridft : all done  ****


    2015-10-15 03:47:14.911 

fine, there is no data group "$actual step"
next step = rirpa
 
 
    *************************************************************************
    *************************** PROGRAM RIRPA *******************************
    ******                                                             ******
    ******              H. Eshuis, J. E. Bates and F. Furche           ******
    ******                                                             ******
    ****** Nov 2011                                                    ******
    ****** Copyright TURBOMOLE GmbH                                    ******
    *************************************************************************
    
    
                                References:                                  
    
                   RIRPA:                                                    
                     H. Eshuis, J. Yarkony and F. Furche                     
                     Fast computation of molecular random phase              
                     approximation correlation energies using resolution     
                     of the identity imaginary frequency integration         
                     J. Chem. Phys. 132: 234114 (2010)                       
    
                     H. Eshuis, J. E. Bates and F. Furche                    
                     Electron correlation methods based on                   
                     the random phase approximation                          
                     Theor. Chem. Acc.  131: 1084 (2012)                     
    
                   TWO-COMPONENT RIRPA:                                      
                     M. Kuehn                                                
                     Correlation energies from the                           
                     two-component random-phase approximation                
                     J. Chem. Theory Comput. 10: 623 (2014)                  
    
                   RIRPA GRADIENTS:                                          
                     Asbjoern M. Burow, Jefferson E. Bates, Filipp Furche*,  
                     and Henk Eshuis                                         
                     Analytical First-Order Molecular Properties and Forces  
                     within the Adiabatic Connection Random Phase            
                     Approximation                                           
                     J. Chem. Theory Comput. (2013, ASAP),                   
                     DOI: 10.1021/ct4008553                                  
    
    
    
 hostname is         c-9-334.local

 rirpa (c-9-334.local) : TURBOMOLE V7.0( ) 28 Sep 2015 at 09:54:12
 Copyright (C) 2015 TURBOMOLE GmbH, Karlsruhe


    2015-10-15 03:47:14.964 

 number of mkl threads =           8
 
                FOUND RI-J FLAG
 
  HF exact exchange energy will be computed using RI-J.


              +--------------------------------------------------+
              | Atomic coordinate, charge and isotop information |
              +--------------------------------------------------+

                    atomic coordinates            atom    charge  isotop
         -6.38346705    1.60073575   -2.08713540    c      6.000     0
         -4.55388706    2.33490501   -0.01646602    c      6.000     0
         -4.66193158    4.24534421    1.24445965    o      8.000     0
         -2.73318508    0.54776106    0.25641648    o      8.000     0
         -0.87963799    1.10269388    2.20741404    c      6.000     0
          1.05071804   -1.02823480    2.18927278    c      6.000     0
          2.39209037   -1.44923468   -0.35418768    c      6.000     0
          3.68523367    0.96083393   -1.32021158    c      6.000     0
          4.32218568   -3.59767356   -0.08813524    c      6.000     0
         -7.85320970    3.04375999   -2.24730103    h      1.000     0
         -7.23450659   -0.23844073   -1.65199117    h      1.000     0
         -5.36760559    1.42079777   -3.88545504    h      1.000     0
         -0.02630818    2.94862724    1.81204161    h      1.000     0
         -1.85455718    1.22652274    4.03482085    h      1.000     0
          0.10923894   -2.79145070    2.76758218    h      1.000     0
          2.47059819   -0.59086665    3.65209988    h      1.000     0
          0.95910307   -2.02648330   -1.74808470    h      1.000     0
          5.00944636    1.70654016    0.10163103    h      1.000     0
          4.76718726    0.56641169   -3.04851568    h      1.000     0
          2.31509651    2.45334506   -1.76862293    h      1.000     0
          5.82022437   -3.07475243    1.25704560    h      1.000     0
          3.42305104   -5.33818179    0.60298674    h      1.000     0
          5.22412251   -4.02295986   -1.90966438    h      1.000     0
 
       center of nuclear mass  :   -0.88255883    0.54551346    0.21766932
       center of nuclear charge:   -0.74443942    0.46072034    0.18276233
              +-------------------------------------------------+
              |        Rotational Constants Section             |
              +-------------------------------------------------+
                                   Center of Mass [a.u]:
              -0.88255882514559         0.54551346405828         0.21766931709599
                     Principal Moments of Inertia [a.u.]
             549.79863453760004      2514.51011983937678      2592.19458509777905
                       Rotational constants A,B,C [a.u.]
               0.00090942386647         0.00019884588893         0.00019288675429
                     Rotational constants A,B,C [cm**-1]
               0.10949406337167         0.02394092036327         0.02322344428840
                        Rotational constants A,B,C [MHz]
            3282.54943945996774       717.73073624875246       696.22134464461078

   * BASIS SET information:

              +--------------------------------------------------+
              |               basis set information              |
              +--------------------------------------------------+

              we will work with the 1s 3p 5d 7f 9g ... basis set
              ...i.e. with spherical basis functions...

   type   atoms  prim   cont   basis
   ---------------------------------------------------------------------------
    c        7     46     31   def2-TZVP   [5s3p2d1f|11s6p2d1f]
    o        2     46     31   def2-TZVP   [5s3p2d1f|11s6p2d1f]
    h       14      8      6   def2-TZVP   [3s1p|5s1p]
   ---------------------------------------------------------------------------
   total:   23    526    363
   ---------------------------------------------------------------------------

   total number of primitive shells          :   46
   total number of contracted shells         :  155
   total number of cartesian basis functions :  408
   total number of SCF-basis functions       :  363


   * AUXILIARY BASIS SET information:

              +--------------------------------------------------+
              |               basis set information              |
              +--------------------------------------------------+

              we will work with the 1s 3p 5d 7f 9g ... basis set
              ...i.e. with spherical basis functions...

   type   atoms  prim   cont   basis
   ---------------------------------------------------------------------------
    c        7     81     76   def2-TZVP   [8s6p4d3f1g|8s6p5d3f1g]
    o        2     81     76   def2-TZVP   [8s6p4d3f1g|8s6p5d3f1g]
    h       14     23     15   def2-TZVP   [4s2p1d|4s3p2d]
   ---------------------------------------------------------------------------
   total:   23   1051    894
   ---------------------------------------------------------------------------

   total number of primitive shells          :   55
   total number of contracted shells         :  296
   total number of cartesian basis functions : 1079
   total number of SCF-basis functions       :  894


   * RIJ AUXILIARY BASIS SET information:

              +--------------------------------------------------+
              |               basis set information              |
              +--------------------------------------------------+

              we will work with the 1s 3p 5d 7f 9g ... basis set
              ...i.e. with spherical basis functions...

   type   atoms  prim   cont   basis
   ---------------------------------------------------------------------------
    c        7     70     49   def2-TZVP   [6s4p3d1f1g|12s5p4d2f1g]
    o        2     70     49   def2-TZVP   [6s4p3d1f1g|12s5p4d2f1g]
    h       14     16     11   def2-TZVP   [3s1p1d|5s2p1d]
   ---------------------------------------------------------------------------
   total:   23    854    595
   ---------------------------------------------------------------------------

   total number of primitive shells          :   56
   total number of contracted shells         :  205
   total number of cartesian basis functions :  717
   total number of SCF-basis functions       :  595


 reading orbital data $scfmo  from file mos . 

 orbital characterization : scfconv=7
 

 integral neglect threshold       :  0.27E+02

 scfconv           7

 MAXIMUM CORE MEMORY WHICH CAN BE ALLOCATED DYNAMICALLY = 20000 MiB
              ( or 2621440000 double words )


 there are 1 real representations :   a   

 maximum number of shells which are related by symmetry :  1


         --------------------------------------------------------------
                   checking mo's by calculating trace(D*S)

              number of electrons : 
                 from trace(D*S)         :   71.999999999995
                 from occupation numbers :   72.000000000000

              molecular charge           :    0.000000000000
         --------------------------------------------------------------

 time elapsed for calculating density matrices :   0.080 sec
 all orbitals will be active in the correlation treatment

     total memory allocated for calculation of (Q|P)**(-1/2) : 10 MiB


     calculation of (P|Q) ...
     time in lp2sym        cpu:  0.14 sec    wall:  0.02 sec    ratio:  8.0


     calculation of the Cholesky decomposition of (P|Q)**(-1) ...
     time in invmetri      cpu:  0.58 sec    wall:  0.07 sec    ratio:  8.0

   threshold for RMS(d[D]) in SCF was     :  0.10E-06
   integral neglect threshold             :  0.31E-11
   derivative integral neglect threshold  :  0.10E-06


 setting up bound for integral derivative estimation

 increment for numerical differentiation : 0.00050000
 total memory allocated for calculation of (Q|P)**(-1/2) : 10 MiB
 Dividing biap into         4482  block chunks,
 using                     2 MB per block
 Reserved                   9996 MB for BLAS routines
 Estimated total memory usage:                  19999 MB
 number of passes:            1
 
 Number of eigenvalues < 6e-3:            0
 
 
            -----------------------------
            Complex frequency integration
            -----------------------------
 
 Number of Clenshaw-Curtis nodes:          200
 Optimized scaling parameter    :    2.17655999497221     
 Sensitivity measure            :  -2.168167034799495E-011
 
 Allocatable memory for RI due to $ricore (MB):        7000

 there are 1 real representations :   a   

 maximum number of shells which are related by symmetry :  1

  
           ------------------------
               RI-J - INFORMATION
           ------------------------
 Contributions to RI integral batches: 
  neglected integral batches:        1581
  direct contribution:                  0
  memory contribution:       10509
 
          -----------------
          -S,T+V- integrals
          -----------------

 1e-integrals will be neglected if expon. factor < 0.308928E-11

          ------------------------
          nuclear repulsion energy  :   471.585080757    
          ------------------------


                  -------------------------------------------- 
                 |  HXX+RIRPA total energy     =   -425.95854724874  |
                  --------------------------------------------- 
                 :  RIRPA correlation energy   =     -2.96276006311  :
                 :  HXX total energy           =   -422.99578718564  :
                 :  Hartree energy             =    674.65558065619  :
                 :  Exact Exchange energy      =    -57.33330917803  :
                  ............................................. 


    ------------------------------------------------------------------------
    Rirpa Energy profiling         cpu                    wall         ratio
    ------------------------------------------------------------------------
    module                         sec     %               sec     %
    ------------------------------------------------------------------------
    RIRPA_energy                341.2  100.00           72.4  100.00   4.7
    STARTUP                       0.1    0.03            0.1    0.15   1.0
    riccmos                       0.8    0.25            0.1    0.14   8.0
    riccaux                       0.8    0.22            0.1    0.13   8.1
    riccbound                     3.2    0.94            0.4    0.59   7.5
    ccmkbaoi                     20.6    6.04            2.6    3.60   7.9
    ecrpa                       276.6   81.07           34.8   48.02   8.0
    tread                        54.5   15.99            6.9    9.46   8.0
    tqbuild                     177.0   51.89           22.1   30.55   8.0
    trpaln                       13.3    3.91            1.7    2.30   8.0
    ehxx                         38.8   11.37           34.3   47.31   1.1
    ------------------------------------------------------------------------
    sum                         927.2  271.78          175.5  242.30   5.3
    ------------------------------------------------------------------------

 residuum convergence criterium   :  0.10E-04


 integral neglect threshold       :  0.82E-11
 integral storage threshold THIZE :  0.10E-04
 integral storage threshold THIME :         5


 WARNING : cannot change filename for statistics 
  
           ------------------
           density functional
           ------------------
 Slater Dirac exchange with PW LDA corr. functional
 iterations will be done with small grid
  
 spherical integration : Lebedev's spherical grid
 spherical gridsize    :           5
    i.e. gridpoints    :         590
 value for diffuse not defined
 radial integration    : Chebyshev 2nd kind (scaling 3)
 radial gridsize       :           8
 integration cells     :          23
 partition function    : becke
 partition sharpness   :           3
  
 preparing numerical integration ....
          Overall gridpoints after grid construction =        104086

 Calculating ground state density on molecular grid

 Integral of ground state density: N =   71.99991764946263    



          IRREP   tensor space dimension   number of roots

           a             11772                   1
 number of passes:    1
 
 Number of eigenvalues < 6e-3:            0
 
 
            -----------------------------
            Complex frequency integration
            -----------------------------
 
 Number of Clenshaw-Curtis nodes:          200
 Optimized scaling parameter    :    2.17655999497221     
 Sensitivity measure            :  -2.168167034799495E-011
 
 Contributions to RI integral batches: 
  neglected integral batches:        1755
  direct contribution:              10335
  memory contribution:           0

 maximum number of Davidson iterations set to   25


 logfile dipl_a    exists already

 found      1 converged vectors on dipl_a   
 read       1 vectors from logfile dipl_a   


                    ------------------

                     CPKS equations   

                    ------------------


                       Block Davidson iteration


 total number of roots to be determined:   1


 maximum core memory set to 20000 MB,
 corresponding to    15494 vectors in CAO basis


 maximum number of simultaneously treated vectors (including degeneracy):        1


 Iteration IRREP Converged      Max. Euclidean
                 roots          residual norm

    1       a        0        7.186360126934791D-04
 
    2       a        0        6.632427869365412D-05
 
    3       a        0        1.412964737264545D-05
 
    4       a        1        4.913157015642101D-06
 

 converged!


 Switching to fine grid

 preparing numerical integration ....
          Overall gridpoints after grid construction =        342815

 Calculating ground state density on molecular grid

 Integral of ground state density: N =   71.99998752990007    



 Iteration IRREP Converged      Max. Euclidean
                 roots          residual norm

    5       a        0        1.151138742422879D-05
 

 NOTE: Residual norms are larger than 1.00D-05 due to mgrid option!

 Eigenpairs written on logfile dipl_a   



 IRREP   Vector     Frequency            Euclidean residual norm

  a         1    0.000000000000000D+00    1.151138742422879D-05
 

                    -------------------

                     relaxed densities 

                    -------------------

    ----------------------------------------
     S+T+V CONTRIBUTIONS TO ENERGY GRADIENT 
    ----------------------------------------

 1e-integral 1st. derivatives will be neglected if expon. factor < 0.100000E-10


    -----------------------------------------------
     TWO ELECTRON CONTRIBUTIONS TO ENERGY GRADIENT 
    -----------------------------------------------

 setting up bound for integral derivative estimation

 increment for numerical differentiation : 0.00050000

 biggest AO integral is expected to be     7.998976882
 biggest cartesian 1st derivative AO integral is expected to be    17.678530758

 biggest 1-particle AO density matrix element is expected to be    0.9484791825

 core memory to be involved in 2e-gradient :
   symmetry shell pair data              :         1
   two particle density+dens. estimates  :     62715
   derivative integrals                  :    313877
   ij-primitive data                     :       324
   derivative integral bound             :     36270
   totally                               :    350469


 setting up bound for integral derivative estimation

 increment for numerical differentiation : 0.00050000

 biggest AO integral is expected to be     7.998976882
 biggest cartesian 1st derivative AO integral is expected to be    17.678530758

 2e-integral 1st. derivatives will be neglected if expon. factor < 0.935762E-20
 outer boundary for 2e-integral derivative neglection is 0.173364E-20

 Integrated ground state density     :   71.99998752989721    


          ------------------------------------------------
           cartesian gradient of the energy (hartree/bohr)
          ------------------------------------------------

  ATOM      1 c           2 c           3 o           4 o           5 c 
dE/dx  0.1519434D-05 -0.8249506D-06 -0.1345220D-05  0.8282235D-06 -0.2328547D-07
dE/dy  0.1670692D-06 -0.1247605D-05 -0.6386287D-06  0.1321585D-05  0.6355467D-06
dE/dz -0.2177818D-05 -0.3619274D-05  0.3894326D-05 -0.4027531D-06  0.3466480D-06

  ATOM      6 c           7 c           8 c           9 c          10 h 
dE/dx  0.1863862D-06  0.8050396D-07  0.5222763D-07  0.2853798D-06 -0.1088208D-06
dE/dy -0.4560319D-06  0.2482575D-06  0.5431737D-06 -0.8396373D-06  0.2353789D-06
dE/dz -0.1675948D-05  0.4153497D-06 -0.1267805D-06  0.3551051D-06  0.1216386D-05

  ATOM     11 h          12 h          13 h          14 h          15 h 
dE/dx  0.1408071D-07 -0.8798468D-07 -0.2879169D-07 -0.2966000D-06 -0.3204878D-06
dE/dy  0.1889434D-06 -0.3556400D-06 -0.3745431D-06 -0.8555200D-07  0.4205576D-06
dE/dz  0.9857444D-06  0.2696602D-06  0.3340679D-07 -0.3301225D-06  0.2022641D-06

  ATOM     16 h          17 h          18 h          19 h          20 h 
dE/dx  0.1595042D-06  0.1701190D-08 -0.2483709D-06 -0.1270795D-06  0.2608926D-06
dE/dy -0.6495987D-07 -0.1950238D-06 -0.2221724D-06  0.6249898D-07 -0.8199663D-07
dE/dz  0.1982571D-06 -0.6450167D-07  0.1775277D-08  0.2149020D-06  0.1696920D-06

  ATOM     21 h          22 h          23 h 
dE/dx -0.8581624D-07 -0.1152280D-06 -0.5600644D-07
dE/dy  0.1326074D-08  0.2309585D-06  0.3474306D-06
dE/dz  0.5859918D-07 -0.7322012D-07 -0.4373133D-07
 
 resulting FORCE  (fx,fy,fz) = (-.280D-06,-.159D-06,-.152D-06)
 resulting MOMENT (mx,my,mz) = (0.932D-05,-.309D-05,0.700D-05)


 **********************************************************************
  |maximum component of gradient| : 0.38943260E-05  (atom  3 o )       
   gradient norm                  : 0.71739632E-05
 **********************************************************************

 exx =      -0.000000 eyy =      -0.000005 ezz =       0.000000
 eyz =       0.000004 exz =      -0.000004 exy =      -0.000001

   ***  cartesian gradients written onto <gradient>  ***
 
 
 
 ==============================================================================
                           electrostatic moments
 ==============================================================================

 reference point for electrostatic moments:    0.00000   0.00000   0.00000

 
              nuc           gs,e       ->  gs,tot          rpa       ->  total
 ------------------------------------------------------------------------------
                          charge      
 ------------------------------------------------------------------------------
          72.000000     -72.000000       0.000000      -0.000000       0.000000
 
 ------------------------------------------------------------------------------
                       dipole moment  
 ------------------------------------------------------------------------------
   x     -53.599638      53.861631       0.261992      -0.000903       0.261089
   y      33.171865     -33.892878      -0.721013       0.050592      -0.670422
   z      13.158887     -13.482622      -0.323734       0.037473      -0.286261
 
   | dipole moment | =     0.7743 a.u. =     1.9681 debye 
 
 ------------------------------------------------------------------------------
                     quadrupole moment
 ------------------------------------------------------------------------------
  xx    1121.085076   -1163.118972     -42.033896      -0.197790     -42.231686
  yy     401.281575    -449.375301     -48.093726       0.156806     -47.936920
  zz     192.819465    -234.071284     -41.251819      -0.104577     -41.356396
  xy    -476.693194     480.623193       3.929999      -0.087700       3.842299
  xz      25.819511     -22.470009       3.349502      -0.143820       3.205682
  yz       8.272153     -10.514219      -2.242067       0.092173      -2.149894
 
     1/3  trace=     -43.841668
     anisotropy=      11.282494
 
 ==============================================================================
 

    ------------------------------------------------------------------------
    Rirpa profiling                cpu                    wall         ratio
    ------------------------------------------------------------------------
    module                         sec     %               sec     %
    ------------------------------------------------------------------------
    RIRPA                      2074.0  100.00          531.6  100.00   3.9
    RIRPA_energy                341.2   16.45           72.4   13.63   4.7
    riccbound                     3.2    0.15            0.4    0.08   7.5
    ccmkbaoi                     20.6    0.99            2.6    0.49   7.9
    ecrpa                       276.6   13.34           34.8    6.54   8.0
    tread                        54.5    2.63            6.9    1.29   8.0
    tqbuild                     177.0    8.54           22.1    4.16   8.0
    trpaln                       13.3    0.64            1.7    0.31   8.0
    ehxx                         38.8    1.87           34.3    6.45   1.1
    RIRPA_grad                 1732.9   83.55          459.2   86.37   3.8
    SETUP_grad                    6.4    0.31            1.0    0.20   6.1
    rirhs                      1279.0   61.67          163.7   30.80   7.8
    respon                       81.9    3.95           15.5    2.92   5.3
    rparelax                     30.0    1.45            4.8    0.91   6.2
    egdfin                      311.0   15.00          270.4   50.87   1.2
    ------------------------------------------------------------------------
    sum                        6442.5  310.63         1621.9  305.09   4.0
    ------------------------------------------------------------------------


    ------------------------------------------------------------------------
         total  cpu-time : 34 minutes and 34 seconds
         total wall-time :  8 minutes and 52 seconds
    ------------------------------------------------------------------------


   ****  rirpa : all done  ****


    2015-10-15 03:56:06.582 

                                 ****   rirpa : all done  ****
fine, there is no data group "$actual step"
script actual: unknown actual step rirpa
next step = unknown
 energy change  : actual value =  -0.7520E-07 threshold =   0.1000E-06
 geom. gradient : actual value =   0.7130E-05 threshold =   0.1000E-03

CONVERGENCY CRITERIA FULFILLED IN CYCLE 14

