STARTING ridft ON 16 PROCESSORS!
RUNNING PROGRAM /sopt/TURBOMOLE/7.3-official/bin/em64t-unknown-linux-gnu_smp/ridft_mpi.
           SMPCPUS    set: Shared-memory Parallelization with  16 CPUs.

           SMP Parallelization Reference:
           C. van Wullen, J. Comput. Chem. 32 (2011) 1195--1201
 operating system is UNIX !

 ridft (c-3-41) : TURBOMOLE V7.3 ( 22118 ) 1 Jul 2018 at 20:38:15
 Copyright (C) 2018 TURBOMOLE GmbH, Karlsruhe


    2019-03-12 12:05:06.908 



                                  r i d f t

                        DFT program with RI approximation 
                                for coulomb part 




                                                 
                                 References:     
                                                 
          TURBOMOLE:                             
              R. Ahlrichs, M. Baer, M. Haeser, H. Horn, and
              C. Koelmel
              Electronic structure calculations on workstation
              computers: the program system TURBOMOLE
              Chem. Phys. Lett. 162: 165 (1989)
          Density Functional:                              
              O. Treutler and R. Ahlrichs                      
              Efficient Molecular Numerical Integration Schemes
              J. Chem. Phys. 102: 346 (1995)                   
          Parallel Version:                                
              Performance of parallel TURBOMOLE for Density    
              Functional Calculations                          
              M. v. Arnim and R. Ahlrichs                      
              J. Comp. Chem. 19: 1746 (1998)                   
          RI-J Method:                                     
              Auxiliary Basis Sets to approximate Coulomb      
              Potentials                                       
              Chem. Phys. Lett. 240: 283 (1995)                
              K. Eichkorn, O. Treutler, H. Oehm, M. Haeser     
              and R. Ahlrichs                                  
              Chem. Phys. Lett. 242: 652 (1995)                
                                                           
              Auxiliary Basis Sets for Main Row Atoms and their
              Use to approximate Coulomb Potentials            
              K. Eichkorn, F. Weigend, O. Treutler and         
              R. Ahlrichs                                      
              Theo. Chem. Acc. 97: 119 (1997)                   
                                                           
              Accurate Coulomb-fitting basis sets for H to Rn 
              F. Weigend                                        
              Phys. Chem. Chem. Phys. 8: 1057 (2006)            
                                                           
          Multipole accelerated RI-J (MARI-J):             
              Fast evaluation of the Coulomb potential for     
              electron densities using multipole accelerated   
              resolution of identity approximation             
              M. Sierka, A. Hogekamp and R. Ahlrichs           
              J. Chem. Phys. 118: 9136 (2003)                  
          RI-JK Method:                                     
              A fully direct RI-HF algorithm: Implementation,
              optimised auxiliary basis sets, demonstration of
              accuracy and efficiency                         
              F. Weigend                                      
              Phys. Chem. Chem. Phys. 4: 4285 (2002)           
          Two-component HF and DFT with spin-orbit coupling:  
              Self-consistent treatment of spin-orbit         
              interactions with efficient Hartree-Fock and    
              density functional methods                      
              M. K. Armbruster, F. Weigend, C. van Wüllen and 
              W. Klopper                                      
              Phys. Chem. Chem. Phys. 10: 1748 (2008)         
          Two-component difference density and DIIS algorithm 
              Efficient two-component self-consistent field   
              procedures and gradients: implementation in     
              TURBOMOLE and application to Au20-              
              A. Baldes, F. Weigend                           
              Mol. Phys. 111: 2617 (2013)                     
          Relativistic all-electron 2c calculations           
              An efficient implementation of two-component    
              relativistic exact-decoupling methods for large 
              molecules                                       
              D. Peng, N. Middendorf, F. Weigend, M. Reiher   
              J. Chem. Phys. 138: 184105 (2013)               
          Finite nucleus model and SNSO approximation         
              Efficient implementation of one- and two-       
              component analytical energy gradients in exact  
              two-component theory                            
              Y. J. Franzke, N. Middendorf, F. Weigend        
              J. Chem. Phys. 148: 104110 (2018)               
                                         




              +--------------------------------------------------+
              |      general information about current run       |
              +--------------------------------------------------+

 
 PBE functional
 exchange:    LDA + PBE
 correlation: LDA (PW) + PBE
 A DFT calculation using the RI-J approximation will be carried out.
 Allocatable memory for RI due to $ricore (MB):                  8000


              +--------------------------------------------------+
              | Atomic coordinate, charge and isotop information |
              +--------------------------------------------------+

                    atomic coordinates            atom    charge  isotop
          3.75632288    2.09713718    7.01148787    c      6.000     0
          4.97490356    3.73398724    7.13195927    h      1.000     0
          4.78802477   -0.32388753    7.12774332    c      6.000     0
          6.80664323   -0.56605036    7.34079902    h      1.000     0
          3.21643501   -2.43206619    6.97911555    c      6.000     0
          4.01594357   -4.31111997    7.07294737    h      1.000     0
          0.61541301   -2.11906135    6.70564053    c      6.000     0
         -0.60365422   -3.75444970    6.57783338    h      1.000     0
         -0.41554573    0.30022793    6.58476263    c      6.000     0
         -2.43118060    0.54179013    6.35198851    h      1.000     0
          1.15534004    2.40780313    6.73985424    c      6.000     0
          0.35499401    4.28601145    6.64089130    h      1.000     0
 
       center of nuclear mass  :    2.18601974   -0.01164094    6.85768538
       center of nuclear charge:    2.18603784   -0.01164077    6.85733437

              +--------------------------------------------------+
              |               basis set information              |
              +--------------------------------------------------+

              we will work with the 1s 3p 5d 7f 9g ... basis set
              ...i.e. with spherical basis functions...

   type   atoms  prim   cont   basis
   ---------------------------------------------------------------------------
    c        6     77     57   def2-QZVP   [7s4p3d2f1g|15s8p3d2f1g]
    h        6     33     30   def2-QZVP   [4s3p2d1f|7s3p2d1f]
   ---------------------------------------------------------------------------
   total:   12    660    522
   ---------------------------------------------------------------------------

   total number of primitive shells          :   42
   total number of contracted shells         :  162
   total number of cartesian basis functions :  642
   total number of SCF-basis functions       :  522


 integral neglect threshold       :  0.52E-11
 integral storage threshold THIZE :  0.10E-04
 integral storage threshold THIME :         5

 RI-J AUXILIARY BASIS SET information:

              we will work with the 1s 3p 5d 7f 9g ... basis set
              ...i.e. with spherical basis functions...

   type   atoms  prim   cont   basis
   ---------------------------------------------------------------------------
    c        6     70     49   def2-QZVP   [6s4p3d1f1g|12s5p4d2f1g]
    h        6     16     11   def2-QZVP   [3s1p1d|5s2p1d]
   ---------------------------------------------------------------------------
   total:   12    516    360
   ---------------------------------------------------------------------------

   total number of primitive shells          :   32
   total number of contracted shells         :  120
   total number of cartesian basis functions :  438
   total number of SCF-basis functions       :  360


 symmetry group of the molecule :   c1 

 the group has the following generators :
   c1(z)

    1 symmetry operations found

 there are 1 real representations :   a   

 maximum number of shells which are related by symmetry :  1


    mo occupation :
   irrep   mo's   occupied
    a      522       21
 
 number of basis functions   :                    522
 number of occupied orbitals :                     21
 
  
           ------------------
           density functional
           ------------------
 PBE functional
 exchange:    LDA + PBE
 correlation: LDA (PW) + PBE

 iterations will be done with small grid
  
 spherical integration : Lebedev's spherical grid
 spherical gridsize    :                     4
    i.e. gridpoints    :                   434
 value for diffuse not defined
 radial integration    : Chebyshev 2nd kind (scaling 3)
 radial gridsize       :                     6
 integration cells     :                    12
 partition function    : becke
 partition sharpness   :                     3
  

 biggest AO integral is expected to be     5.262544080
  
           ------------------------
               RI-J - INFORMATION
           ------------------------
 Contributions to RI integral batches: 
  neglected integral batches:                  1435
  direct contribution:                            0
  memory contribution:                 11768
 Memory core needed for (P|Q) and Cholesky      1 MByte
 Memory core minimum needed except of (P|Q)     2 MByte
 Total minimum memory core needed (sum)         3 MByte
  
 ****************************************
 Memory allocated for RI-J   639 MByte
 ****************************************
                                            

          ------------------------
          nuclear repulsion energy  :   203.711723773    
          ------------------------

   .------------------------------.
   |            DFT-D4            |
   |          ==========          |
   |  E. Caldeweyher,  S. Grimme  |
   |   University of Bonn, MCTC   |
   |     02/2018, Version 1.0     |
   '------------------------------'
  This code comes without any warranty

 Cite this work as:
   E. Caldeweyher, C. Bannwarth, and S. Grimme,
   J. Chem. Phys., 2017, 147, 034112.
   E. Caldeweyher, S. Ehlert, and S. Grimme,
   J. Chem. Phys., in preparation.

 Contributions:
   P. Shushkov - GBSA(H2O)
   S. Ehlert   - MBD, DFA fit

number of atoms            :    12
number of electrons        :    30
charge                     :  0
spin                       : 0.0
 Found param_gfn2.xtb file !
========================================================================
    G F N  parametrization, version 3
   Geometries Frequencies Non-covalent interactions
 /sopt/TURBOMOLE/7.3-official/parameter/param_gfn2.xtb
========================================================================
 method parameters:
------------------------------------------------------------------------
k(s)        :               1.8500
k(p)        :               2.2300
k(d)        :               2.2300
k(f)        :               2.0000
kEN (H0ij)  :              -2.0000
D3 a1       :               0.5200
D3 a2       :               5.0000
D3 s8       :               2.7000
D3atm       :               5.0000
alphaj      :               2.0000
AESdamp     :               4.0000
AESrad      :               3.0000
expscalexp  :               5.0000
------------------------------------------------------------------------
------------------------------------------------------------------------
 xTB basis
------------------------------------------------------------------------
  Z AO/shell   Hii/eV     exponent
  1     Wed Apr 25 08:07:45 CEST 2018   EN: 2.200 GM2: 0.406  GM3: 0.0800  RAES: 1.40
     1s    -10.707211    1.230000
  6     Wed Apr 25 08:07:45 CEST 2018   EN: 2.550 GM2: 0.538  GM3: 0.1500  RAES: 3.00
     2s    -13.970922    2.096432
     2p    -10.063292    1.800000
------------------------------------------------------------------------
 DFT-D4 reference setup
------------------------------------------------------------------------
 C      q(ref)        CN(ref)   cov. CN(ref)  alpha(AIM,ref)
     0.0000000      0.0000000      0.0000000     12.3555336
    -0.1299310      0.9367838      0.9179641     12.6203061
    -0.0788263      1.9884028      1.9096951      9.3103249
    -0.0767301      2.9881158      2.8401678      8.8356702
    -0.0945886      3.9165802      3.7567914      6.6924619
    -0.0285648      3.3673832      3.0308559      8.9184424
     0.0506204      0.9979550      0.8555886      7.7402501
 H      q(ref)        CN(ref)   cov. CN(ref)  alpha(AIM,ref)
     0.0000000      0.0000000      0.0000000      5.0540161
     0.0000000      0.8115055      0.8943405      2.7207580
 no old-style atom pair restraing (fixing) potential
------------------------------------------------------------------------
 SCC calculation
------------------------------------------------------------------------

------------------------------------------------------------------------
 Dispersion Energy Calculation
 * damping parameters for pbe-D4
 s6       :    1.0000
 s8       :    0.9516
 a1       :    0.4044
 a2       :    4.6501
========================================================================
 Edisp  /kcal,au:    -7.1145  -0.01133762
------------------------------------------------------------------------
 E(2)   /kcal,au:    -7.1174  -0.01134226
 Emany  /kcal,au:     0.0029   0.00000464
 Eresp  /kcal,au:     0.0000   0.00000000
========================================================================
 nuclear repulsion energy                  =     203.711723773
 empirical dispersive energy correction    =      -0.011337623
 nuclear repulsion + dispersion correction =     203.700386151


         -----------------
         -S,T+V- integrals
         -----------------

 1e-integrals will be neglected if expon. factor < 0.520555E-12
 Difference densities >>NOT<< switched on in parallel ridft!

 DIIS switched on: error vector is FDS-SDF
 Max. Iterations for DIIS is     :   4
 DIIS matrix (see manual) 
    Scaling factor of diagonals  :  1.200
    threshold for scaling factor :  0.000

 scf convergence criterion : increment of total energy < .1000000D-06
                  and increment of one-electron energy < .1000000D-03

  MOs are in ASCII format !


 automatic virtual orbital shift switched on 
      shift if e(lumo)-e(homo) < 0.10000000    


 reading orbital data $scfmo  from file mos
 orbital characterization : expanded
 mo provided and orthogonalized by Cholesky decomposition

 DSCF restart information will be dumped onto file mos


 Starting SCF iterations

          Overall gridpoints after grid construction =         32100

 ITERATION  ENERGY          1e-ENERGY        2e-ENERGY     NORM[dD(SAO)]  TOL
   1  -231.27110798129    -704.60829981     269.63680568    0.000D+00 0.519D-11
                            Exc = -33.4751315023     Coul =  303.111937179    
                              N = 41.999823627    
                            current damping = 0.700
 
          max. resid. norm for Fia-block=  4.984D-01 for orbital      7a         
          max. resid. fock norm         =  4.680D+01 for orbital    437a         

 ITERATION  ENERGY          1e-ENERGY        2e-ENERGY     NORM[dD(SAO)]  TOL
   2  -231.89167469791    -711.70955111     276.11749026    0.000D+00 0.519D-11
                            Exc = -34.1325996452     Coul =  310.250089908    
                              N = 41.999820863    
                            current damping = 0.650
 
          Norm of current diis error:  2.8773    
          max. resid. norm for Fia-block=  1.155D-01 for orbital      4a         
          max. resid. fock norm         =  1.447D-01 for orbital     61a         

 ITERATION  ENERGY          1e-ENERGY        2e-ENERGY     NORM[dD(SAO)]  TOL
   3  -232.00722825007    -713.01520613     277.30759173    0.000D+00 0.519D-11
                            Exc = -34.3031006068     Coul =  311.610692341    
                              N = 41.999827138    
                            current damping = 0.550
 
          Norm of current diis error:  1.3925    
          max. resid. norm for Fia-block=  5.347D-02 for orbital      7a         
          max. resid. fock norm         =  6.204D-02 for orbital      7a         

 ITERATION  ENERGY          1e-ENERGY        2e-ENERGY     NORM[dD(SAO)]  TOL
   4  -232.04123474853    -714.35098418     278.60936328    0.000D+00 0.519D-11
                            Exc = -34.4298105387     Coul =  313.039173818    
                              N = 41.999818869    
                            current damping = 0.450
 
          Norm of current diis error: 0.50620    
          max. resid. norm for Fia-block=  2.043D-02 for orbital      7a         
          max. resid. fock norm         =  2.300D-02 for orbital      7a         

 ITERATION  ENERGY          1e-ENERGY        2e-ENERGY     NORM[dD(SAO)]  TOL
   5  -232.04662682528    -714.52843300     278.78142002    0.000D+00 0.519D-11
                            Exc = -34.4629881994     Coul =  313.244408223    
                              N = 41.999817551    
                            current damping = 0.300
 
          Norm of current diis error: 0.19159    
          max. resid. norm for Fia-block=  7.344D-03 for orbital      7a         
          max. resid. fock norm         =  8.526D-03 for orbital      7a         
          mo-orthogonalization: Cholesky decomposition

 ITERATION  ENERGY          1e-ENERGY        2e-ENERGY     NORM[dD(SAO)]  TOL
   6  -232.04743094634    -714.86377809     279.11596099    0.000D+00 0.519D-11
                            Exc = -34.4905643803     Coul =  313.606525373    
                              N = 41.999814541    
                            current damping = 0.150
 
          Norm of current diis error: 0.51669E-01
          max. resid. norm for Fia-block=  1.784D-03 for orbital     21a         
          max. resid. fock norm         =  2.931D-03 for orbital     74a         

 ITERATION  ENERGY          1e-ENERGY        2e-ENERGY     NORM[dD(SAO)]  TOL
   7  -232.04747933051    -714.74496147     278.99709598    0.000D+00 0.519D-11
                            Exc = -34.4854030287     Coul =  313.482499013    
                              N = 41.999815142    
                            current damping = 0.200
 
          Norm of current diis error: 0.29458E-01
          max. resid. norm for Fia-block=  6.297D-04 for orbital     12a         
          max. resid. fock norm         =  8.085D-04 for orbital     12a         

 ITERATION  ENERGY          1e-ENERGY        2e-ENERGY     NORM[dD(SAO)]  TOL
   8  -232.04749528196    -714.80373022     279.05584879    0.000D+00 0.519D-11
                            Exc = -34.4891727960     Coul =  313.545021582    
                              N = 41.999814730    
                            current damping = 0.250
 
          Norm of current diis error: 0.22438E-02
          max. resid. norm for Fia-block=  1.068D-04 for orbital     21a         
          max. resid. fock norm         =  2.600D-04 for orbital    521a         

 ITERATION  ENERGY          1e-ENERGY        2e-ENERGY     NORM[dD(SAO)]  TOL
   9  -232.04749508953    -714.80558105     279.05769981    0.000D+00 0.519D-11
                            Exc = -34.4892924044     Coul =  313.546992213    
                              N = 41.999814702    
                            current damping = 0.300
 
          Norm of current diis error: 0.36397E-02
          max. resid. norm for Fia-block=  5.183D-05 for orbital     20a         
          max. resid. fock norm         =  1.302D-04 for orbital    521a         

 ITERATION  ENERGY          1e-ENERGY        2e-ENERGY     NORM[dD(SAO)]  TOL
  10  -232.04749536888    -714.80587245     279.05799093    0.000D+00 0.519D-11
                            Exc = -34.4893165720     Coul =  313.547307501    
                              N = 41.999814699    
                            current damping = 0.150
 
          Norm of current diis error: 0.10608E-02
          max. resid. norm for Fia-block=  2.209D-05 for orbital     21a         
          max. resid. fock norm         =  4.861D-05 for orbital    521a         
          mo-orthogonalization: Cholesky decomposition

 ENERGY CONVERGED !

          Overall gridpoints after grid construction =        116758

 ITERATION  ENERGY          1e-ENERGY        2e-ENERGY     NORM[dD(SAO)]  TOL
  11  -232.04745815335    -714.80571690     279.05787260    0.000D+00 0.519D-11
                            Exc = -34.4892764709     Coul =  313.547149071    
                              N = 42.000006125    
                            current damping = 0.200
 
          Norm of current diis error: 0.14555E-03
          max. resid. norm for Fia-block=  3.589D-06 for orbital     21a         
          max. resid. fock norm         =  8.704D-06 for orbital      6a         

 End of SCF iterations

   convergence criteria satisfied after    11 iterations


                  ------------------------------------------ 
                 |  total energy      =   -232.04745815335  |
                  ------------------------------------------ 
                 :  kinetic energy    =    231.02965024947  :
                 :  potential energy  =   -463.07710840282  :
                 :  virial theorem    =      1.99561379421  :
                 :  wavefunction norm =      1.00000000000  :
                  .......................................... 


 <geterg> : there is no data group $energy 


 <skperg> : $end is missing 


 orbitals $scfmo  will be written to file mos

    irrep                 17a         18a         19a         20a         21a   
 eigenvalues H         -0.33338    -0.30205    -0.30183    -0.23268    -0.23258
            eV          -9.0718     -8.2194     -8.2132     -6.3316     -6.3288
 occupation              2.0000      2.0000      2.0000      2.0000      2.0000 

    irrep                 22a         23a         24a         25a         26a   
 eigenvalues H         -0.04391    -0.04391     0.00729     0.03331     0.03335
            eV          -1.1949     -1.1949      0.1984      0.9065      0.9075
 
 
 
 
 ==============================================================================
                           electrostatic moments
 ==============================================================================

 reference point for electrostatic moments:    0.00000   0.00000   0.00000

 
              nuc           elec       ->  total
 ------------------------------------------------------------------------------
                          charge      
 ------------------------------------------------------------------------------
          42.000000     -42.000000       0.000000
 
 ------------------------------------------------------------------------------
                       dipole moment  
 ------------------------------------------------------------------------------
   x      91.813589     -91.813359       0.000230
   y      -0.488912       0.488881      -0.000031
   z     288.008044    -288.012179      -0.004135
 
   | dipole moment | =     0.0041 a.u. =     0.0105 debye 
 
 ------------------------------------------------------------------------------
                     quadrupole moment
 ------------------------------------------------------------------------------
  xx     389.209832    -413.222062     -24.012229
  yy     190.383595    -214.347988     -23.964393
  zz    1977.040385   -2006.505786     -29.465401
  xy      -0.976373       0.978844       0.002471
  xz     649.337800    -648.750659       0.587141
  yz      -4.304894       4.276461      -0.028433
 
     1/3  trace=     -25.814008
     anisotropy=       5.571075
 
 ==============================================================================
 


    ------------------------------------------------------------------------
         total  cpu-time :  1 minutes and 15 seconds
         total wall-time :  17.24 seconds
    ------------------------------------------------------------------------

   ****  ridft : all done  ****


    2019-03-12 12:05:24.129 

