
   OpenMP run-time library returned nthreads = 28

 ricc2 (c-14-42) : TURBOMOLE V7.3 ( 22142 ) 4 Jul 2018 at 18:12:42
 Copyright (C) 2018 TURBOMOLE GmbH, Karlsruhe


    2019-04-01 23:48:15.347 



                              R I C C 2 - PROGRAM

                          the quantum chemistry groups
                             at the universities in
                           Karlsruhe, Bochum & Mainz
                                   Germany



   *-----------------------------------------------------------------------*
   |                     program will use 28 thread(s)                     |
   *-----------------------------------------------------------------------*


              +--------------------------------------------------+
              | Atomic coordinate, charge and isotop information |
              +--------------------------------------------------+

                    atomic coordinates            atom    charge  isotop
          1.47426450   -1.15257181   -2.28195181    c      6.000     0
          1.69355668   -2.14982727   -4.05184613    h      1.000     0
          0.90318091    1.41917229   -2.28259152    c      6.000     0
          0.67456464    2.41538710   -4.05167501    h      1.000     0
          0.61848710    2.70583813    0.00000000    c      6.000     0
          0.17284385    4.70001197    0.00000000    h      1.000     0
          0.90318091    1.41917229    2.28259152    c      6.000     0
          0.67456464    2.41538710    4.05167501    h      1.000     0
          1.47426450   -1.15257181    2.28195181    c      6.000     0
          1.69355668   -2.14982727    4.05184613    h      1.000     0
          1.76056016   -2.43771145    0.00000000    c      6.000     0
          2.20811802   -4.43181160    0.00000000    h      1.000     0
         -5.18508954   -0.50883251    0.00000000    o      0.000     0
         -4.87365513   -2.29409747    0.00000000    h      0.000     0
         -3.50833376    0.19337144    0.00000000    h      0.000     0
 
       center of nuclear mass  :    0.01512133    0.00179001    0.00000000
       center of nuclear charge:    1.18859126    0.13350681    0.00000000

              +--------------------------------------------------+
              |               basis set information              |
              +--------------------------------------------------+

              we will work with the 1s 3p 5d 7f 9g ... basis set
              ...i.e. with spherical basis functions...

   type   atoms  prim   cont   basis
   ---------------------------------------------------------------------------
    c        6     77     55   cc-pVQZ   [5s4p3d2f1g|21s6p3d2f1g]
    h        8     32     30   cc-pVQZ   [4s3p2d1f|6s3p2d1f]
    o        1     77     55   cc-pVQZ   [5s4p3d2f1g|21s6p3d2f1g]
   ---------------------------------------------------------------------------
   total:   15    795    625
   ---------------------------------------------------------------------------

   total number of primitive shells          :   78
   total number of contracted shells         :  185
   total number of cartesian basis functions :  770
   total number of SCF-basis functions       :  625


 symmetry group of the molecule :   c1 

 the group has the following generators :
   c1(z)

    1 symmetry operations found

 there are 1 real representations :   a   


   =========================================================================


     restricted closed shell calculation for the wavefunction models:
               MP2        - Second Order Moeller Plesset PT


     global parameters for ricc2 program:

        hard restart (reuse of interm.) :  disabled
        soft restart (reuse of vectors) :  disabled
        threshold for vector function   :    0.100000E-05
        convergence threshold energy    :    0.100000E-06
        linear dependence threshold     :    0.100000E-13
        global print level              :      1
        maximum number of iterations    :   300
        maximum number DIIS vectors     :    10
        max. dim. of reduced space      :   100
        core memory limit (MB)          : *****


     MP2 energy only: Energy will be calculated directly from T2 amplitudes!

     Scratch Directory : 


   =========================================================================

    der. integral neglect threshold  :  0.10E-07
    integral neglect threshold       :  0.43E-11
    integral storage threshold THIZE :  0.10E-04
    integral storage threshold THIME :         5


                  +------------------------------------------+
                  |     Auxiliary basis set information      |
                  +------------------------------------------+

              we will work with the 1s 3p 5d 7f 9g ... basis set
              ...i.e. with spherical basis functions...

   type   atoms  prim   cont   basis
   ---------------------------------------------------------------------------
    c        6    132    132   cc-pVQZ   [8s7p6d5f3g1h|8s7p6d5f3g1h]
    h        8     55     55   cc-pVQZ   [5s4p3d2f1g|5s4p3d2f1g]
    o        1    132    132   cc-pVQZ   [8s7p6d5f3g1h|8s7p6d5f3g1h]
   ---------------------------------------------------------------------------
   total:   15   1364   1364
   ---------------------------------------------------------------------------

   total number of primitive shells          :   75
   total number of contracted shells         :  330
   total number of cartesian basis functions : 1827
   total number of SCF-basis functions       : 1364


 maximum number of shells which are related by symmetry :  1


 The symmetry information takes   1 MB

*---------------------------------------------------------------------*
|               simplified C1 algorithm will be applied               |
*---------------------------------------------------------------------*
  MOs are in ASCII format !


 reading orbital data $scfmo  from file mos
 orbital characterization : scfconv=9



              +--------------------------------------------+
              | list of orbitals that will be kept frozen: |
              +--------------------------------------------+
              |   irrep   index      energy     occ/vir    |
              +--------------------------------------------+
              |   a         1      -11.2345     occupied   |
              |   a         2      -11.2339     occupied   |
              |   a         3      -11.2339     occupied   |
              |   a         4      -11.2327     occupied   |
              |   a         5      -11.2326     occupied   |
              |   a         6      -11.2320     occupied   |
              +--------------------------------------------+



   Molecular Orbital Statistic:
   ============================

   -----------------------------
   orbitals in total:
   -----------------------------
    frozen occupied :      6
    active occupied :     15
    active virtual  :    604
    frozen virtual  :      0
    all together    :    625
   -----------------------------


     time in riccmos       cpu:  8.12 sec    wall:  0.54 sec    ratio: 14.9

     total memory allocated for calculation of (Q|P)**(-1/2) : 22 MiB


     calculation of (P|Q) ...
     time in lp2sym        cpu:  2.30 sec    wall:  0.08 sec    ratio: 28.0


     calculation of the Cholesky decomposition of (P|Q)**(-1) ...
     time in invmetri      cpu:  8.20 sec    wall:  0.29 sec    ratio: 27.9

   threshold for RMS(d[D]) in SCF was     :  0.10E-06
   integral neglect threshold             :  0.43E-11
   derivative integral neglect threshold  :  0.10E-07


   =========================================================================

     Energy of reference wave function is  -230.7937570854000
     Maximum orbital residual is           0.6526665277371E-07


     Number of symmetry-nonredundant auxiliary basis functions:     1364

     Block lengths for integral files:
        frozen occupied (BOI):        1 MiB
        active occupied (BJI):        1 MiB
        active virtual  (BAI):        7 MiB
        frozen virtual  (BGI):        0 MiB
               general  (BTI):        7 MiB

   =========================================================================




   **************************************************************************
   *                                                                        *
   *          OPTIMIZATION OF THE GROUND STATE CLUSTER AMPLITUDES           *
   *                                                                        *
   **************************************************************************


   Iter.   MP2 energy       Norm(Omega)   Norm(t1)  Norm(t2)     cpu    wall
   ...........................................................................
    1   -231.8028825777     ------          0.00000   0.34258    1.43    0.05
   ...........................................................................


     time in total         cpu:  1 min 26 s  wall:  0 min  3 s  ratio: 27.4


     **********************************************************************
     *                                                                    *
     *   RHF  energy                             :   -230.7937570854      *
     *   MP2 correlation energy (doubles)        :     -1.0091254923      *
     *                                                                    *
     *   Final MP2 energy                        :   -231.8028825777      *
     *                                                                    *
     *    E(S)   =     -0.6412636560      E(T)   =     -0.3678618363      *
     *    E(OS)  =     -0.7638842681      E(SS)  =     -0.2452412242      *
     *                                                                    *
     *   SCS-MP2 energy                          :   -231.7921652819      *
     *   (computed with  C(OS) =   1.2000  and  C(SS) =   0.3333)         *
     *                                                                    *
     *   SOS-MP2 energy                          :   -231.7868066339      *
     *   (computed with  C(OS) =   1.3000)                                *
     *                                                                    *
     *   Norm of MP1 T2 amplitudes               :      0.3425791577      *
     *                                                                    *
     **********************************************************************



    ------------------------------------------------------------------------
         total  cpu-time :  2 minutes and 48 seconds
         total wall-time :   6.76 seconds
    ------------------------------------------------------------------------

   ****  ricc2 : all done  ****


    2019-04-01 23:48:22.051 

