Using Slurm to start processes with PMI2
STARTING ridft ON 8 PROCESSORS!
RUNNING PROGRAM /beegfs/modfac/apps/TURBOMOLE/7.0_intel_GA/bin/em64t-unknown-linux-gnu_mpi/ridft_mpi.
PLEASE WAIT UNTIL ridft HAS FINISHED.
Look for the output in slave1.output.
  this is node-proc. number 1 running on node c-8-28.local
  the total number of node-proc. spawned is            8
  parallel platform: MPP, or cluster with fast interconnect

 ridft (c-8-28.local) : TURBOMOLE V7.0.2( ) 15 Jan 2016 at 17:47:42
 Copyright (C) 2016 TURBOMOLE GmbH, Karlsruhe


    2017-11-13 08:50:05.314 



                                  r i d f t

                        DFT program with RI approximation 
                                for coulomb part 




                                                 
                                 References:     
                                                 
          TURBOMOLE:                             
              R. Ahlrichs, M. Baer, M. Haeser, H. Horn, and
              C. Koelmel
              Electronic structure calculations on workstation
              computers: the program system TURBOMOLE
              Chem. Phys. Lett. 162: 165 (1989)
          Density Functional:                              
              O. Treutler and R. Ahlrichs                      
              Efficient Molecular Numerical Integration Schemes
              J. Chem. Phys. 102: 346 (1995)                   
          Parallel Version:                                
              Performance of parallel TURBOMOLE for Density    
              Functional Calculations                          
              M. v. Arnim and R. Ahlrichs                      
              J. Comp. Chem. 19: 1746 (1998)                   
          RI-J Method:                                     
              Auxiliary Basis Sets to approximate Coulomb      
              Potentials                                       
              Chem. Phys. Lett. 240: 283 (1995)                
              K. Eichkorn, O. Treutler, H. Oehm, M. Haeser     
              and R. Ahlrichs                                  
              Chem. Phys. Lett. 242: 652 (1995)                
                                                           
              Auxiliary Basis Sets for Main Row Atoms and their
              Use to approximate Coulomb Potentials            
              K. Eichkorn, F. Weigend, O. Treutler and         
              R. Ahlrichs                                      
              Theo. Chem. Acc. 97: 119 (1997)                   
                                                           
              Accurate Coulomb-fitting basis sets for H to Rn 
              F. Weigend                                        
              Phys. Chem. Chem. Phys. 8: 1057 (2006)            
                                                           
          Multipole accelerated RI-J (MARI-J):             
              Fast evaluation of the Coulomb potential for     
              electron densities using multipole accelerated   
              resolution of identity approximation             
              M. Sierka, A. Hogekamp and R. Ahlrichs           
              J. Chem. Phys. 118: 9136 (2003)                  
          RI-JK Method:                                     
              A fully direct RI-HF algorithm: Implementation,
              optimised auxiliary basis sets, demonstration of
              accuracy and efficiency                         
              F. Weigend                                      
              Phys. Chem. Chem. Phys. 4: 4285 (2002)           
          Two-component HF and DFT with spin-orbit coupling:  
              Self-consistent treatment of spin-orbit         
              interactions with efficient Hartree-Fock and    
              density functional methods                      
              M. K. Armbruster, F. Weigend, C. van Wüllen and 
              W. Klopper                                      
              Phys. Chem. Chem. Phys. 10: 1748 (2008)         
          Relativistic all-electron 2c calculations           
              An efficient implementation of two-component    
              relativistic exact-decoupling methods for large 
              molecules                                       
              D. Peng, N. Middendorf, F. Weigend, M. Reiher   
              J. Chem. Phys. 138, 184105 (2013)               
                                         


 


              +--------------------------------------------------+
              |      general information about current run       |
              +--------------------------------------------------+

 

 SCF run will be profiled !


 DENSITY CONVERGENCE CHECK SWITCHED ON !
 SCF CONVERGENCE IF RMS(delta[D]) <     0.1000000000E-06

 TPSS meta-GGA functional
 exchange:    LDA + TPSS
 correlation: LDA (PW) + TPSS
 A DFT calculation using the RI-J approximation will be carried out.
 Allocatable memory for RI due to $ricore (MB):        5000


              +--------------------------------------------------+
              | Atomic coordinate, charge and isotop information |
              +--------------------------------------------------+

                    atomic coordinates            atom    charge  isotop
          1.47400130   12.97840855   10.46321877    c      6.000     0
         -1.42194711  -12.95236318   10.50711918    c      6.000     0
         -3.51827852   -8.71488287   10.67272269    c      6.000     0
          1.22919144   -9.05957629   10.95273739    c      6.000     0
          3.57308963    8.74214504   10.61880143    c      6.000     0
         -1.17165289    9.08563621   10.94293406    c      6.000     0
         -1.17288083  -10.16974409    9.71264374    c      6.000     0
          1.21820004   10.19389350    9.67760254    c      6.000     0
         -0.01577677   -0.00081710   -0.61100156    c      6.000     0
          0.15429197    4.37565313   -0.69054108    c      6.000     0
         -0.19402613   -4.37709458   -0.67856040    c      6.000     0
         -0.55929318   -7.03123591    3.21036313    c      6.000     0
          0.54805534    7.03986009    3.18853604    c      6.000     0
         -0.31877961   -4.55516328    2.04416646    c      6.000     0
          0.30345127    4.56044964    2.03044875    c      6.000     0
          0.58076877    9.15982629    1.54879573    c      6.000     0
         -0.61478594   -9.15470964    1.57576987    c      6.000     0
          0.99711247    9.87365787    6.81274844    c      6.000     0
         -0.97953426   -9.85618032    6.84504121    c      6.000     0
         -0.00403023    0.00250863    2.11154219    c      6.000     0
         -0.74392528   -7.43475782    5.81861435    c      6.000     0
          0.75850110    7.44933785    5.79386139    c      6.000     0
          0.34070212    8.73142991   -1.10144086    c      6.000     0
         -0.39861827   -8.73309227   -1.07762389    c      6.000     0
         -0.17910655   -2.31709543    3.38716175    c      6.000     0
          0.18085094    2.32528402    3.37988952    c      6.000     0
          1.02479054   11.95094915    5.14064543    c      6.000     0
         -1.03036373  -11.93691487    5.17780973    c      6.000     0
          0.81990586   11.60622568    2.55789493    c      6.000     0
         -0.85134166  -11.59820735    2.59240284    c      6.000     0
          0.02193858    2.18166975   -1.94927934    n      7.000     0
         -0.06672775   -2.18648606   -1.94364909    n      7.000     0
          0.13355147    6.51560640   -2.18085243    n      7.000     0
         -0.19352271   -6.52056992   -2.16406656    n      7.000     0
         -0.71180296   -5.82922647    7.09345346    h      1.000     0
          0.74579439    5.84626805    7.07218421    h      1.000     0
          1.20982307   13.85044838    5.88201126    h      1.000     0
         -1.21256395  -13.83432520    5.92511799    h      1.000     0
         -0.20128702   -2.31305349    5.43959803    h      1.000     0
          0.22184874    2.32620338    5.43205972    h      1.000     0
          0.84152149   13.22104769    1.28896670    h      1.000     0
         -0.89126969  -13.21558200    1.32720077    h      1.000     0
         -0.39306323  -10.36850454   -2.33336202    h      1.000     0
          0.31715197   10.36393541   -2.36071770    h      1.000     0
         -1.55225091  -13.06116624   12.56760513    h      1.000     0
          1.62652034   13.09185297   12.52191892    h      1.000     0
         -1.39328016    7.07229742   10.52134693    h      1.000     0
          3.44669246    6.72205728   10.19043378    h      1.000     0
         -3.39522541   -6.69602570   10.23763233    h      1.000     0
          1.44796069   -7.04728951   10.52466264    h      1.000     0
         -3.12774186  -13.82428811    9.72380578    h      1.000     0
          0.22085682  -14.06739060    9.92284383    h      1.000     0
          3.17055302   13.84961217    9.65934363    h      1.000     0
         -0.17576722   14.09116736    9.89447375    h      1.000     0
          5.29559352    9.48212419    9.74469141    h      1.000     0
         -2.87285749   10.07196214   10.30104757    h      1.000     0
         -5.24932510   -9.45656504    9.81712783    h      1.000     0
          2.92380070  -10.04822525   10.29713433    h      1.000     0
         -3.66821506   -8.91595502   12.72633173    h      1.000     0
          1.10891264   -9.26470625   13.00791869    h      1.000     0
         -1.03209869    9.29552243   12.99640534    h      1.000     0
          3.74274055    8.94867302   12.67033744    h      1.000     0
         -0.84814141    4.47218903   -8.79567114    c      6.000     0
          0.81896534   -4.49550028   -8.78139520    c      6.000     0
         -1.49614268    7.45629374  -11.46780436    c      6.000     0
          1.48658442   -7.48375389  -11.44404956    c      6.000     0
         -1.49589040    8.57397075   -9.03489232    c      6.000     0
          1.46332170   -8.59858308   -9.00995191    c      6.000     0
         -1.09024651    6.59284858   -7.35621345    n      7.000     0
          1.04432085   -6.61494436   -7.33756960    n      7.000     0
         -0.40861417    2.14786198   -7.64611350    n      7.000     0
          0.37367406   -2.16880994   -7.63903931    n      7.000     0
         -0.01304932   -0.01188409   -8.97979585    c      6.000     0
          2.21135033  -12.64119086  -10.79833241    c      6.000     0
         -2.23118529   12.61383352  -10.83481508    c      6.000     0
         -2.23663621   11.52605367  -13.25999341    c      6.000     0
          2.23878575  -11.55643552  -13.22470920    c      6.000     0
          1.88149259   -8.97457527  -13.58563518    c      6.000     0
         -1.87400759    8.94403752  -13.61459920    c      6.000     0
         -1.86355778   11.15545835   -8.67229111    c      6.000     0
          1.82519046  -11.18001115   -8.64096946    c      6.000     0
         -0.00471790   -0.01434527  -11.46794496    n      7.000     0
         -1.08398585    4.86113095  -11.25197458    n      7.000     0
          1.07543501   -4.88799923  -11.23503527    n      7.000     0
         -0.36777719    1.70183559  -12.33223067    h      1.000     0
          0.36616561   -1.73163786  -12.32642127    h      1.000     0
          0.23428446   -2.11911298   -5.68423120    h      1.000     0
         -0.27995443    2.10225325   -5.69047297    h      1.000     0
         -0.72184931    6.65146467   -5.42799265    h      1.000     0
          0.66821320   -6.66976078   -5.41114839    h      1.000     0
         -2.53368812   12.73388196  -14.89121729    h      1.000     0
          2.54856119  -12.76661878  -14.85179836    h      1.000     0
          2.50261420  -14.66226770  -10.60136625    h      1.000     0
         -2.52416371   14.63517378  -10.64298104    h      1.000     0
          1.90756117   -8.13960167  -15.45831900    h      1.000     0
         -1.88305295    8.10667096  -15.48639618    h      1.000     0
          1.82476452  -12.02599826   -6.77114725    h      1.000     0
         -1.88145708   12.00355345   -6.80351127    h      1.000     0
 
       center of nuclear mass  :   -0.00506648   -0.00190763   -1.53498126
       center of nuclear charge:   -0.00440903   -0.00166467   -1.33864637

              +--------------------------------------------------+
              |               basis set information              |
              +--------------------------------------------------+

              we will work with the 1s 3p 5d 7f 9g ... basis set
              ...i.e. with spherical basis functions...

   type   atoms  prim   cont   basis
   ---------------------------------------------------------------------------
    c       45     50     30   cc-pVTZ   [4s3p2d1f|18s5p2d1f]
    n       11     50     30   cc-pVTZ   [4s3p2d1f|18s5p2d1f]
    h       42     16     14   cc-pVTZ   [3s2p1d|5s2p1d]
   ---------------------------------------------------------------------------
   total:   98   3472   2268
   ---------------------------------------------------------------------------

   total number of primitive shells          :   60
   total number of contracted shells         :  812
   total number of cartesian basis functions : 2590
   total number of SCF-basis functions       : 2268


 integral neglect threshold       :  0.13E-13
 integral storage threshold THIZE :  0.10E-04
 integral storage threshold THIME :         5

 RI-J AUXILIARY BASIS SET information:

              we will work with the 1s 3p 5d 7f 9g ... basis set
              ...i.e. with spherical basis functions...

   type   atoms  prim   cont   basis
   ---------------------------------------------------------------------------
    c       45     70     49   cc-pVTZ   [6s4p3d1f1g|12s5p4d2f1g]
    n       11     70     49   cc-pVTZ   [6s4p3d1f1g|12s5p4d2f1g]
    h       42     16     11   cc-pVTZ   [3s1p1d|5s2p1d]
   ---------------------------------------------------------------------------
   total:   98   4592   3206
   ---------------------------------------------------------------------------

   total number of primitive shells          :   56
   total number of contracted shells         : 1050
   total number of cartesian basis functions : 3920
   total number of SCF-basis functions       : 3206


 symmetry group of the molecule :   c1 

 the group has the following generators :
   c1(z)

    1 symmetry operations found

 there are 1 real representations :   a   

 maximum number of shells which are related by symmetry :  1


    mo occupation :
   irrep   mo's   occupied
    a     2268      194
 
 number of basis functions   :         2268
 number of occupied orbitals :          194
 
  
           ------------------
           density functional
           ------------------
 TPSS meta-GGA functional
 exchange:    LDA + TPSS
 correlation: LDA (PW) + TPSS
 grinp -> nfun, dfgga, dfhybrid 
           5 F F
 iterations will be done with small grid
  
 spherical integration : Lebedev's spherical grid
 spherical gridsize    :           5
    i.e. gridpoints    :         590
 value for diffuse not defined
 radial integration    : Chebyshev 2nd kind (scaling 3)
 radial gridsize       :           8
 integration cells     :          98
 partition function    : becke
 partition sharpness   :           3
  

 <rddim> : input of entry tasksize
           from data group '$pardft' failed !

               Default values taken

 <rddim> : input of entry memdiv
           from data group '$pardft' failed !

               Default values taken
  RIDFT: memory allocation for DFT gridpoints
  MEMORY is divided by 1 as DEFAULT
 Each node can hold at most  the            1 -th part
 of the gridpoints    

 biggest AO integral is expected to be     4.229423036
  
           ------------------------
               RI-J - INFORMATION
           ------------------------
 
 
 **************************************************
 *      MEMORY ALLOCATION FOR PARALLEL RI-DFT     *
 **************************************************
 
 
MEMORY FOR (MU NU/ ALPHA), SEQUENTIAL RUN               4918 MByte
 
            DIFFERENCE IN MEMORY NEED:       DIAG./SLAVE  
 
      TOTAL DIFFERENCE :                    288 MByte
 
      difference in xcore:                   83 MByte
      difference in fatmat:                  76 MByte
      getcor calls skipped by slaves:       130 MByte
 
 
           Integral memory available for diagonal.      4918 MByte
 
           Integral memory available for slave             0 MByte
 
         MEMORY FOR (MU NU/ ALPHA) ON DIAGONALIZER      4918 MByte
 
         MEMORY FOR (MU NU/ ALPHA) ON ONE SLAVE            0 MByte
 
         TOTAL MEMORY FOR (MU NU/ ALPHA),ALL NODES      4918 MByte
 
 Contributions to RI integral batches: 
  neglected integral batches:      225544
  direct contribution:              61461
  memory contribution:       43073
 Memory core needed for (P|Q) and Cholesky     79 MByte
 Memory core minimum needed except of (P|Q)     6 MByte
 Total minimum memory core needed (sum)        84 MByte
     number of direct tasks:         160
  
 ****************************************
 Memory allocated for RI-J  5002 MByte
 ****************************************
                                            

          ------------------------
          nuclear repulsion energy  :   7013.07501155    
          ------------------------

 
          -----------------
          -S integrals
          -----------------

 1e-integrals will be neglected if expon. factor < 0.129033E-14
 
          -----------------
          -T+V integrals
          -----------------

 1e-integrals will be neglected if expon. factor < 0.129033E-14
 Difference densities >>NOT<< switched on in parallel ridft!

 automatic virtual orbital shift switched on 
      shift if e(lumo)-e(homo) < 0.10000000    


 DIIS switched on: error vector is FDS-SDF
 Max. Iterations for DIIS is     :   4
 DIIS matrix (see manual) 
    Scaling factor of diagonals  :  1.200
    threshold for scaling factor :  0.000

 scf convergence criterion : increment of total energy < .1000000D-08
                  and increment of one-electron energy < .1000000D-05


 <geterg> : there is no data group $energy 

  MOs are in ASCII format !


 reading orbital data $scfmo  from file mos . 

 orbital characterization : expanded
 
 mo provided and orthogonalized by Cholesky decomposition

 DSCF restart information will be dumped onto file mos


 Starting SCF iterations


 ITERATION  ENERGY          1e-ENERGY        2e-ENERGY     RMS[dD(SAO)]   TOL
   1  -2335.4271857350    -17016.069098     7667.5669009    0.000D+00 0.129D-13
                            Exc = -330.303270132     Coul =  7997.87017099    
                              N = 387.99990268    
                            current damping = 0.700
 
          max. resid. norm for Fia-block=  3.023D-01 for orbital      2a         
          max. resid. fock norm         =  4.395D+00 for orbital   2142a         

 ITERATION  ENERGY          1e-ENERGY        2e-ENERGY     RMS[dD(SAO)]   TOL
   2  -2341.9022923647    -17071.774364     7716.7970603    0.237D-02 0.129D-13
                            Exc = -333.984867088     Coul =  8050.78192741    
                              N = 387.99990317    
                            current damping = 0.650
 
          Norm of current diis error:  6.1909    
          max. resid. norm for Fia-block=  1.402D-01 for orbital      8a         
          max. resid. fock norm         =  2.538D-01 for orbital   2219a         

 ITERATION  ENERGY          1e-ENERGY        2e-ENERGY     RMS[dD(SAO)]   TOL
   3  -2343.0842072785    -17089.104742     7732.9455228    0.928D-03 0.129D-13
                            Exc = -335.683842790     Coul =  8068.62936561    
                              N = 387.99989924    
                            current damping = 0.550
 
          Norm of current diis error:  3.0666    
          max. resid. norm for Fia-block=  5.942D-02 for orbital    180a         
          max. resid. fock norm         =  6.601D-02 for orbital     60a         

 ITERATION  ENERGY          1e-ENERGY        2e-ENERGY     RMS[dD(SAO)]   TOL
   4  -2343.4598584346    -17096.857148     7740.3222783    0.618D-03 0.129D-13
                            Exc = -336.235221023     Coul =  8076.55749935    
                              N = 387.99988658    
                            current damping = 0.450
 
          Norm of current diis error:  1.2222    
          max. resid. norm for Fia-block=  3.257D-02 for orbital     59a         
          max. resid. fock norm         =  5.987D-02 for orbital   2225a         
          irrep a   : virtual orbitals shifted by    0.00452

 ITERATION  ENERGY          1e-ENERGY        2e-ENERGY     RMS[dD(SAO)]   TOL
   5  -2343.5089700774    -17103.288224     7746.7042422    0.299D-03 0.129D-13
                            Exc = -336.797536268     Coul =  8083.50177848    
                              N = 387.99989392    
                            current damping = 0.350
 
          Norm of current diis error: 0.73432    
          max. resid. norm for Fia-block=  1.683D-02 for orbital    189a         
          max. resid. fock norm         =  2.221D-02 for orbital   2236a         
          irrep a   : virtual orbitals shifted by    0.05865
          mo-orthogonalization: Cholesky decomposition

 ITERATION  ENERGY          1e-ENERGY        2e-ENERGY     RMS[dD(SAO)]   TOL
   6  -2343.5322232981    -17102.539941     7745.9327060    0.201D-03 0.129D-13
                            Exc = -336.806848263     Coul =  8082.73955429    
                              N = 387.99988346    
                            current damping = 0.400
 
          Norm of current diis error: 0.28882    
          max. resid. norm for Fia-block=  5.075D-03 for orbital    186a         
          max. resid. fock norm         =  1.343D-02 for orbital   1949a         
          irrep a   : virtual orbitals shifted by    0.06165

 ITERATION  ENERGY          1e-ENERGY        2e-ENERGY     RMS[dD(SAO)]   TOL
   7  -2343.5352720300    -17103.425675     7746.8153912    0.629D-04 0.129D-13
                            Exc = -336.824234966     Coul =  8083.63962616    
                              N = 387.99988528    
                            current damping = 0.450
 
          Norm of current diis error: 0.12875    
          max. resid. norm for Fia-block=  2.601D-03 for orbital    190a         
          max. resid. fock norm         =  4.929D-03 for orbital   2241a         
          irrep a   : virtual orbitals shifted by    0.06268

 ITERATION  ENERGY          1e-ENERGY        2e-ENERGY     RMS[dD(SAO)]   TOL
   8  -2343.5359160384    -17103.304061     7746.6931336    0.200D-04 0.129D-13
                            Exc = -336.842008871     Coul =  8083.53514248    
                              N = 387.99988483    
                            current damping = 0.500
 
          Norm of current diis error: 0.35032E-01
          max. resid. norm for Fia-block=  1.109D-03 for orbital    180a         
          max. resid. fock norm         =  2.018D-03 for orbital     70a         
          irrep a   : virtual orbitals shifted by    0.06298

 ITERATION  ENERGY          1e-ENERGY        2e-ENERGY     RMS[dD(SAO)]   TOL
   9  -2343.5359403306    -17103.496131     7746.8851786    0.969D-05 0.129D-13
                            Exc = -336.854316054     Coul =  8083.73949468    
                              N = 387.99988511    
                            current damping = 0.550
 
          Norm of current diis error: 0.29515E-01
          max. resid. norm for Fia-block=  4.452D-04 for orbital    189a         
          max. resid. fock norm         =  8.469D-04 for orbital     69a         
          irrep a   : virtual orbitals shifted by    0.06171

 ITERATION  ENERGY          1e-ENERGY        2e-ENERGY     RMS[dD(SAO)]   TOL
  10  -2343.5359752393    -17103.474623     7746.8636363    0.409D-05 0.129D-13
                            Exc = -336.853192288     Coul =  8083.71682861    
                              N = 387.99988502    
                            current damping = 0.600
 
          Norm of current diis error: 0.86163E-02
          max. resid. norm for Fia-block=  2.100D-04 for orbital    190a         
          max. resid. fock norm         =  3.923D-04 for orbital   2225a         
          irrep a   : virtual orbitals shifted by    0.06028
          mo-orthogonalization: Cholesky decomposition

 ITERATION  ENERGY          1e-ENERGY        2e-ENERGY     RMS[dD(SAO)]   TOL
  11  -2343.5359775195    -17103.466001     7746.8550117    0.192D-05 0.129D-13
                            Exc = -336.852179949     Coul =  8083.70719167    
                              N = 387.99988504    
                            current damping = 0.450
 
          Norm of current diis error: 0.57047E-02
          max. resid. norm for Fia-block=  1.882D-04 for orbital    189a         
          max. resid. fock norm         =  2.383D-04 for orbital    195a         
          irrep a   : virtual orbitals shifted by    0.06402

 ITERATION  ENERGY          1e-ENERGY        2e-ENERGY     RMS[dD(SAO)]   TOL
  12  -2343.5359792790    -17103.443840     7746.8328488    0.129D-05 0.129D-13
                            Exc = -336.851380857     Coul =  8083.68422970    
                              N = 387.99988496    
                            current damping = 0.300
 
          Norm of current diis error: 0.16386E-02
          max. resid. norm for Fia-block=  5.242D-05 for orbital    194a         
          max. resid. fock norm         =  7.319D-05 for orbital    195a         
          irrep a   : virtual orbitals shifted by    0.06775

 ITERATION  ENERGY          1e-ENERGY        2e-ENERGY     RMS[dD(SAO)]   TOL
  13  -2343.5359794898    -17103.449315     7746.8383243    0.543D-06 0.129D-13
                            Exc = -336.851618582     Coul =  8083.68994291    
                              N = 387.99988498    
                            current damping = 0.350
 
          Norm of current diis error: 0.81456E-03
          max. resid. norm for Fia-block=  3.899D-05 for orbital    194a         
          max. resid. fock norm         =  4.516D-05 for orbital    195a         
          irrep a   : virtual orbitals shifted by    0.06651

 ITERATION  ENERGY          1e-ENERGY        2e-ENERGY     RMS[dD(SAO)]   TOL
  14  -2343.5359795677    -17103.450207     7746.8392158    0.316D-06 0.129D-13
                            Exc = -336.851672297     Coul =  8083.69088808    
                              N = 387.99988498    
                            current damping = 0.200
 
          Norm of current diis error: 0.40984E-03
          max. resid. norm for Fia-block=  2.811D-05 for orbital    194a         
          max. resid. fock norm         =  2.980D-05 for orbital    195a         
          irrep a   : virtual orbitals shifted by    0.07022

 ITERATION  ENERGY          1e-ENERGY        2e-ENERGY     RMS[dD(SAO)]   TOL
  15  -2343.5359796005    -17103.449690     7746.8386991    0.218D-06 0.129D-13
                            Exc = -336.851653464     Coul =  8083.69035261    
                              N = 387.99988499    
                            current damping = 0.250
 
          Norm of current diis error: 0.27309E-03
          max. resid. norm for Fia-block=  2.096D-05 for orbital    194a         
          max. resid. fock norm         =  2.122D-05 for orbital    195a         
          irrep a   : virtual orbitals shifted by    0.06897
          mo-orthogonalization: Cholesky decomposition

 ITERATION  ENERGY          1e-ENERGY        2e-ENERGY     RMS[dD(SAO)]   TOL
  16  -2343.5359796182    -17103.450176     7746.8391846    0.154D-06 0.129D-13
                            Exc = -336.851647635     Coul =  8083.69083220    
                              N = 387.99988499    
                            current damping = 0.300
 
          Norm of current diis error: 0.11773E-03
          max. resid. norm for Fia-block=  1.552D-05 for orbital    194a         
          max. resid. fock norm         =  1.598D-05 for orbital    195a         
          irrep a   : virtual orbitals shifted by    0.06773

 ITERATION  ENERGY          1e-ENERGY        2e-ENERGY     RMS[dD(SAO)]   TOL
  17  -2343.5359796268    -17103.450315     7746.8393239    0.110D-06 0.129D-13
                            Exc = -336.851673706     Coul =  8083.69099756    
                              N = 387.99988499    
                            current damping = 0.150
 
          Norm of current diis error: 0.88229E-04
          max. resid. norm for Fia-block=  1.156D-05 for orbital    194a         
          max. resid. fock norm         =  1.170D-05 for orbital    195a         
          irrep a   : virtual orbitals shifted by    0.07145

 DENSITY CONVERGED !


 ITERATION  ENERGY          1e-ENERGY        2e-ENERGY     RMS[dD(SAO)]   TOL
  18  -2343.5359796317    -17103.450345     7746.8393533    0.820D-07 0.129D-13
                            Exc = -336.851664104     Coul =  8083.69101744    
                              N = 387.99988499    
                            current damping = 0.050
 
          Norm of current diis error: 0.65508E-04
          max. resid. norm for Fia-block=  8.673D-06 for orbital    194a         
          max. resid. fock norm         =  8.848D-06 for orbital    195a         
          irrep a   : virtual orbitals shifted by    0.07393

 DENSITY CONVERGED !


 ITERATION  ENERGY          1e-ENERGY        2e-ENERGY     RMS[dD(SAO)]   TOL
  19  -2343.5359796342    -17103.450331     7746.8393398    0.624D-07 0.129D-13
                            Exc = -336.851662929     Coul =  8083.69100271    
                              N = 387.99988499    
                            current damping = 0.100
 
          Norm of current diis error: 0.75659E-04
          max. resid. norm for Fia-block=  6.560D-06 for orbital    194a         
          max. resid. fock norm         =  6.682D-06 for orbital    195a         
          irrep a   : virtual orbitals shifted by    0.07269

 DENSITY CONVERGED !


 ITERATION  ENERGY          1e-ENERGY        2e-ENERGY     RMS[dD(SAO)]   TOL
  20  -2343.5359796358    -17103.450339     7746.8393481    0.468D-07 0.129D-13
                            Exc = -336.851661673     Coul =  8083.69100974    
                              N = 387.99988499    
                            current damping = 0.150
 
          Norm of current diis error: 0.43602E-04
          max. resid. norm for Fia-block=  4.925D-06 for orbital    194a         
          max. resid. fock norm         =  4.961D-06 for orbital    194a         
          irrep a   : virtual orbitals shifted by    0.07145
          mo-orthogonalization: Cholesky decomposition

 DENSITY CONVERGED !


 ITERATION  ENERGY          1e-ENERGY        2e-ENERGY     RMS[dD(SAO)]   TOL
  21  -2343.5359796366    -17103.450325     7746.8393337    0.350D-07 0.129D-13
                            Exc = -336.851666119     Coul =  8083.69099983    
                              N = 387.99988499    
                            current damping = 0.200
 
          Norm of current diis error: 0.38837E-04
          max. resid. norm for Fia-block=  3.668D-06 for orbital    194a         
          max. resid. fock norm         =  3.711D-06 for orbital    195a         
          irrep a   : virtual orbitals shifted by    0.07021

 DENSITY CONVERGED !


 ITERATION  ENERGY          1e-ENERGY        2e-ENERGY     RMS[dD(SAO)]   TOL
  22  -2343.5359796371    -17103.450430     7746.8394387    0.262D-07 0.129D-13
                            Exc = -336.851664320     Coul =  8083.69110300    
                              N = 387.99988499    
                            current damping = 0.250
 
          Norm of current diis error: 0.25620E-04
          max. resid. norm for Fia-block=  2.744D-06 for orbital    194a         
          max. resid. fock norm         =  2.796D-06 for orbital    195a         
          irrep a   : virtual orbitals shifted by    0.06897

 DENSITY CONVERGED !


 ITERATION  ENERGY          1e-ENERGY        2e-ENERGY     RMS[dD(SAO)]   TOL
  23  -2343.5359796374    -17103.450353     7746.8393616    0.195D-07 0.129D-13
                            Exc = -336.851662764     Coul =  8083.69102433    
                              N = 387.99988499    
                            current damping = 0.300
 
          Norm of current diis error: 0.15881E-04
          max. resid. norm for Fia-block=  2.045D-06 for orbital    194a         
          max. resid. fock norm         =  2.064D-06 for orbital    195a         
          irrep a   : virtual orbitals shifted by    0.06772

 ENERGY & DENSITY CONVERGED !


 ITERATION  ENERGY          1e-ENERGY        2e-ENERGY     RMS[dD(SAO)]   TOL
  24  -2343.5347076663    -17103.450369     7746.8406493    0.145D-07 0.129D-13
                            Exc = -336.850391545     Coul =  8083.69104086    
                              N = 388.00005169    
                            current damping = 0.350
 
          Norm of current diis error: 0.13082E-04
          max. resid. norm for Fia-block=  1.538D-06 for orbital    194a         
          max. resid. fock norm         =  1.552D-06 for orbital    195a         

 End of SCF iterations

   convergence criteria satisfied after   24 iterations


                  ------------------------------------------ 
                 |  total energy      =  -2343.53470766630  |
                  ------------------------------------------ 
                 :  kinetic energy    =   2329.95847195195  :
                 :  potential energy  =  -4673.49317961825  :
                 :  virial theorem    =      1.99420694062  :
                 :  wavefunction norm =      1.00000000000  :
                  .......................................... 


 <geterg> : there is no data group $energy 


 <skperg> : $end is missing 


 orbitals $scfmo  will be written to file mos

    irrep                190a        191a        192a        193a        194a   
 eigenvalues H         -0.31538    -0.27240    -0.27204    -0.27115    -0.25795
            eV          -8.5821     -7.4124     -7.4026     -7.3785     -7.0191
 occupation              2.0000      2.0000      2.0000      2.0000      2.0000 

    irrep                195a        196a        197a        198a        199a   
 eigenvalues H         -0.23312    -0.19410    -0.17560    -0.17449    -0.14657
            eV          -6.3435     -5.2817     -4.7783     -4.7482     -3.9884
 
 
 ! grave: sending quit signal to master process
 
 
 
 
 ==============================================================================
                           electrostatic moments
 ==============================================================================

 reference point for electrostatic moments:    0.00000   0.00000   0.00000

 
              nuc           elec       ->  total
 ------------------------------------------------------------------------------
                          charge      
 ------------------------------------------------------------------------------
         389.000000    -388.000000       1.000000
 
 ------------------------------------------------------------------------------
                       dipole moment  
 ------------------------------------------------------------------------------
   x      -1.715111       1.716587       0.001476
   y      -0.647558       0.650487       0.002929
   z    -520.733437     523.933927       3.200490
 
   | dipole moment | =     3.2005 a.u. =     8.1348 debye 
 
 ------------------------------------------------------------------------------
                     quadrupole moment
 ------------------------------------------------------------------------------
  xx     761.564849   -1007.561760    -245.996911
  yy   27148.907249  -27281.651033    -132.743784
  zz   26072.382975  -26247.911607    -175.528632
  xy    -267.527304     272.121534       4.594230
  xz      33.366013     -33.286219       0.079794
  yz      -9.812619       9.741837      -0.070782
 
     1/3  trace=    -184.756442
     anisotropy=      99.371279
 
 ==============================================================================
 

    ridft profiling
  --------------------------------------------------------------------
             module   cpu total (s)       %  wall total (s)       %

               RIDFT          2801.0  100.00          2803.9  100.00
         Ridft_b_scf            76.0    2.71            76.1    2.71
        b_scf_prelim             0.0    0.00             0.0    0.00
        b_scf_molinp             0.0    0.00             0.0    0.00
         b_scf_init0             0.0    0.00             0.0    0.00
        b_scf_auxbas             0.0    0.00             0.0    0.00
      b_scf_symmetry             0.0    0.00             0.0    0.00
         b_scf_cosmo             0.0    0.00             0.0    0.00
        b_scf_params             2.2    0.08             2.2    0.08
          b_scf_ri-j            44.9    1.60            44.8    1.60
    b_scf_ri-j_auxpq            44.8    1.60            44.8    1.60
     ri-j_auxpq_chol             4.9    0.18             4.9    0.18
         b_scf_1elec             1.7    0.06             1.8    0.06
       b_scf_moinput            27.2    0.97            27.1    0.97
     moinput_orthmos            26.7    0.95            26.6    0.95
    b_scf_dft-dstmax             0.0    0.00             0.0    0.00
           Ridft_scf          2724.2   97.26          2726.8   97.25
          Scf_b_loop             0.0    0.00             0.0    0.00
                noga             0.0    0.00             0.0    0.00
            Scf_loop          2720.7   97.13          2723.3   97.13
     scf_loop_mkdmat            12.7    0.45            12.7    0.45
       scf_loop_ri-j           383.0   13.67           382.8   13.65
      parlp1.bc.dens             1.6    0.06             1.6    0.06
        parlp1.gs.gp             4.0    0.14             4.0    0.14
        parlp2.bc.gq             0.0    0.00             0.0    0.00
        scf_loop_dft          1888.2   67.41          1887.5   67.32
      pardft.bc.dens             0.0    0.00             0.0    0.00
        dft_grid_con             5.2    0.19             5.2    0.19
          dft_xcmrhf          1879.0   67.08          1878.1   66.98
          dft_getval            48.5    1.73            48.4    1.73
          funct2 dst             1.1    0.04             1.0    0.04
      funct2 f2loop1            10.0    0.36            10.1    0.36
      funct2 f2loop2            24.8    0.89            24.8    0.89
          funct2 s+c            11.5    0.41            11.4    0.41
        funct2 cmf_2            10.0    0.36             9.9    0.35
          dft_mkdens           904.7   32.30           904.2   32.25
        dft_mgga-fun             2.2    0.08             2.2    0.08
          dft_mkfock           922.4   32.93           922.1   32.89
     pardft.red.fock           117.5    4.19           117.4    4.19
     scf_loop_energy             0.1    0.00             0.1    0.00
     scf_loop_mkfock             0.1    0.00             0.1    0.00
       scf_loop_diis           212.7    7.59           212.6    7.58
       scf_loop_diag           116.6    4.16           116.6    4.16
         diag_tritrn            38.2    1.36            38.2    1.36
          diag_rdiag            77.9    2.78            77.8    2.78
     scf_loop_modump            73.0    2.61            76.5    2.73
      scf_loop_ortho            32.1    1.15            32.1    1.14
          Scf_a_loop             3.5    0.12             3.5    0.13
         Ridft_a_scf             0.9    0.03             1.0    0.03
         a_scf_fanal             0.8    0.03             0.9    0.03
 


    ------------------------------------------------------------------------
         total  cpu-time : 46 minutes and 45 seconds
         total wall-time : 46 minutes and 48 seconds
    ------------------------------------------------------------------------


   ****  ridft : all done  ****


    2017-11-13 09:36:53.558 

