
   OpenMP run-time library returned nthreads = 28
 operating system is UNIX !

 dscf (c-13-32) : TURBOMOLE V7.3 ( 22142 ) 4 Jul 2018 at 18:12:42
 Copyright (C) 2018 TURBOMOLE GmbH, Karlsruhe


    2019-04-01 22:19:26.469 



                             d s c f - program

                   idea & directorship : reinhart ahlrichs
                   program development : marco haeser
                                         michael baer
                           dft version : oliver treutler


                          quantum chemistry group
                          universitaet  karlsruhe
                                  germany




                          References             
                                                 
          TURBOMOLE:                             
              R. Ahlrichs, M. Baer, M. Haeser, H. Horn, and
              C. Koelmel
              Electronic structure calculations on workstation
              computers: the program system TURBOMOLE
              Chem. Phys. Lett. 162: 165 (1989)
          Density Functional:                              
              O. Treutler and R. Ahlrichs                      
              Efficient Molecular Numerical Integration Schemes
              J. Chem. Phys. 102: 346 (1995)                   
          Parallel Version:                                
              Performance of parallel TURBOMOLE for Density    
              Functional Calculations                          
              M. v. Arnim and R. Ahlrichs                      
              J. Comp. Chem. 19: 1746 (1998)                   
                                         




              +--------------------------------------------------+
              | Atomic coordinate, charge and isotop information |
              +--------------------------------------------------+

                    atomic coordinates            atom    charge  isotop
         -0.09613728   -1.85208518    0.06417924    n      7.000     0
         -0.10057510   -3.76186599    0.09414931    h      1.000     0
         -2.47329843   -0.68384725    0.00760796    c      6.000     0
         -4.39780845   -1.95124602   -0.01101496    o      8.000     0
         -2.33724822    2.05611329   -0.02310077    c      6.000     0
         -4.06808709    3.12080795   -0.10350867    h      1.000     0
         -0.06650765    3.20844476    0.06369290    c      6.000     0
          0.13297314    5.23921987    0.06024870    h      1.000     0
          2.14394934    1.87136273    0.17356117    n      7.000     0
          3.82427717    2.75290046    0.29421670    h      1.000     0
          2.25479475   -0.74045681    0.21878328    c      6.000     0
          4.22617968   -1.91086889    0.36695765    o      8.000     0
 
       center of nuclear mass  :   -0.05149777   -0.07124706    0.11222776
       center of nuclear charge:   -0.05143646   -0.00636880    0.11135742

              +--------------------------------------------------+
              |               basis set information              |
              +--------------------------------------------------+

              we will work with the 1s 3p 5d 7f 9g ... basis set
              ...i.e. with spherical basis functions...

   type   atoms  prim   cont   basis
   ---------------------------------------------------------------------------
    n        2     50     30   cc-pVTZ   [4s3p2d1f|18s5p2d1f]
    h        4     16     14   cc-pVTZ   [3s2p1d|5s2p1d]
    c        4     50     30   cc-pVTZ   [4s3p2d1f|18s5p2d1f]
    o        2     50     30   cc-pVTZ   [4s3p2d1f|18s5p2d1f]
   ---------------------------------------------------------------------------
   total:   12    464    296
   ---------------------------------------------------------------------------

   total number of primitive shells          :   86
   total number of contracted shells         :  104
   total number of cartesian basis functions :  340
   total number of SCF-basis functions       :  296


 integral neglect threshold       :  0.98E-13
 integral storage threshold THIZE :  0.10E-04
 integral storage threshold THIME :         5


 DENSITY CONVERGENCE CHECK SWITCHED ON !
 SCF CONVERGENCE IF RMS(delta[D]) <     0.1000000000E-06


 symmetry group of the molecule :   c1 

 the group has the following generators :
   c1(z)

    1 symmetry operations found

 there are 1 real representations :   a   

 maximum number of shells which are related by symmetry :  1


    mo occupation :
   irrep   mo's   occupied
    a      296       29
 
 number of basis functions   :                    296
 number of occupied orbitals :                     29
 

 automatic virtual orbital shift switched on 
      shift if e(lumo)-e(homo) < 0.10000000    


          ------------------------
          nuclear repulsion energy  :   357.187267482    
          ------------------------


         -----------------
         -S,T+V- integrals
         -----------------

 1e-integrals will be neglected if expon. factor < 0.982930E-14
 
   Difference densities algorithm switched on.
   The maximal number of linear combinations of
   difference densities is                    20 .

 DIIS switched on: error vector is FDS-SDF
 Max. Iterations for DIIS is     :   5
 DIIS matrix (see manual) 
    Scaling factor of diagonals  :  1.200
    threshold for scaling factor :  0.000

 scf convergence criterion : increment of total energy < .1000000D-08
                  and increment of one-electron energy < .1000000D-05

  MOs are in ASCII format !


 reading orbital data $scfmo  from file mos
 orbital characterization : scfconv=9

 DSCF restart information will be dumped onto file mos

 
                                              current damping :  0.700
 ITERATION  ENERGY          1e-ENERGY        2e-ENERGY     RMS[dD(SAO)]   TOL
   1  -412.52489209565    -1272.1110726     502.39891299    0.000D+00 0.980D-13
          max. resid. norm for Fia-block=  1.035D-01 for orbital      2a         
          max. resid. fock norm         =  1.625D-01 for orbital    289a         
          Delta Eig. =    28.7455840928 eV 
 
                                              current damping :  0.650
 ITERATION  ENERGY          1e-ENERGY        2e-ENERGY     RMS[dD(SAO)]   TOL
   2  -412.59918066621    -1270.8674750     501.08102689    0.143D-02 0.625D-13
          Norm of current diis error: 0.53665    
          max. resid. norm for Fia-block=  4.657D-02 for orbital      2a         
          max. resid. fock norm         =  7.558D-02 for orbital    294a         
          Delta Eig. =    11.8726706727 eV 
 
                                              current damping :  0.600
 ITERATION  ENERGY          1e-ENERGY        2e-ENERGY     RMS[dD(SAO)]   TOL
   3  -412.61429286055    -1270.9930831     501.19152274    0.625D-03 0.486D-13
          Norm of current diis error: 0.24780    
          max. resid. norm for Fia-block=  2.309D-02 for orbital      2a         
          max. resid. fock norm         =  2.626D-02 for orbital    292a         
          Delta Eig. =     5.6879302204 eV 
 
                                              current damping :  0.650
 ITERATION  ENERGY          1e-ENERGY        2e-ENERGY     RMS[dD(SAO)]   TOL
   4  -412.61822179392    -1270.9392484     501.13375915    0.417D-03 0.424D-13
          Norm of current diis error: 0.10721    
          max. resid. norm for Fia-block=  9.206D-03 for orbital     24a         
          max. resid. fock norm         =  1.131D-02 for orbital    214a         
          Delta Eig. =     1.6870422695 eV 
 
                                              current damping :  0.500
 ITERATION  ENERGY          1e-ENERGY        2e-ENERGY     RMS[dD(SAO)]   TOL
   5  -412.61901779883    -1270.9168216     501.11053632    0.148D-03 0.393D-13
          Norm of current diis error: 0.48877E-01
          max. resid. norm for Fia-block=  4.791D-03 for orbital     24a         
          max. resid. fock norm         =  5.143D-03 for orbital     33a         
 mo-orthogonalization: Cholesky decomposition
          Delta Eig. =     0.8057721697 eV 
 
                                              current damping :  0.350
 ITERATION  ENERGY          1e-ENERGY        2e-ENERGY     RMS[dD(SAO)]   TOL
   6  -412.61922305836    -1270.9081435     501.10165294    0.855D-04 0.366D-13
          Norm of current diis error: 0.21161E-01
          max. resid. norm for Fia-block=  2.224D-03 for orbital     24a         
          max. resid. fock norm         =  2.456D-03 for orbital     33a         
          Delta Eig. =     0.2904753461 eV 
 
                                              current damping :  0.200
 ITERATION  ENERGY          1e-ENERGY        2e-ENERGY     RMS[dD(SAO)]   TOL
   7  -412.61927164091    -1270.9061273     501.09958813    0.418D-04 0.340D-13
          Norm of current diis error: 0.85577E-02
          max. resid. norm for Fia-block=  9.814D-04 for orbital     20a         
          max. resid. fock norm         =  1.101D-03 for orbital     33a         
          Delta Eig. =     0.0876266937 eV 
 
                                              current damping :  0.050
 ITERATION  ENERGY          1e-ENERGY        2e-ENERGY     RMS[dD(SAO)]   TOL
   8  -412.61928165235    -1270.9051497     501.09860056    0.193D-04 0.317D-13
          Norm of current diis error: 0.30908E-02
          max. resid. norm for Fia-block=  3.719D-04 for orbital     20a         
          max. resid. fock norm         =  4.337D-04 for orbital     30a         
          Delta Eig. =     0.0141942894 eV 
 
                                              current damping :  0.100
 ITERATION  ENERGY          1e-ENERGY        2e-ENERGY     RMS[dD(SAO)]   TOL
   9  -412.61928321007    -1270.9053968     501.09884607    0.784D-05 0.297D-13
          Norm of current diis error: 0.93283E-03
          max. resid. norm for Fia-block=  9.989D-05 for orbital     29a         
          max. resid. fock norm         =  1.155D-04 for orbital     33a         
          Delta Eig. =     0.0055331551 eV 
 
                                              current damping :  0.150
 ITERATION  ENERGY          1e-ENERGY        2e-ENERGY     RMS[dD(SAO)]   TOL
  10  -412.61928332369    -1270.9051863     501.09863551    0.219D-05 0.287D-13
          Norm of current diis error: 0.35947E-03
          max. resid. norm for Fia-block=  4.407D-05 for orbital     28a         
          max. resid. fock norm         =  5.418D-05 for orbital     28a         
 mo-orthogonalization: Cholesky decomposition
          Delta Eig. =     0.0026242445 eV 
 
                                              current damping :  0.200
 ITERATION  ENERGY          1e-ENERGY        2e-ENERGY     RMS[dD(SAO)]   TOL
  11  -412.61928333699    -1270.9053675     501.09881664    0.579D-06 0.281D-13
          Norm of current diis error: 0.18108E-03
          max. resid. norm for Fia-block=  1.359D-05 for orbital     27a         
          max. resid. fock norm         =  1.743D-05 for orbital     27a         
          Delta Eig. =     0.0008038380 eV 
 
                                              current damping :  0.250
 ITERATION  ENERGY          1e-ENERGY        2e-ENERGY     RMS[dD(SAO)]   TOL
  12  -412.61928333985    -1270.9053403     501.09878950    0.315D-06 0.276D-13
          Norm of current diis error: 0.62049E-04
          max. resid. norm for Fia-block=  7.905D-06 for orbital     28a         
          max. resid. fock norm         =  7.950D-06 for orbital     28a         
          Delta Eig. =     0.0001397408 eV 
 
                                              current damping :  0.300
 ITERATION  ENERGY          1e-ENERGY        2e-ENERGY     RMS[dD(SAO)]   TOL
  13  -412.61928334041    -1270.9053420     501.09879117    0.149D-06 0.270D-13
          Norm of current diis error: 0.29742E-04
          max. resid. norm for Fia-block=  4.456D-06 for orbital     28a         
          max. resid. fock norm         =  4.483D-06 for orbital     28a         
          Delta Eig. =     0.0000618626 eV 

 DENSITY CONVERGED !

 
                                              current damping :  0.150
 ITERATION  ENERGY          1e-ENERGY        2e-ENERGY     RMS[dD(SAO)]   TOL
  14  -412.61928334056    -1270.9053445     501.09879365    0.851D-07 0.279D-13
          Norm of current diis error: 0.13438E-04
          max. resid. norm for Fia-block=  2.201D-06 for orbital     28a         
          max. resid. fock norm         =  2.213D-06 for orbital     28a         
          Delta Eig. =     0.0000411279 eV 

 ENERGY & DENSITY CONVERGED !

 
                                              current damping :  0.050
 ITERATION  ENERGY          1e-ENERGY        2e-ENERGY     RMS[dD(SAO)]   TOL
  15  -412.61928334060    -1270.9053455     501.09879463    0.521D-07 0.279D-13
          max. resid. norm for Fia-block=  3.621D-07 for orbital     24a         
          max. resid. fock norm         =  4.213D-07 for orbital     19a         

 convergence criteria satisfied after    15 iterations


                  ------------------------------------------ 
                 |  total energy      =   -412.61928334060  |
                  ------------------------------------------ 
                 :  kinetic energy    =    411.95056700703  :
                 :  potential energy  =   -824.56985034762  :
                 :  virial theorem    =      1.99837933814  :
                 :  wavefunction norm =      1.00000000000  :
                  .......................................... 


 orbitals $scfmo  will be written to file mos

    irrep                 25a         26a         27a         28a         29a   
 eigenvalues H         -0.52468    -0.48162    -0.44702    -0.43468    -0.36753
            eV         -14.2773    -13.1056    -12.1642    -11.8283    -10.0012
 occupation              2.0000      2.0000      2.0000      2.0000      2.0000 

    irrep                 30a         31a         32a         33a         34a   
 eigenvalues H          0.09061     0.11364     0.15850     0.16834     0.16852
            eV           2.4656      3.0924      4.3132      4.5807      4.5856
 
 
 
 
 ==============================================================================
                           electrostatic moments
 ==============================================================================

 reference point for electrostatic moments:    0.00000   0.00000   0.00000

 
              nuc           elec       ->  total
 ------------------------------------------------------------------------------
                          charge      
 ------------------------------------------------------------------------------
          58.000000     -58.000000      -0.000000
 
 ------------------------------------------------------------------------------
                       dipole moment  
 ------------------------------------------------------------------------------
   x      -2.983315       3.511262       0.527947
   y      -0.369390       2.258001       1.888611
   z       6.458731      -6.476537      -0.017807
 
   | dipole moment | =     1.9611 a.u. =     4.9846 debye 
 
 ------------------------------------------------------------------------------
                     quadrupole moment
 ------------------------------------------------------------------------------
  xx     461.063806    -505.306063     -44.242257
  yy     260.340595    -288.483024     -28.142429
  zz       1.742789     -36.206368     -34.463579
  xy       2.299020      -0.662972       1.636048
  xz      20.046015     -20.358640      -0.312625
  yz      -3.609879       4.001906       0.392027
 
     1/3  trace=     -35.616088
     anisotropy=      14.358837
 
 ==============================================================================
 


    ------------------------------------------------------------------------
         total  cpu-time : 16 minutes and 17 seconds
         total wall-time :  1 minutes and 16 seconds
    ------------------------------------------------------------------------

   ****  dscf : all done  ****


    2019-04-01 22:20:41.919 

