STARTING dscf ON 32 PROCESSORS!
RUNNING PROGRAM /beegfs/modfac/apps/TURBOMOLE/7.2.1-official/bin/em64t-unknown-linux-gnu_mpi/dscf_mpi.
PLEASE WAIT UNTIL dscf HAS FINISHED.
Look for the output in slave1.output.
MACHINEFILE is ./hostlist
 this is node-proc. number 1 running on node c-4-11.local
 the total number of node-proc. spawned is  33
  parallel platform: MPP or cluster with fast interconnect

 dscf (c-4-11.local) : TURBOMOLE V7.2 ( 21471 ) 7 Nov 2017 at 16:15:16
 Copyright (C) 2017 TURBOMOLE GmbH, Karlsruhe


    2018-02-20 09:37:53.029 


 SCF run will be profiled !



                             d s c f - program

                   idea & directorship : reinhart ahlrichs
                   program development : marco haeser
                                         michael baer
                           dft version : oliver treutler
           parallelized version : malte v. arnim, gina corongiu, GMD 


                          quantum chemistry group
                          universitaet  karlsruhe
                                  germany




                          References             
                                                 
          TURBOMOLE:                             
              R. Ahlrichs, M. Baer, M. Haeser, H. Horn, and
              C. Koelmel
              Electronic structure calculations on workstation
              computers: the program system TURBOMOLE
              Chem. Phys. Lett. 162: 165 (1989)
          Density Functional:                              
              O. Treutler and R. Ahlrichs                      
              Efficient Molecular Numerical Integration Schemes
              J. Chem. Phys. 102: 346 (1995)                   
          Parallel Version:                                
              Performance of parallel TURBOMOLE for Density    
              Functional Calculations                          
              M. v. Arnim and R. Ahlrichs                      
              J. Comp. Chem. 19: 1746 (1998)                   
                                         




              +--------------------------------------------------+
              | Atomic coordinate, charge and isotop information |
              +--------------------------------------------------+

                    atomic coordinates            atom    charge  isotop
         -1.00170129    2.31805571   15.84505276    n      0.000     0
          5.31260054    8.80247574  -12.26789569    n      0.000     0
         -5.74252517   -8.72741374   15.08786916    c      0.000     0
         -4.70351651  -10.31159045   15.90297894    h      0.000     0
         -7.75911269   -9.02351561   15.40229565    h      0.000     0
         -4.83412851   -6.21303683   16.10287351    c      0.000     0
         -2.50911660   -6.02458570   17.33950789    c      0.000     0
         -1.41258511   -7.71326969   17.74521999    h      0.000     0
         -1.59098968   -3.66999475   18.09590118    c      0.000     0
          0.20824256   -3.55691128   19.08011524    h      0.000     0
         -2.98868314   -1.48057959   17.62299555    c      0.000     0
         -5.36331131   -1.68293163   16.46955188    c      0.000     0
         -6.52010133   -0.01093774   16.17715671    h      0.000     0
         -6.27720278   -4.02715808   15.71622017    c      0.000     0
         -8.13399519   -4.15067540   14.84637519    h      0.000     0
         -1.91148343    1.09507496   18.24237661    c      0.000     0
         -3.31697045    2.36282002   19.06142616    h      0.000     0
         -0.30063392    0.97232014   19.52443429    h      0.000     0
          1.16576937    1.48095751   14.75656209    c      0.000     0
          2.24884660    0.12121890   15.83781087    h      0.000     0
          1.87912817    2.28831354   12.39291117    c      0.000     0
          3.59743878    1.52294874   11.58630487    h      0.000     0
          0.35672335    3.99004817   11.01374326    c      0.000     0
         -1.81730941    4.90346858   12.25761134    c      0.000     0
         -3.01516031    6.31867982   11.38873098    h      0.000     0
         -2.45234310    4.04966733   14.63320828    c      0.000     0
         -4.10882304    4.70865953   15.64068547    h      0.000     0
          0.97905751    4.71514027    8.41938944    c      0.000     0
          3.48019551    4.61072616    7.51685567    c      0.000     0
          5.01971819    4.13678801    8.78711448    h      0.000     0
          4.03574125    5.22839933    5.03444311    c      0.000     0
          5.99361279    5.22219551    4.42670163    h      0.000     0
          2.11863298    5.94397410    3.33390844    c      0.000     0
         -0.37523468    6.05787375    4.24465543    c      0.000     0
         -1.90801451    6.54103237    2.97409510    h      0.000     0
         -0.93247104    5.47330923    6.73447633    c      0.000     0
         -2.88889797    5.51223131    7.34635281    h      0.000     0
          2.70470807    6.55490059    0.67874189    c      0.000     0
          4.84118024    5.52430218   -0.51917879    c      0.000     0
          6.04707843    4.21250962    0.49193042    h      0.000     0
          5.39338444    6.08571887   -3.01523261    c      0.000     0
          7.01713589    5.19510865   -3.89469237    h      0.000     0
          3.81285694    7.68177811   -4.43742284    c      0.000     0
          1.67615842    8.72372231   -3.24108994    c      0.000     0
          0.46975975   10.04505874   -4.24467029    h      0.000     0
          1.14638868    8.18346480   -0.73487075    c      0.000     0
         -0.45949799    9.09388558    0.15672476    h      0.000     0
          4.35244875    8.17984595   -7.10282861    c      0.000     0
          6.81490818    7.99237540   -8.10778452    c      0.000     0
          8.42599045    7.63803371   -6.89494045    h      0.000     0
          7.24231209    8.29999251  -10.65682116    c      0.000     0
          9.10739620    8.16588729  -11.49142434    h      0.000     0
          2.93422847    9.10981974  -11.35539154    c      0.000     0
          1.48735408    9.53541993  -12.73973165    h      0.000     0
          2.42106266    8.82815465   -8.82460402    c      0.000     0
          0.48325162    9.04166319   -8.20138957    h      0.000     0
          1.01094286   -2.32119823  -15.83105176    n      0.000     0
         -5.33239582   -8.79516515   12.27764423    n      0.000     0
          5.72327903    8.73562219  -15.07805193    c      0.000     0
          4.68061693   10.31746071  -15.89302714    h      0.000     0
          7.73911852    9.03646443  -15.39254294    h      0.000     0
          4.82124996    6.21888502  -16.09294024    c      0.000     0
          2.49013572    6.02156372  -17.31673453    c      0.000     0
          1.38352354    7.70579594  -17.71349191    h      0.000     0
          1.57903022    3.66413182  -18.07223093    c      0.000     0
         -0.22491057    3.54436047  -19.04698368    h      0.000     0
          2.99002732    1.48048342  -17.61181574    c      0.000     0
          5.37047993    1.69214113  -16.47228438    c      0.000     0
          6.53764747    0.02550810  -16.19081488    h      0.000     0
          6.27757098    4.03953103  -15.71983843    c      0.000     0
          8.13934181    4.17038411  -14.86183333    h      0.000     0
          1.92101528   -1.09916963  -18.22869492    c      0.000     0
          3.33157682   -2.36376765  -19.04376436    h      0.000     0
          0.31151322   -0.98346404  -19.51308881    h      0.000     0
         -1.16832261   -1.49954893  -14.75441867    c      0.000     0
         -2.25999456   -0.15460202  -15.84543426    h      0.000     0
         -1.88414116   -2.30460192  -12.39072074    c      0.000     0
         -3.61326061   -1.55173837  -11.59527644    h      0.000     0
         -0.35342696   -3.98873205  -10.99915147    c      0.000     0
          1.83308349   -4.88799006  -12.23164008    c      0.000     0
          3.03858311   -6.29154180  -11.35458652    h      0.000     0
          2.47096517   -4.03639716  -14.60705718    c      0.000     0
          4.13697294   -4.68494521  -15.60552285    h      0.000     0
         -0.98115635   -4.71315813   -8.40592868    c      0.000     0
         -3.48623302   -4.62098571   -7.51256475    c      0.000     0
         -5.02374357   -4.15533682   -8.78824648    h      0.000     0
         -4.04832499   -5.24071468   -5.03214128    c      0.000     0
         -6.00827087   -5.24344541   -4.43099065    h      0.000     0
         -2.13412591   -5.94791940   -3.32484651    c      0.000     0
          0.36342967   -6.05125499   -4.22650350    c      0.000     0
          1.89248199   -6.52922443   -2.94944556    h      0.000     0
          0.92744757   -5.46253880   -6.71366004    c      0.000     0
          2.88636985   -5.49218066   -7.31804187    h      0.000     0
         -2.72492498   -6.56014302   -0.67121554    c      0.000     0
         -4.86578518   -5.53426471    0.52292871    c      0.000     0
         -6.07474915   -4.22758157   -0.49140044    h      0.000     0
         -5.41903852   -6.09456421    3.01912594    c      0.000     0
         -7.04672317   -5.20793516    3.89546387    h      0.000     0
         -3.83554995   -7.68456338    4.44494114    c      0.000     0
         -1.69655750   -8.72458344    3.25107918    c      0.000     0
         -0.48904186  -10.04362536    4.25628260    h      0.000     0
         -1.16565331   -8.18562892    0.74504856    c      0.000     0
          0.44208117   -9.09411628   -0.14519497    h      0.000     0
         -4.37447648   -8.17878446    7.11109455    c      0.000     0
         -6.83688801   -7.99375438    8.11654935    c      0.000     0
         -8.44921660   -7.64341664    6.90416363    h      0.000     0
         -7.26321216   -8.29832282   10.66619543    c      0.000     0
         -9.12842908   -8.16636904   11.50088249    h      0.000     0
         -2.95343092   -9.09843698   11.36524810    c      0.000     0
         -1.50532110   -9.51974041   12.74965163    h      0.000     0
         -2.44145026   -8.82025113    8.83391633    c      0.000     0
         -0.50321877   -9.03023917    8.21054563    h      0.000     0
          0.41762680    0.94097172   -3.47075615    c      6.000     0
         -0.38115719   -0.94193257    3.43201590    c      6.000     0
         -0.69331975    0.58671567   -0.99239775    c      6.000     0
          0.73023825   -0.58754151    0.95372772    c      6.000     0
          2.94185546    0.10085069   -3.91927675    c      6.000     0
         -2.90529028   -0.10101985    3.88035189    c      6.000     0
          4.04926869    0.43815509   -6.33093317    c      6.000     0
         -4.01279637   -0.43716306    6.29196394    c      6.000     0
          0.92422366   -2.09667831    5.46266008    c      6.000     0
         -0.88857707    2.09470090   -5.50138177    c      6.000     0
         -3.20832493    1.39735654   -0.45224206    c      6.000     0
          3.24579843   -1.39682503    0.41349113    c      6.000     0
         -4.27076249    1.06930894    1.87797054    c      6.000     0
          4.30813404   -1.06867138   -1.91692406    c      6.000     0
          0.23170404    2.40280920   -7.84029746    c      6.000     0
         -0.19677597   -2.40462339    7.80142071    c      6.000     0
          2.72369888    1.57093869   -8.26894026    c      6.000     0
         -2.68779127   -1.57073571    8.23003627    c      6.000     0
         -4.31889928    2.29834901   -1.91882446    h      1.000     0
          4.35657888   -2.29762129    1.88009713    h      1.000     0
         -2.80911488    2.75823662   -5.23977913    h      1.000     0
          2.84463917   -2.76087410    5.20174938    h      1.000     0
         -6.19114228    1.70668972    2.23324461    h      1.000     0
          6.22915747   -1.70442052   -2.27153997    h      1.000     0
         -5.93777388    0.21999428    6.58552551    h      1.000     0
          5.97470309   -0.21756100   -6.62488792    h      1.000     0
          0.85850225   -3.29934505    9.31874425    h      1.000     0
         -0.82403301    3.29616516   -9.35803065    h      1.000     0
          3.58810965    1.82255328  -10.11510007    h      1.000     0
         -3.55449247   -1.82059259   10.07539000    h      1.000     0
 
       center of nuclear mass  :    0.00010850    0.00003048   -0.00009599
       center of nuclear charge:    0.01818960   -0.00015606   -0.01942066

              +--------------------------------------------------+
              |               basis set information              |
              +--------------------------------------------------+

              we will work with the 1s 3p 5d 7f 9g ... basis set
              ...i.e. with spherical basis functions...

   type   atoms  prim   cont   basis
   ---------------------------------------------------------------------------
    n        4     77     55   cc-pVQZ   [5s4p3d2f1g|21s6p3d2f1g]
    c       78     77     55   cc-pVQZ   [5s4p3d2f1g|21s6p3d2f1g]
    h       60     32     30   cc-pVQZ   [4s3p2d1f|6s3p2d1f]
   ---------------------------------------------------------------------------
   total:  142   8234   6310
   ---------------------------------------------------------------------------

   total number of primitive shells          :   78
   total number of contracted shells         : 1830
   total number of cartesian basis functions : 7840
   total number of SCF-basis functions       : 6310


 integral neglect threshold       :  0.43E-12
 integral storage threshold THIZE :  0.10E-04
 integral storage threshold THIME :         5


 DENSITY CONVERGENCE CHECK SWITCHED ON !
 SCF CONVERGENCE IF RMS(delta[D]) <     0.1000000000E-06


 symmetry group of the molecule :   c1 

 the group has the following generators :
   c1(z)

    1 symmetry operations found

 there are 1 real representations :   a   

 maximum number of shells which are related by symmetry :  1


    mo occupation :
   irrep   mo's   occupied
    a     6310       60
 
 number of basis functions   :                   6310
 number of occupied orbitals :                     60
 

 automatic virtual orbital shift switched on 
      shift if e(lumo)-e(homo) < 0.10000000    


 keyword $2e-ints_shell_statistics missing in file <control>

 ! One task per shell generated
  No pre-computed optimal task distribution found
  ... using automatic task generation

          ------------------------
          nuclear repulsion energy  :   1136.97699216    
          ------------------------


         -----------------
         -S,T+V- integrals
         -----------------

 1e-integrals will be neglected if expon. factor < 0.426271E-13
 
   Difference densities algorithm switched on.
   The maximal number of linear combinations of
   difference densities is                    20 .

 DIIS switched on: error vector is FDS-SDF
 Max. Iterations for DIIS is     :   5
 DIIS matrix (see manual) 
    Scaling factor of diagonals  :  1.200
    threshold for scaling factor :  0.000

 scf convergence criterion : increment of total energy < .1000000D-06
                  and increment of one-electron energy < .1000000D-03

  MOs are in ASCII format !


 reading orbital data $scfmo  from file mos
 orbital characterization : expanded
 mo provided and orthogonalized by Cholesky decomposition

 DSCF restart information will be dumped onto file mos

 
                                              current damping :  0.300
 ITERATION  ENERGY          1e-ENERGY        2e-ENERGY     RMS[dD(SAO)]   TOL
   1  -686.72216640555    -3163.0606417     1339.3614831    0.000D+00 0.425D-12
          max. resid. norm for Fia-block=  3.027D-01 for orbital     11a         
          max. resid. fock norm         =  1.797D+01 for orbital   5763a         
          Delta Eig. =  1903.6349124633 eV 
 
                                              current damping :  0.250
 ITERATION  ENERGY          1e-ENERGY        2e-ENERGY     RMS[dD(SAO)]   TOL
   2  -688.61500579476    -3185.6208465     1360.0288486    0.209D-02 0.402D-12
          Norm of current diis error:  3.8590    
          max. resid. norm for Fia-block=  1.103D-01 for orbital     21a         
          max. resid. fock norm         =  1.406D-01 for orbital   5407a         
          Delta Eig. =   456.8383586529 eV 
 
                                              current damping :  0.150
 ITERATION  ENERGY          1e-ENERGY        2e-ENERGY     RMS[dD(SAO)]   TOL
   3  -688.86988547621    -3187.2650758     1361.4181982    0.473D-03 0.245D-12
          Norm of current diis error:  1.2458    
          max. resid. norm for Fia-block=  3.656D-02 for orbital     21a         
          max. resid. fock norm         =  3.893D-02 for orbital     20a         
          Delta Eig. =    99.3160194464 eV 
 
                                              current damping :  0.100
 ITERATION  ENERGY          1e-ENERGY        2e-ENERGY     RMS[dD(SAO)]   TOL
   4  -688.90596094751    -3189.4825697     1363.5996166    0.160D-03 0.206D-12
          Norm of current diis error: 0.28033    
          max. resid. norm for Fia-block=  8.997D-03 for orbital     60a         
          max. resid. fock norm         =  1.106D-02 for orbital   6233a         
          Delta Eig. =    13.5362132571 eV 
 
                                              current damping :  0.150
 ITERATION  ENERGY          1e-ENERGY        2e-ENERGY     RMS[dD(SAO)]   TOL
   5  -688.90878542324    -3189.2813503     1363.3955727    0.621D-04 0.182D-12
          Norm of current diis error: 0.96363E-01
          max. resid. norm for Fia-block=  3.419D-03 for orbital     59a         
          max. resid. fock norm         =  5.666D-03 for orbital     14a         
 mo-orthogonalization: Cholesky decomposition
          Delta Eig. =     1.1799568935 eV 
 
                                              current damping :  0.200
 ITERATION  ENERGY          1e-ENERGY        2e-ENERGY     RMS[dD(SAO)]   TOL
   6  -688.90912267222    -3189.4715719     1363.5854571    0.202D-04 0.171D-12
          Norm of current diis error: 0.34515E-01
          max. resid. norm for Fia-block=  1.366D-03 for orbital     58a         
          max. resid. fock norm         =  1.727D-03 for orbital   6236a         
          Delta Eig. =     0.1454162276 eV 
 
                                              current damping :  0.250
 ITERATION  ENERGY          1e-ENERGY        2e-ENERGY     RMS[dD(SAO)]   TOL
   7  -688.90918038619    -3189.4464949     1363.5603223    0.942D-05 0.162D-12
          Norm of current diis error: 0.13376E-01
          max. resid. norm for Fia-block=  7.316D-04 for orbital     60a         
          max. resid. fock norm         =  7.813D-04 for orbital     60a         
          Delta Eig. =     0.0241040682 eV 
 
                                              current damping :  0.300
 ITERATION  ENERGY          1e-ENERGY        2e-ENERGY     RMS[dD(SAO)]   TOL
   8  -688.90919142216    -3189.4499195     1363.5637359    0.391D-05 0.156D-12
          Norm of current diis error: 0.63735E-02
          max. resid. norm for Fia-block=  3.626D-04 for orbital     57a         
          max. resid. fock norm         =  3.779D-04 for orbital     57a         
          Delta Eig. =     0.0079508591 eV 
 
                                              current damping :  0.350
 ITERATION  ENERGY          1e-ENERGY        2e-ENERGY     RMS[dD(SAO)]   TOL
   9  -688.90919400492    -3189.4478784     1363.5616922    0.151D-05 0.151D-12
          Norm of current diis error: 0.27651E-02
          max. resid. norm for Fia-block=  1.888D-04 for orbital     60a         
          max. resid. fock norm         =  1.930D-04 for orbital     60a         
          Delta Eig. =     0.0021989383 eV 
 
                                              current damping :  0.400
 ITERATION  ENERGY          1e-ENERGY        2e-ENERGY     RMS[dD(SAO)]   TOL
  10  -688.90919458024    -3189.4489398     1363.5627530    0.524D-06 0.146D-12
          Norm of current diis error: 0.12969E-02
          max. resid. norm for Fia-block=  9.708D-05 for orbital     57a         
          max. resid. fock norm         =  9.852D-05 for orbital     57a         
 mo-orthogonalization: Cholesky decomposition
          Delta Eig. =     0.0011707350 eV 
 
                                              current damping :  0.450
 ITERATION  ENERGY          1e-ENERGY        2e-ENERGY     RMS[dD(SAO)]   TOL
  11  -688.90919470665    -3189.4484319     1363.5622451    0.173D-06 0.141D-12
          Norm of current diis error: 0.60598E-03
          max. resid. norm for Fia-block=  4.637D-05 for orbital     56a         
          max. resid. fock norm         =  4.675D-05 for orbital     56a         
          Delta Eig. =     0.0004276386 eV 

 DENSITY CONVERGED !

 
                                              current damping :  0.500
 ITERATION  ENERGY          1e-ENERGY        2e-ENERGY     RMS[dD(SAO)]   TOL
  12  -688.90919473562    -3189.4486981     1363.5625112    0.734D-07 0.138D-12
          Norm of current diis error: 0.29565E-03
          max. resid. norm for Fia-block=  2.501D-05 for orbital     57a         
          max. resid. fock norm         =  2.544D-05 for orbital     57a         
          Delta Eig. =     0.0001956117 eV 

 ENERGY & DENSITY CONVERGED !

 
                                              current damping :  0.550
 ITERATION  ENERGY          1e-ENERGY        2e-ENERGY     RMS[dD(SAO)]   TOL
  13  -688.90919474237    -3189.4486362     1363.5624493    0.435D-07 0.134D-12
          max. resid. norm for Fia-block=  6.480D-06 for orbital     57a         
          max. resid. fock norm         =  6.502D-06 for orbital     57a         

 convergence criteria satisfied after    13 iterations


                  ------------------------------------------ 
                 |  total energy      =   -688.90919474237  |
                  ------------------------------------------ 
                 :  kinetic energy    =    687.88274865080  :
                 :  potential energy  =  -1376.79194339317  :
                 :  virial theorem    =      1.99851004153  :
                 :  wavefunction norm =      1.00000000000  :
                  .......................................... 


 <geterg> : there is no data group $energy 


 <skperg> : $end is missing 


 orbitals $scfmo  will be written to file mos

    irrep                 56a         57a         58a         59a         60a   
 eigenvalues H         -0.37960    -0.36400    -0.32256    -0.29238    -0.27141
            eV         -10.3295     -9.9049     -8.7774     -7.9561     -7.3854
 occupation              2.0000      2.0000      2.0000      2.0000      2.0000 

    irrep                 61a         62a         63a         64a         65a   
 eigenvalues H          0.03608     0.03643     0.05288     0.05314     0.05474
            eV           0.9817      0.9912      1.4388      1.4461      1.4895
 
 
 
 
 ==============================================================================
                           electrostatic moments
 ==============================================================================

 reference point for electrostatic moments:    0.00000   0.00000   0.00000

 
              nuc           elec       ->  total
 ------------------------------------------------------------------------------
                          charge      
 ------------------------------------------------------------------------------
         120.000000    -120.000000      -0.000000
 
 ------------------------------------------------------------------------------
                       dipole moment  
 ------------------------------------------------------------------------------
   x       2.182752      -2.182805      -0.000052
   y      -0.018727       0.019031       0.000304
   z      -2.330479       2.330487       0.000008
 
   | dipole moment | =     0.0003 a.u. =     0.0008 debye 
 
 ------------------------------------------------------------------------------
                     quadrupole moment
 ------------------------------------------------------------------------------
  xx     978.236940   -1048.207977     -69.971037
  yy     266.068224    -348.157772     -82.089549
  zz    3308.960616   -3377.990332     -69.029716
  xy    -102.394683      96.867623      -5.527060
  xz    -876.684553     874.793368      -1.891186
  yz    -710.931234     706.363298      -4.567936
 
     1/3  trace=     -73.696767
     anisotropy=      18.003468
 
 ==============================================================================
 

    dscf profiling
  --------------------------------------------------------------------
             module   cpu total (s)       %  wall total (s)       %

          dscf.total         60866.5  100.00         54342.6  100.00
        dscf.prepare           296.9    0.49           296.9    0.55
      prepare.oneint             1.6    0.00             1.6    0.00
     prepare.moinput             0.4    0.00             0.5    0.00
     moinput_orthmos           293.1    0.48           293.0    0.54
            dscf.scf         60563.8   99.50         54039.7   99.44
             scf.pre             0.0    0.00             0.0    0.00
        scf.makedmat            59.5    0.10            68.5    0.13
          scf.shloop         50958.3   83.72         50936.1   93.73
          shloop_omp         50950.3   83.71         50928.0   93.72
          scf.symcar             8.8    0.01             8.8    0.02
        scf.makefock            23.6    0.04            28.3    0.05
          scf.newerg             0.8    0.00             0.8    0.00
          scf.newcnv          1731.3    2.84           241.4    0.44
           scf.fdiag          5599.4    9.20           725.1    1.33
         diag_tritrn          1294.6    2.13           167.1    0.31
          diag_rdiag          4292.2    7.05           556.0    1.02
          scf.modump          1698.1    2.79          1714.8    3.16
           ortho_all           338.7    0.56           170.0    0.31
            scf.post           144.6    0.24           145.6    0.27
        dscf.postscf             5.8    0.01             6.0    0.01
 


    ------------------------------------------------------------------------
         total  cpu-time : 16 hours 54 minutes and 27 seconds
         total wall-time : 15 hours  5 minutes and 43 seconds
    ------------------------------------------------------------------------

   ****  dscf : all done  ****


    2018-02-21 00:43:35.782 

