STARTING ridft ON 32 PROCESSORS!
RUNNING PROGRAM /sopt/TURBOMOLE/7.3-official/bin/em64t-unknown-linux-gnu_smp/ridft_mpi.
           SMPCPUS    set: Shared-memory Parallelization with  32 CPUs.

           SMP Parallelization Reference:
           C. van Wullen, J. Comput. Chem. 32 (2011) 1195--1201
 operating system is UNIX !

 ridft (c-13-38) : TURBOMOLE V7.3 ( 22118 ) 1 Jul 2018 at 20:38:15
 Copyright (C) 2018 TURBOMOLE GmbH, Karlsruhe


    2019-03-12 22:28:29.601 



                                  r i d f t

                        DFT program with RI approximation 
                                for coulomb part 




                                                 
                                 References:     
                                                 
          TURBOMOLE:                             
              R. Ahlrichs, M. Baer, M. Haeser, H. Horn, and
              C. Koelmel
              Electronic structure calculations on workstation
              computers: the program system TURBOMOLE
              Chem. Phys. Lett. 162: 165 (1989)
          Density Functional:                              
              O. Treutler and R. Ahlrichs                      
              Efficient Molecular Numerical Integration Schemes
              J. Chem. Phys. 102: 346 (1995)                   
          Parallel Version:                                
              Performance of parallel TURBOMOLE for Density    
              Functional Calculations                          
              M. v. Arnim and R. Ahlrichs                      
              J. Comp. Chem. 19: 1746 (1998)                   
          RI-J Method:                                     
              Auxiliary Basis Sets to approximate Coulomb      
              Potentials                                       
              Chem. Phys. Lett. 240: 283 (1995)                
              K. Eichkorn, O. Treutler, H. Oehm, M. Haeser     
              and R. Ahlrichs                                  
              Chem. Phys. Lett. 242: 652 (1995)                
                                                           
              Auxiliary Basis Sets for Main Row Atoms and their
              Use to approximate Coulomb Potentials            
              K. Eichkorn, F. Weigend, O. Treutler and         
              R. Ahlrichs                                      
              Theo. Chem. Acc. 97: 119 (1997)                   
                                                           
              Accurate Coulomb-fitting basis sets for H to Rn 
              F. Weigend                                        
              Phys. Chem. Chem. Phys. 8: 1057 (2006)            
                                                           
          Multipole accelerated RI-J (MARI-J):             
              Fast evaluation of the Coulomb potential for     
              electron densities using multipole accelerated   
              resolution of identity approximation             
              M. Sierka, A. Hogekamp and R. Ahlrichs           
              J. Chem. Phys. 118: 9136 (2003)                  
          RI-JK Method:                                     
              A fully direct RI-HF algorithm: Implementation,
              optimised auxiliary basis sets, demonstration of
              accuracy and efficiency                         
              F. Weigend                                      
              Phys. Chem. Chem. Phys. 4: 4285 (2002)           
          Two-component HF and DFT with spin-orbit coupling:  
              Self-consistent treatment of spin-orbit         
              interactions with efficient Hartree-Fock and    
              density functional methods                      
              M. K. Armbruster, F. Weigend, C. van Wüllen and 
              W. Klopper                                      
              Phys. Chem. Chem. Phys. 10: 1748 (2008)         
          Two-component difference density and DIIS algorithm 
              Efficient two-component self-consistent field   
              procedures and gradients: implementation in     
              TURBOMOLE and application to Au20-              
              A. Baldes, F. Weigend                           
              Mol. Phys. 111: 2617 (2013)                     
          Relativistic all-electron 2c calculations           
              An efficient implementation of two-component    
              relativistic exact-decoupling methods for large 
              molecules                                       
              D. Peng, N. Middendorf, F. Weigend, M. Reiher   
              J. Chem. Phys. 138: 184105 (2013)               
          Finite nucleus model and SNSO approximation         
              Efficient implementation of one- and two-       
              component analytical energy gradients in exact  
              two-component theory                            
              Y. J. Franzke, N. Middendorf, F. Weigend        
              J. Chem. Phys. 148: 104110 (2018)               
                                         




              +--------------------------------------------------+
              |      general information about current run       |
              +--------------------------------------------------+

 
 PBE functional
 exchange:    LDA + PBE
 correlation: LDA (PW) + PBE
 A DFT calculation using the RI-J approximation will be carried out.
 Allocatable memory for RI due to $ricore (MB):                  8000


              +--------------------------------------------------+
              | Atomic coordinate, charge and isotop information |
              +--------------------------------------------------+

                    atomic coordinates            atom    charge  isotop
         -1.02245371    0.05589092   -0.39494346    n      7.000     0
          0.10498062   -1.48554792   -0.24621874    h      1.000     0
         -2.77727268   -0.51912374    0.10042644    h      1.000     0
         -0.14890903    1.96983231    1.39548501    c      6.000     0
         -1.36089182    3.62716636    1.26985866    h      1.000     0
         -0.09591908    1.36782711    3.37413347    h      1.000     0
          1.75070035    2.56360964    0.87305194    h      1.000     0
 
       center of nuclear mass  :   -0.59589504    0.96726400    0.53589242
       center of nuclear charge:   -0.57939071    0.98689788    0.60997542

              +--------------------------------------------------+
              |               basis set information              |
              +--------------------------------------------------+

              we will work with the 1s 3p 5d 7f 9g ... basis set
              ...i.e. with spherical basis functions...

   type   atoms  prim   cont   basis
   ---------------------------------------------------------------------------
    n        1     68     48   def2-QZVP   [7s4p3d2f|15s8p3d2f]
    h        5     26     23   def2-QZVP   [4s3p2d|7s3p2d]
    c        1     68     48   def2-QZVP   [7s4p3d2f|15s8p3d2f]
   ---------------------------------------------------------------------------
   total:    7    266    211
   ---------------------------------------------------------------------------

   total number of primitive shells          :   68
   total number of contracted shells         :   77
   total number of cartesian basis functions :  239
   total number of SCF-basis functions       :  211


 integral neglect threshold       :  0.14E-10
 integral storage threshold THIZE :  0.10E-04
 integral storage threshold THIME :         5

 RI-J AUXILIARY BASIS SET information:

              we will work with the 1s 3p 5d 7f 9g ... basis set
              ...i.e. with spherical basis functions...

   type   atoms  prim   cont   basis
   ---------------------------------------------------------------------------
    n        1     70     49   def2-QZVP   [6s4p3d1f1g|12s5p4d2f1g]
    h        5     16     11   def2-QZVP   [3s1p1d|5s2p1d]
    c        1     70     49   def2-QZVP   [6s4p3d1f1g|12s5p4d2f1g]
   ---------------------------------------------------------------------------
   total:    7    220    153
   ---------------------------------------------------------------------------

   total number of primitive shells          :   56
   total number of contracted shells         :   55
   total number of cartesian basis functions :  182
   total number of SCF-basis functions       :  153


 symmetry group of the molecule :   c1 

 the group has the following generators :
   c1(z)

    1 symmetry operations found

 there are 1 real representations :   a   

 maximum number of shells which are related by symmetry :  1


    mo occupation :
   irrep   mo's   occupied
    a      211        9
 
 number of basis functions   :                    211
 number of occupied orbitals :                      9
 
  
           ------------------
           density functional
           ------------------
 PBE functional
 exchange:    LDA + PBE
 correlation: LDA (PW) + PBE

 iterations will be done with small grid
  
 spherical integration : Lebedev's spherical grid
 spherical gridsize    :                     4
    i.e. gridpoints    :                   434
 value for diffuse not defined
 radial integration    : Chebyshev 2nd kind (scaling 3)
 radial gridsize       :                     6
 integration cells     :                     7
 partition function    : becke
 partition sharpness   :                     3
  

 biggest AO integral is expected to be     6.129561670
  
           ------------------------
               RI-J - INFORMATION
           ------------------------
 Contributions to RI integral batches: 
  neglected integral batches:                    59
  direct contribution:                            0
  memory contribution:                  2944
 Memory core needed for (P|Q) and Cholesky      1 MByte
 Memory core minimum needed except of (P|Q)     1 MByte
 Total minimum memory core needed (sum)         1 MByte
  
 ****************************************
 Memory allocated for RI-J    40 MByte
 ****************************************
                                            

          ------------------------
          nuclear repulsion energy  :   42.0937646889    
          ------------------------

  _________________________________
 |                                 |
 |         DFTD3 V3.1 Rev 0        |
 | S.Grimme, University Bonn       |
 |            June  2014           |
 |   see standalone version        |
 |       dftd3 -h for options      |
 |_________________________________|
 
 Please cite DFT-D3 work done with this code as:
 S. Grimme, J. Antony, S. Ehrlich and H. Krieg,
 J. Chem. Phys, 132 (2010), 154104.
 If used with BJ-damping cite also
 S. Grimme, S. Ehrlich and L. Goerigk,
 J. Comput. Chem. 32 (2011), 1456-1465
 For DFT-D2 the reference is
 S. Grimme, J. Comput. Chem., 27 (2006), 1787-1799
 
C6 coefficients used:
                     2  C6 for element                      1
Z=  1 CN= 0.912     C6(AA)=    3.03
Z=  1 CN= 0.000     C6(AA)=    7.59
                     5  C6 for element                      6
Z=  6 CN= 0.000     C6(AA)=   49.11
Z=  6 CN= 0.987     C6(AA)=   43.25
Z=  6 CN= 1.998     C6(AA)=   29.36
Z=  6 CN= 2.999     C6(AA)=   25.78
Z=  6 CN= 3.984     C6(AA)=   18.21
                     4  C6 for element                      7
Z=  7 CN= 0.000     C6(AA)=   25.27
Z=  7 CN= 0.994     C6(AA)=   22.12
Z=  7 CN= 2.014     C6(AA)=   19.68
Z=  7 CN= 2.990     C6(AA)=   15.58

#           XYZ [au]              R0(AA) [Ang.]  CN          C6(AA)     C8(AA)   C10(AA) [au]
  1  -1.02245   0.05589  -0.39494   n   0.533  2.999        15.7       345.5      9335.6
  2   0.10498  -1.48555  -0.24622   h   0.395  1.006         3.1        37.3       552.8
  3  -2.77727  -0.51912   0.10043   h   0.395  1.006         3.1        37.3       552.8
  4  -0.14891   1.96983   1.39549   c   0.610  3.990        18.3       530.3     18787.3
  5  -1.36089   3.62717   1.26986   h   0.395  0.998         3.1        37.4       553.4
  6  -0.09592   1.36783   3.37413   h   0.395  0.996         3.1        37.4       553.6
  7   1.75070   2.56361   0.87305   h   0.395  0.998         3.1        37.4       553.4

molecular C6(AA) [au] =       288.36

           DFT-D V3(BJ)
 DF pbe                                               
 parameters
 s6       :    1.0000
 s8       :    0.7875
 a1       :    0.4289
 a2       :    4.4407
 k1-k3    :   16.0000    1.3333   -4.0000
 
 Edisp /kcal,au:    -1.6756 -0.00267028

 E6    /kcal :    -1.2434
 E8    /kcal :    -0.4323
 % E8        : 25.80
 nuclear repulsion energy                  =      42.093764689
 empirical dispersive energy correction    =      -0.002670277
 nuclear repulsion + dispersion correction =      42.091094412


         -----------------
         -S,T+V- integrals
         -----------------

 1e-integrals will be neglected if expon. factor < 0.139831E-11
 Difference densities >>NOT<< switched on in parallel ridft!

 DIIS switched on: error vector is FDS-SDF
 Max. Iterations for DIIS is     :   4
 DIIS matrix (see manual) 
    Scaling factor of diagonals  :  1.200
    threshold for scaling factor :  0.000

 scf convergence criterion : increment of total energy < .1000000D-06
                  and increment of one-electron energy < .1000000D-03

  MOs are in ASCII format !


 automatic virtual orbital shift switched on 
      shift if e(lumo)-e(homo) < 0.10000000    


 reading orbital data $scfmo  from file mos
 orbital characterization : expanded
 mo provided and orthogonalized by Cholesky decomposition

 DSCF restart information will be dumped onto file mos


 Starting SCF iterations

          Overall gridpoints after grid construction =         16316

 ITERATION  ENERGY          1e-ENERGY        2e-ENERGY     NORM[dD(SAO)]  TOL
   1  -95.387809666476    -210.15585912     72.676955047    0.000D+00 0.139D-10
                            Exc = -13.8173182442     Coul =  86.4942732910    
                              N = 17.999914473    
                            current damping = 0.700
 
          max. resid. norm for Fia-block=  5.735D-01 for orbital      3a         
          max. resid. fock norm         =  6.888D+01 for orbital    197a         

 ITERATION  ENERGY          1e-ENERGY        2e-ENERGY     NORM[dD(SAO)]  TOL
   2  -95.694966082465    -211.13915980     73.353099310    0.000D+00 0.139D-10
                            Exc = -13.9435943944     Coul =  87.2966937049    
                              N = 17.999920699    
                            current damping = 0.650
 
          Norm of current diis error:  1.7170    
          max. resid. norm for Fia-block=  1.247D-01 for orbital      1a         
          max. resid. fock norm         =  1.559D-01 for orbital    134a         

 ITERATION  ENERGY          1e-ENERGY        2e-ENERGY     NORM[dD(SAO)]  TOL
   3  -95.754583438846    -211.54599904     73.700321188    0.000D+00 0.139D-10
                            Exc = -14.0260874926     Coul =  87.7264086807    
                              N = 17.999928323    
                            current damping = 0.500
 
          Norm of current diis error: 0.79787    
          max. resid. norm for Fia-block=  5.054D-02 for orbital      1a         
          max. resid. fock norm         =  5.364D-02 for orbital      1a         

 ITERATION  ENERGY          1e-ENERGY        2e-ENERGY     NORM[dD(SAO)]  TOL
   4  -95.773796555000    -211.59040897     73.725518008    0.000D+00 0.139D-10
                            Exc = -14.0486597627     Coul =  87.7741777709    
                              N = 17.999934114    
                            current damping = 0.350
 
          Norm of current diis error: 0.28668    
          max. resid. norm for Fia-block=  1.876D-02 for orbital      3a         
          max. resid. fock norm         =  2.697D-02 for orbital    134a         

 ITERATION  ENERGY          1e-ENERGY        2e-ENERGY     NORM[dD(SAO)]  TOL
   5  -95.776685509304    -211.80418889     73.936408965    0.000D+00 0.139D-10
                            Exc = -14.0824335535     Coul =  88.0188425181    
                              N = 17.999939259    
                            current damping = 0.200
 
          Norm of current diis error: 0.11829    
          max. resid. norm for Fia-block=  9.379D-03 for orbital      9a         
          max. resid. fock norm         =  9.462D-03 for orbital      9a         
          mo-orthogonalization: Cholesky decomposition

 ITERATION  ENERGY          1e-ENERGY        2e-ENERGY     NORM[dD(SAO)]  TOL
   6  -95.777101711092    -211.64968142     73.781485293    0.000D+00 0.139D-10
                            Exc = -14.0676473210     Coul =  87.8491326141    
                              N = 17.999940346    
                            current damping = 0.250
 
          Norm of current diis error: 0.73684E-01
          max. resid. norm for Fia-block=  2.380D-03 for orbital      5a         
          max. resid. fock norm         =  3.364D-03 for orbital    136a         

 ITERATION  ENERGY          1e-ENERGY        2e-ENERGY     NORM[dD(SAO)]  TOL
   7  -95.777211918812    -211.73112876     73.862822429    0.000D+00 0.139D-10
                            Exc = -14.0768512612     Coul =  87.9396736899    
                              N = 17.999940984    
                            current damping = 0.300
 
          Norm of current diis error: 0.10426E-01
          max. resid. norm for Fia-block=  5.471D-04 for orbital      7a         
          max. resid. fock norm         =  8.941D-04 for orbital    151a         

 ITERATION  ENERGY          1e-ENERGY        2e-ENERGY     NORM[dD(SAO)]  TOL
   8  -95.777213388079    -211.72247678     73.854168976    0.000D+00 0.139D-10
                            Exc = -14.0762370601     Coul =  87.9304060362    
                              N = 17.999941006    
                            current damping = 0.350
 
          Norm of current diis error: 0.61405E-02
          max. resid. norm for Fia-block=  1.994D-04 for orbital      7a         
          max. resid. fock norm         =  2.366D-04 for orbital    151a         

 ITERATION  ENERGY          1e-ENERGY        2e-ENERGY     NORM[dD(SAO)]  TOL
   9  -95.777214167716    -211.72843625     73.860127673    0.000D+00 0.139D-10
                            Exc = -14.0768282649     Coul =  87.9369559375    
                              N = 17.999941046    
                            current damping = 0.400
 
          Norm of current diis error: 0.69363E-03
          max. resid. norm for Fia-block=  3.591D-05 for orbital      9a         
          max. resid. fock norm         =  4.158D-05 for orbital      9a         

 ENERGY CONVERGED !

          Overall gridpoints after grid construction =         63493

 ITERATION  ENERGY          1e-ENERGY        2e-ENERGY     NORM[dD(SAO)]  TOL
  10  -95.777179693488    -211.72863531     73.860361204    0.000D+00 0.139D-10
                            Exc = -14.0768087875     Coul =  87.9371699917    
                              N = 17.999999825    
                            current damping = 0.250
 
          Norm of current diis error: 0.14136E-03
          max. resid. norm for Fia-block=  6.257D-06 for orbital      4a         
          max. resid. fock norm         =  8.428D-06 for orbital    191a         

 End of SCF iterations

   convergence criteria satisfied after    10 iterations


                  ------------------------------------------ 
                 |  total energy      =    -95.77717969349  |
                  ------------------------------------------ 
                 :  kinetic energy    =     95.38062003979  :
                 :  potential energy  =   -191.15779973328  :
                 :  virial theorem    =      1.99585956013  :
                 :  wavefunction norm =      1.00000000000  :
                  .......................................... 


 orbitals $scfmo  will be written to file mos

    irrep                  5a          6a          7a          8a          9a   
 eigenvalues H         -0.44139    -0.39430    -0.35684    -0.32321    -0.20014
            eV         -12.0108    -10.7296     -9.7103     -8.7952     -5.4461
 occupation              2.0000      2.0000      2.0000      2.0000      2.0000 

    irrep                 10a         11a         12a         13a         14a   
 eigenvalues H         -0.00037     0.03439     0.05101     0.07366     0.08795
            eV          -0.0101      0.9357      1.3880      2.0044      2.3934
 
 
 
 
 ==============================================================================
                           electrostatic moments
 ==============================================================================

 reference point for electrostatic moments:    0.00000   0.00000   0.00000

 
              nuc           elec       ->  total
 ------------------------------------------------------------------------------
                          charge      
 ------------------------------------------------------------------------------
          18.000000     -18.000000      -0.000000
 
 ------------------------------------------------------------------------------
                       dipole moment  
 ------------------------------------------------------------------------------
   x     -10.429033      10.413841      -0.015192
   y      17.764162     -17.985490      -0.221328
   z      10.979558     -10.507569       0.471989
 
   | dipole moment | =     0.5215 a.u. =     1.3256 debye 
 
 ------------------------------------------------------------------------------
                     quadrupole moment
 ------------------------------------------------------------------------------
  xx      20.101368     -29.641819      -9.540451
  yy      47.379026     -57.325122      -9.946096
  zz      26.606379     -38.706216     -12.099836
  xy      -1.453451       1.576472       0.123021
  xz       0.751786      -1.399748      -0.647961
  yz      28.111733     -27.725259       0.386474
 
     1/3  trace=     -10.528795
     anisotropy=       2.725775
 
 ==============================================================================
 


    ------------------------------------------------------------------------
         total  cpu-time :  20.50 seconds
         total wall-time :   4.48 seconds
    ------------------------------------------------------------------------

   ****  ridft : all done  ****


    2019-03-12 22:28:34.045 

