Using OpenMPI from /sopt/mpi/openmpi-1.8.6/intel_15.0.3/bin/mpiexec
STARTING ridft ON 8 PROCESSORS!
RUNNING PROGRAM /beegfs/modfac/apps/TURBOMOLE/7.0_intel/bin/em64t-unknown-linux-gnu_mpi/ridft_mpi.
PLEASE WAIT UNTIL ridft HAS FINISHED.
Look for the output in slave1.output.
  this is node-proc. number 1 running on node c-8-21.local
  the total number of node-proc. spawned is            7
  parallel platform: MPP, or cluster with fast interconnect

 ridft (c-8-21.local) : TURBOMOLE V7.0( ) 6 Jul 2015 at 19:34:44
 Copyright (C) 2015 TURBOMOLE GmbH, Karlsruhe


    2017-11-09 03:49:22.111 



                                  r i d f t

                        DFT program with RI approximation 
                                for coulomb part 




                                                 
                                 References:     
                                                 
          TURBOMOLE:                             
              R. Ahlrichs, M. Baer, M. Haeser, H. Horn, and
              C. Koelmel
              Electronic structure calculations on workstation
              computers: the program system TURBOMOLE
              Chem. Phys. Lett. 162: 165 (1989)
          Density Functional:                              
              O. Treutler and R. Ahlrichs                      
              Efficient Molecular Numerical Integration Schemes
              J. Chem. Phys. 102: 346 (1995)                   
          Parallel Version:                                
              Performance of parallel TURBOMOLE for Density    
              Functional Calculations                          
              M. v. Arnim and R. Ahlrichs                      
              J. Comp. Chem. 19: 1746 (1998)                   
          RI-J Method:                                     
              Auxiliary Basis Sets to approximate Coulomb      
              Potentials                                       
              Chem. Phys. Lett. 240: 283 (1995)                
              K. Eichkorn, O. Treutler, H. Oehm, M. Haeser     
              and R. Ahlrichs                                  
              Chem. Phys. Lett. 242: 652 (1995)                
                                                           
              Auxiliary Basis Sets for Main Row Atoms and their
              Use to approximate Coulomb Potentials            
              K. Eichkorn, F. Weigend, O. Treutler and         
              R. Ahlrichs                                      
              Theo. Chem. Acc. 97: 119 (1997)                   
                                                           
              Accurate Coulomb-fitting basis sets for H to Rn 
              F. Weigend                                        
              Phys. Chem. Chem. Phys. 8: 1057 (2006)            
                                                           
          Multipole accelerated RI-J (MARI-J):             
              Fast evaluation of the Coulomb potential for     
              electron densities using multipole accelerated   
              resolution of identity approximation             
              M. Sierka, A. Hogekamp and R. Ahlrichs           
              J. Chem. Phys. 118: 9136 (2003)                  
          RI-JK Method:                                     
              A fully direct RI-HF algorithm: Implementation,
              optimised auxiliary basis sets, demonstration of
              accuracy and efficiency                         
              F. Weigend                                      
              Phys. Chem. Chem. Phys. 4: 4285 (2002)           
          Two-component HF and DFT with spin-orbit coupling:  
              Self-consistent treatment of spin-orbit         
              interactions with efficient Hartree-Fock and    
              density functional methods                      
              M. K. Armbruster, F. Weigend, C. van Wüllen and 
              W. Klopper                                      
              Phys. Chem. Chem. Phys. 10: 1748 (2008)         
          Relativistic all-electron 2c calculations           
              An efficient implementation of two-component    
              relativistic exact-decoupling methods for large 
              molecules                                       
              D. Peng, N. Middendorf, F. Weigend, M. Reiher   
              J. Chem. Phys. 138, 184105 (2013)               
                                         


 


              +--------------------------------------------------+
              |      general information about current run       |
              +--------------------------------------------------+

 

 SCF run will be profiled !


 DENSITY CONVERGENCE CHECK SWITCHED ON !
 SCF CONVERGENCE IF RMS(delta[D]) <     0.1000000000E-06

 PBE functional
 exchange:    LDA + PBE
 correlation: LDA (PW) + PBE
 A DFT calculation using the RI-J approximation will be carried out.
 Allocatable memory for RI due to $ricore (MB):       13000


              +--------------------------------------------------+
              | Atomic coordinate, charge and isotop information |
              +--------------------------------------------------+

                    atomic coordinates            atom    charge  isotop
         -8.26074557   -0.09925661   -5.64686764    o      8.000     0
         -5.23460914    6.23039174   -5.87351637    o      8.000     0
          1.62417978    7.57163621   -5.90935397    o      8.000     0
          7.30566247    3.45648751   -6.16382604    o      8.000     0
          6.99564127   -3.54547898   -5.78982798    o      8.000     0
          1.69860174   -8.18268478   -5.79444860    o      8.000     0
         -5.08141917   -6.32356406   -5.50537609    o      8.000     0
         -7.99645219    0.09993897    6.00759224    o      8.000     0
         -4.82551693    6.32563778    5.72683430    o      8.000     0
          1.96198418    8.18141368    5.71220506    o      8.000     0
          7.25042371    3.54582229    5.47190386    o      8.000     0
          7.57249564   -3.46075814    5.83194495    o      8.000     0
          1.88463343   -7.57313669    5.83221573    o      8.000     0
         -4.97484839   -6.22831348    6.10226406    o      8.000     0
         -9.76440877   -2.14590747   -2.05967548    n      7.000     0
         -9.78749973    2.08061452   -2.14445562    n      7.000     0
         -7.79655044    6.23942818   -2.29412621    n      7.000     0
         -4.47986324    8.85328659   -2.42521857    n      7.000     0
          0.02709820    9.81153365   -2.48199844    n      7.000     0
          4.15102772    8.86364041   -2.55144865    n      7.000     0
          7.83006629    6.08800130   -2.67620179    n      7.000     0
          9.65496138    2.28097836   -2.63325299    n      7.000     0
          9.55396160   -2.32358278   -2.43317167    n      7.000     0
          7.71051351   -6.13237207   -2.31043003    n      7.000     0
          4.16771242   -9.08103585   -2.26622151    n      7.000     0
          0.05365464  -10.02928657   -2.15610226    n      7.000     0
         -4.41896123   -8.90989023   -2.01143106    n      7.000     0
         -7.73040890   -6.27868611   -1.99761457    n      7.000     0
         -9.68418616   -2.07724408    2.57820322    n      7.000     0
         -9.65802360    2.14934970    2.49220253    n      7.000     0
         -7.62897126    6.28252700    2.34143968    n      7.000     0
         -4.31868607    8.91150675    2.20652494    n      7.000     0
          0.15640749   10.02819490    2.15097016    n      7.000     0
          4.27177417    9.08234294    2.07813910    n      7.000     0
          7.81088408    6.13084545    1.96308646    n      7.000     0
          9.65382459    2.31995427    2.00381796    n      7.000     0
          9.76075841   -2.28505762    2.19934969    n      7.000     0
          7.93786982   -6.09148563    2.32335740    n      7.000     0
          4.25670553   -8.86714213    2.36433861    n      7.000     0
          0.13222232   -9.80809728    2.47794575    n      7.000     0
         -4.37238229   -8.84934412    2.62268213    n      7.000     0
         -7.69395131   -6.23866105    2.64093779    n      7.000     0
        -11.03660612   -1.47681531    0.27166620    c      6.000     0
        -11.03536263    1.48220903    0.22078931    c      6.000     0
         -5.66770964   -7.07429405   -3.40567113    c      6.000     0
         -2.46271799  -10.47187288   -3.13539153    c      6.000     0
         -8.03177925    7.68504376    0.02164070    c      6.000     0
         -5.71341521    9.51987451   -0.07447425    c      6.000     0
          1.94152099   -8.98887546   -3.65173783    c      6.000     0
          6.57320505   -8.39343564   -3.37108826    c      6.000     0
          1.00087637   11.05679508   -0.24385317    c      6.000     0
          3.88410273   10.39444737   -0.29365784    c      6.000     0
          7.96412607   -3.94771419   -3.73777641    c      6.000     0
         10.59022966   -0.08465384   -3.63588412    c      6.000     0
          9.27885210    6.10845908   -0.35335093    c      6.000     0
         10.56262569    3.44279839   -0.32660386    c      6.000     0
          8.15073432    3.88531722   -4.06657197    c      6.000     0
         10.56434910   -3.44728825   -0.14554644    c      6.000     0
          9.28100186   -6.11201021   -0.06218119    c      6.000     0
         -9.66875352   -4.67938915   -3.09033004    c      6.000     0
         -9.15398410   -0.05740772   -3.52441968    c      6.000     0
          3.88697709  -10.39536952    0.11944907    c      6.000     0
          1.00404260  -11.05601269    0.19942398    c      6.000     0
         -9.73708964    4.57556702   -3.27874397    c      6.000     0
         -5.76790052    7.00607026   -3.77157802    c      6.000     0
         -5.71009893   -9.51727106    0.32998116    c      6.000     0
         -8.03066624   -7.68273415    0.33703860    c      6.000     0
         -2.44801601   10.29255602   -3.55790758    c      6.000     0
          1.90030329    8.61607464   -3.87478289    c      6.000     0
         -9.58716660   -4.57223893    3.70952297    c      6.000     0
         -8.98518310    0.05971141    3.92789844    c      6.000     0
          6.55964612    8.27042544   -3.72515387    c      6.000     0
         -5.60067779   -7.00374993    4.02601428    c      6.000     0
         -2.29232132  -10.28887424    3.66374659    c      6.000     0
         -9.51580497    4.68224323    3.51917375    c      6.000     0
         -5.50462112    7.07667048    3.65541866    c      6.000     0
          2.06771976   -8.61677935    3.78672075    c      6.000     0
          6.71612567   -8.27437024    3.42801786    c      6.000     0
         -2.31329377   10.47226133    3.24196985    c      6.000     0
          2.10932384    8.98831602    3.56106441    c      6.000     0
          8.32185119   -3.88927279    3.69850940    c      6.000     0
         10.74079229    0.08020662    3.15954098    c      6.000     0
          6.72428424    8.39322127    3.07322464    c      6.000     0
          8.12612101    3.94625921    3.37822103    c      6.000     0
        -12.93882675   -2.30620564    0.31807168    h      1.000     0
         10.27488525    0.14549440    5.17034380    h      1.000     0
          6.46595103    8.01954488    5.08769808    h      1.000     0
          8.04391694    9.97034588    2.79505768    h      1.000     0
         12.79836041    0.12751879    2.89372301    h      1.000     0
          7.94952671   -9.92945563    3.21514563    h      1.000     0
         -2.82383136   12.46727938    2.98748571    h      1.000     0
         -2.16584030   10.01843769    5.25108112    h      1.000     0
          6.42764758   -7.84572800    5.42732194    h      1.000     0
         -2.72112989  -12.31340148    3.51021078    h      1.000     0
        -11.37194419    5.59284014    3.34201849    h      1.000     0
         -8.99353442    4.49374655    5.50802942    h      1.000     0
         -2.11827311   -9.73917422    5.64643553    h      1.000     0
          6.18083965    7.84091395   -5.70916540    h      1.000     0
         -9.10060687   -4.31096645    5.69933209    h      1.000     0
        -11.45165785   -5.46497193    3.53212653    h      1.000     0
          7.80156879    9.92548538   -3.56920502    h      1.000     0
         -9.86303262   -8.65720938    0.35843089    h      1.000     0
         -2.86934546   12.31707079   -3.38547228    h      1.000     0
         -6.23612999  -11.52497365    0.35782638    h      1.000     0
         -2.36287937    9.74274062   -5.54638061    h      1.000     0
          0.62019299  -13.09316099    0.30525644    h      1.000     0
        -11.59076162    5.47081111   -3.01958767    h      1.000     0
          5.12335722  -12.06202232    0.17565539    h      1.000     0
         -9.33871000    4.31387664   -5.28798400    h      1.000     0
         10.63111227   -7.68740802   -0.11829565    h      1.000     0
        -11.51482256   -5.58994084   -2.82875382    h      1.000     0
         12.63630294   -3.52507174   -0.24122807    h      1.000     0
         -9.23685331   -4.49219590   -5.10081844    h      1.000     0
         12.63681331    3.51904066   -0.32283753    h      1.000     0
         10.03609322   -0.14957714   -5.62417914    h      1.000     0
         10.63125955    7.68285043   -0.35841371    h      1.000     0
         12.65744806   -0.13327261   -3.46092675    h      1.000     0
          5.11766428   12.06019076   -0.40743463    h      1.000     0
          7.90298675   -9.97152770   -3.15371844    h      1.000     0
          0.61400053   13.09428281   -0.33034617    h      1.000     0
          6.22400686   -8.01878782   -5.37166462    h      1.000     0
         -6.24037612   11.52751080   -0.07784421    h      1.000     0
         -2.40495976  -10.01824067   -5.14912894    h      1.000     0
         -9.86340443    8.65938686    0.08021749    h      1.000     0
         -2.96263253  -12.46653292   -2.85817537    h      1.000     0
        -12.93642134    2.31462776    0.26026762    h      1.000     0
          0.03087599   -2.73416033   -0.43315891    c      0.000     0
         -2.32492522    1.34882738   -0.49239404    c      0.000     0
          0.05509231    2.73389290    0.43154703    c      0.000     0
          2.40615525   -1.34276488    0.50452142    c      0.000     0
          2.38288229    1.33884600   -0.61353517    c      0.000     0
         -2.30234052   -1.34527729    0.59815730    c      0.000     0
          0.13077801    0.12974653    4.37881871    c      0.000     0
         -0.06895955   -0.12999672   -4.37989499    c      0.000     0
          2.31134358    1.27276831   -3.51941694    c      0.000     0
         -2.25663040   -1.24308822    3.49676876    c      0.000     0
          0.01744015   -2.82753678   -3.33677486    c      0.000     0
          0.17384500    2.82719859    3.33278816    c      0.000     0
         -2.41176526    1.24611914   -3.39006169    c      0.000     0
          2.46763028   -1.27591944    3.41054115    c      0.000     0
         -2.76648499   -0.99879609   -8.28419171    c      0.000     0
          2.09969971    2.07070760    8.33242655    c      0.000     0
          1.71125477   -2.07841833   -8.41806727    c      0.000     0
         -2.38316153    1.00730487    8.40255703    c      0.000     0
          0.40457876    2.33887917   -8.49432431    c      0.000     0
          0.78209354   -2.34158961    8.46740403    c      0.000     0
          0.15846524    0.21627394    7.37103786    n      0.000     0
         -0.17756290   -0.21675733   -7.37023349    n      0.000     0
          0.03944332   -4.67918434    0.28364704    h      0.000     0
          0.03424120    4.67902700   -0.28479133    h      0.000     0
          4.09656009    2.34492829   -0.02738462    h      0.000     0
         -4.02292896   -2.33841597    0.00250677    h      0.000     0
         -4.01505366    2.34487119    0.18070508    h      0.000     0
          4.08965300   -2.35195463   -0.15890532    h      0.000     0
         -1.59127142   -3.93649316   -4.00939424    h      0.000     0
          1.92668216    3.76470230    3.88863655    h      0.000     0
         -2.50236861    3.15916908   -4.16225813    h      0.000     0
          2.49909600   -3.21403409    4.11908977    h      0.000     0
          4.00258750    0.32962736   -4.24092116    h      0.000     0
         -3.94374409   -0.25336198    4.15179363    h      0.000     0
         -2.31430020   -3.15606282    4.27172999    h      0.000     0
          2.31193354    3.21108954   -4.22799837    h      0.000     0
         -1.40078436    3.93882100    4.07767023    h      0.000     0
          1.74156187   -3.76803455   -3.97181178    h      0.000     0
          4.19121906   -0.33407120    4.05313634    h      0.000     0
         -4.12863223    0.25872649   -3.96675018    h      0.000     0
         -3.34795518   -2.72578207   -7.32711784    h      0.000     0
          1.49873380    3.98680389    7.88520287    h      0.000     0
         -0.80277393    3.76407304   -7.63368526    h      0.000     0
          2.74739340   -2.79602628    8.06643844    h      0.000     0
          3.57312072   -1.68618719   -7.63956305    h      0.000     0
         -3.74598081   -0.50262171    8.10447346    h      0.000     0
          3.92313974    1.67081588    7.47160244    h      0.000     0
         -4.10856705    0.51629285   -7.92480513    h      0.000     0
         -3.00141281    2.73700380    7.47412373    h      0.000     0
          1.12317483   -3.99229021   -7.94488751    h      0.000     0
         -0.46864082   -3.76220345    7.66308087    h      0.000     0
          2.38785423    2.78613151   -8.18372631    h      0.000     0
         -2.60841766   -1.33897680  -10.31152828    h      0.000     0
          2.21048654    1.82031208   10.37602475    h      0.000     0
          1.73169441   -1.82762116  -10.46447360    h      0.000     0
         -2.13129758    1.34529221   10.42080075    h      0.000     0
          0.01258724    2.21192085  -10.51445861    h      0.000     0
          0.48347917   -2.21336169   10.50339038    h      0.000     0
 
       center of nuclear mass  :   -0.00170953    0.00002205    0.00000981
       center of nuclear charge:   -0.00712474    0.00007428    0.00006581

              +--------------------------------------------------+
              |               basis set information              |
              +--------------------------------------------------+

              we will work with the 1s 3p 5d 7f 9g ... basis set
              ...i.e. with spherical basis functions...

   type   atoms  prim   cont   basis
   ---------------------------------------------------------------------------
    o       14     50     30   cc-pVTZ   [4s3p2d1f|18s5p2d1f]
    n       30     50     30   cc-pVTZ   [4s3p2d1f|18s5p2d1f]
    c       62     50     30   cc-pVTZ   [4s3p2d1f|18s5p2d1f]
    h       78     16     14   cc-pVTZ   [3s2p1d|5s2p1d]
   ---------------------------------------------------------------------------
   total:  184   6548   4272
   ---------------------------------------------------------------------------

   total number of primitive shells          :   86
   total number of contracted shells         : 1528
   total number of cartesian basis functions : 4880
   total number of SCF-basis functions       : 4272


 integral neglect threshold       :  0.68E-14
 integral storage threshold THIZE :  0.10E-04
 integral storage threshold THIME :         5

 RI-J AUXILIARY BASIS SET information:

              we will work with the 1s 3p 5d 7f 9g ... basis set
              ...i.e. with spherical basis functions...

   type   atoms  prim   cont   basis
   ---------------------------------------------------------------------------
    o       14     70     49   cc-pVTZ   [6s4p3d1f1g|12s5p4d2f1g]
    n       30     70     49   cc-pVTZ   [6s4p3d1f1g|12s5p4d2f1g]
    c       62     70     49   cc-pVTZ   [6s4p3d1f1g|12s5p4d2f1g]
    h       78     16     11   cc-pVTZ   [3s1p1d|5s2p1d]
   ---------------------------------------------------------------------------
   total:  184   8668   6052
   ---------------------------------------------------------------------------

   total number of primitive shells          :   80
   total number of contracted shells         : 1980
   total number of cartesian basis functions : 7402
   total number of SCF-basis functions       : 6052


 symmetry group of the molecule :   c1 

 the group has the following generators :
   c1(z)

    1 symmetry operations found

 there are 1 real representations :   a   

 maximum number of shells which are related by symmetry :  1


    mo occupation :
   irrep   mo's   occupied
    a     4272      301
 
 number of basis functions   :         4272
 number of occupied orbitals :          301
 
  
           ------------------
           density functional
           ------------------
 Dummy atoms with grid-point found.
 DFT quadrature threshold dgrenze tightened by factor 1/10.

 PBE functional
 exchange:    LDA + PBE
 correlation: LDA (PW) + PBE
 Dummy atoms with grid-point found.
 DFT quadrature threshold dgrenze tightened by factor 1/10.

 Dummy atoms with grid-point found.
 DFT quadrature threshold dgrenze tightened by factor 1/10.

 grinp -> nfun, dfgga, dfhybrid 
           6 T F
 iterations will be done with small grid
  
 spherical integration : Lebedev's spherical grid
 spherical gridsize    :           5
    i.e. gridpoints    :         590
 value for diffuse not defined
 radial integration    : Chebyshev 2nd kind (scaling 3)
 radial gridsize       :           8
 integration cells     :         184
 partition function    : becke
 partition sharpness   :           3
  
 found dummy atom(s) with basis: included in dft

 <rddim> : input of entry tasksize
           from data group '$pardft' failed !

               Default values taken

 <rddim> : input of entry memdiv
           from data group '$pardft' failed !

               Default values taken
  RIDFT: memory allocation for DFT gridpoints
  MEMORY is divided by 1 as DEFAULT
 Each node can hold at most  the            1 -th part
 of the gridpoints    

 biggest AO integral is expected to be     4.866064444
  
           ------------------------
               RI-J - INFORMATION
           ------------------------
 
 
 **************************************************
 *      MEMORY ALLOCATION FOR PARALLEL RI-DFT     *
 **************************************************
 
 
MEMORY FOR (MU NU/ ALPHA), SEQUENTIAL RUN              12710 MByte
 
            DIFFERENCE IN MEMORY NEED:       DIAG./SLAVE  
 
      TOTAL DIFFERENCE :                   1018 MByte
 
      difference in xcore:                  291 MByte
      difference in fatmat:                 267 MByte
      getcor calls skipped by slaves:       461 MByte
 
 
           Integral memory available for diagonal.     12710 MByte
 
           Integral memory available for slave             0 MByte
 
         MEMORY FOR (MU NU/ ALPHA) ON DIAGONALIZER     12710 MByte
 
         MEMORY FOR (MU NU/ ALPHA) ON ONE SLAVE            0 MByte
 
         TOTAL MEMORY FOR (MU NU/ ALPHA),ALL NODES     12710 MByte
 
 Contributions to RI integral batches: 
  neglected integral batches:      744584
  direct contribution:             343085
  memory contribution:       80487
 Memory core needed for (P|Q) and Cholesky    280 MByte
 Memory core minimum needed except of (P|Q)    13 MByte
 Total minimum memory core needed (sum)       293 MByte
     number of direct tasks:         140
  
 ****************************************
 Memory allocated for RI-J 13002 MByte
 ****************************************
                                            

          ------------------------
          nuclear repulsion energy  :   16588.4369972    
          ------------------------

 
          -----------------
          -S integrals
          -----------------

 1e-integrals will be neglected if expon. factor < 0.684828E-15
 
          -----------------
          -T+V integrals
          -----------------

 1e-integrals will be neglected if expon. factor < 0.684828E-15
 Difference densities >>NOT<< switched on in parallel ridft!

 automatic virtual orbital shift switched on 
      shift if e(lumo)-e(homo) < 0.10000000    


 DIIS switched on: error vector is FDS-SDF
 Max. Iterations for DIIS is     :   4
 DIIS matrix (see manual) 
    Scaling factor of diagonals  :  1.200
    threshold for scaling factor :  0.000

 scf convergence criterion : increment of total energy < .1000000D-08
                  and increment of one-electron energy < .1000000D-05


 <geterg> : there is no data group $energy 

  MOs are in ASCII format !


 reading orbital data $scfmo  from file mos . 

 orbital characterization : expanded
 
 mo provided and orthogonalized by Cholesky decomposition

 DSCF restart information will be dumped onto file mos


 Starting SCF iterations


 ITERATION  ENERGY          1e-ENERGY        2e-ENERGY     RMS[dD(SAO)]   TOL
   1  -4191.7994176530    -38708.681216     17928.444801    0.000D+00 0.683D-14
                            Exc = -551.701772693     Coul =  18480.1465740    
                              N = 602.00172872    
                            current damping = 0.700
 
          max. resid. norm for Fia-block=  4.371D-01 for orbital    219a         
          max. resid. fock norm         =  9.127D+00 for orbital   4069a         

 ITERATION  ENERGY          1e-ENERGY        2e-ENERGY     RMS[dD(SAO)]   TOL
   2  -4206.3141086341    -38788.042788     17993.291682    0.142D-02 0.683D-14
                            Exc = -551.336383135     Coul =  18544.6280652    
                              N = 602.00146626    
                            current damping = 0.650
 
          Norm of current diis error:  7.3184    
          max. resid. norm for Fia-block=  1.570D-01 for orbital      2a         
          max. resid. fock norm         =  3.994D-01 for orbital   4239a         

 ITERATION  ENERGY          1e-ENERGY        2e-ENERGY     RMS[dD(SAO)]   TOL
   3  -4208.3393953666    -38816.281616     18019.505223    0.731D-03 0.683D-14
                            Exc = -553.812185551     Coul =  18573.3174089    
                              N = 602.00132764    
                            current damping = 0.550
 
          Norm of current diis error:  3.5243    
          max. resid. norm for Fia-block=  6.401D-02 for orbital      2a         
          max. resid. fock norm         =  8.139D-02 for orbital   1749a         

 ITERATION  ENERGY          1e-ENERGY        2e-ENERGY     RMS[dD(SAO)]   TOL
   4  -4208.9099085206    -38825.193600     18027.846695    0.531D-03 0.683D-14
                            Exc = -553.154078641     Coul =  18581.0007734    
                              N = 602.00138281    
                            current damping = 0.450
 
          Norm of current diis error:  1.6548    
          max. resid. norm for Fia-block=  3.448D-02 for orbital    105a         
          max. resid. fock norm         =  6.891D-02 for orbital   4239a         

 ITERATION  ENERGY          1e-ENERGY        2e-ENERGY     RMS[dD(SAO)]   TOL
   5  -4208.9855238470    -38822.266496     18024.843975    0.277D-03 0.683D-14
                            Exc = -553.907514165     Coul =  18578.7514889    
                              N = 602.00132957    
                            current damping = 0.500
 
          Norm of current diis error:  1.2333    
          max. resid. norm for Fia-block=  1.364D-02 for orbital    266a         
          max. resid. fock norm         =  1.541D-02 for orbital    283a         
          mo-orthogonalization: Cholesky decomposition

 ITERATION  ENERGY          1e-ENERGY        2e-ENERGY     RMS[dD(SAO)]   TOL
   6  -4209.0551542664    -38830.510488     18033.018336    0.132D-03 0.683D-14
                            Exc = -553.947226784     Coul =  18586.9655631    
                              N = 602.00135910    
                            current damping = 0.550
 
          Norm of current diis error: 0.23697    
          max. resid. norm for Fia-block=  3.488D-03 for orbital    260a         
          max. resid. fock norm         =  5.769D-03 for orbital   1775a         

 ITERATION  ENERGY          1e-ENERGY        2e-ENERGY     RMS[dD(SAO)]   TOL
   7  -4209.0575283166    -38828.205562     18030.711036    0.515D-04 0.683D-14
                            Exc = -553.792659604     Coul =  18584.5036959    
                              N = 602.00136633    
                            current damping = 0.600
 
          Norm of current diis error: 0.10478    
          max. resid. norm for Fia-block=  1.403D-03 for orbital     97a         
          max. resid. fock norm         =  2.392D-03 for orbital   4247a         

 ITERATION  ENERGY          1e-ENERGY        2e-ENERGY     RMS[dD(SAO)]   TOL
   8  -4209.0579488920    -38828.672772     18031.177826    0.118D-04 0.683D-14
                            Exc = -553.822624083     Coul =  18585.0004500    
                              N = 602.00136781    
                            current damping = 0.650
 
          Norm of current diis error: 0.27020E-01
          max. resid. norm for Fia-block=  5.735D-04 for orbital     98a         
          max. resid. fock norm         =  8.617D-04 for orbital   4245a         

 ITERATION  ENERGY          1e-ENERGY        2e-ENERGY     RMS[dD(SAO)]   TOL
   9  -4209.0579806082    -38828.954166     18031.459188    0.394D-05 0.683D-14
                            Exc = -553.847376788     Coul =  18585.3065648    
                              N = 602.00136704    
                            current damping = 0.500
 
          Norm of current diis error: 0.12902E-01
          max. resid. norm for Fia-block=  2.770D-04 for orbital    284a         
          max. resid. fock norm         =  3.276D-04 for orbital   4025a         

 ITERATION  ENERGY          1e-ENERGY        2e-ENERGY     RMS[dD(SAO)]   TOL
  10  -4209.0579822034    -38828.996380     18031.501400    0.294D-05 0.683D-14
                            Exc = -553.842512322     Coul =  18585.3439125    
                              N = 602.00136783    
                            current damping = 0.350
 
          Norm of current diis error: 0.12664E-01
          max. resid. norm for Fia-block=  1.529D-04 for orbital    278a         
          max. resid. fock norm         =  2.779D-04 for orbital   4245a         
          mo-orthogonalization: Cholesky decomposition

 ITERATION  ENERGY          1e-ENERGY        2e-ENERGY     RMS[dD(SAO)]   TOL
  11  -4209.0579889128    -38828.904777     18031.409791    0.142D-05 0.683D-14
                            Exc = -553.841809550     Coul =  18585.2516002    
                              N = 602.00136789    
                            current damping = 0.400
 
          Norm of current diis error: 0.29808E-02
          max. resid. norm for Fia-block=  4.374D-05 for orbital    274a         
          max. resid. fock norm         =  5.544D-05 for orbital    274a         

 ITERATION  ENERGY          1e-ENERGY        2e-ENERGY     RMS[dD(SAO)]   TOL
  12  -4209.0579891108    -38828.952705     18031.457718    0.397D-06 0.683D-14
                            Exc = -553.843251696     Coul =  18585.3009700    
                              N = 602.00136792    
                            current damping = 0.450
 
          Norm of current diis error: 0.20949E-02
          max. resid. norm for Fia-block=  3.717D-05 for orbital    274a         
          max. resid. fock norm         =  5.616D-05 for orbital   4248a         

 ITERATION  ENERGY          1e-ENERGY        2e-ENERGY     RMS[dD(SAO)]   TOL
  13  -4209.0579892563    -38828.951654     18031.456667    0.221D-06 0.683D-14
                            Exc = -553.844079711     Coul =  18585.3007468    
                              N = 602.00136784    
                            current damping = 0.500
 
          Norm of current diis error: 0.85133E-03
          max. resid. norm for Fia-block=  1.425D-05 for orbital    237a         
          max. resid. fock norm         =  2.050D-05 for orbital   4248a         

 ITERATION  ENERGY          1e-ENERGY        2e-ENERGY     RMS[dD(SAO)]   TOL
  14  -4209.0579892853    -38828.945467     18031.450481    0.103D-06 0.683D-14
                            Exc = -553.843515215     Coul =  18585.2939959    
                              N = 602.00136788    
                            current damping = 0.350
 
          Norm of current diis error: 0.28163E-03
          max. resid. norm for Fia-block=  3.697D-06 for orbital    237a         
          max. resid. fock norm         =  6.429D-06 for orbital    240a         

 DENSITY CONVERGED !


 ITERATION  ENERGY          1e-ENERGY        2e-ENERGY     RMS[dD(SAO)]   TOL
  15  -4209.0579892885    -38828.944234     18031.449247    0.338D-07 0.683D-14
                            Exc = -553.843450642     Coul =  18585.2926979    
                              N = 602.00136789    
                            current damping = 0.200
 
          Norm of current diis error: 0.10214E-03
          max. resid. norm for Fia-block=  2.141D-06 for orbital    278a         
          max. resid. fock norm         =  3.668D-06 for orbital   4245a         
          mo-orthogonalization: Cholesky decomposition

 DENSITY CONVERGED !


 ITERATION  ENERGY          1e-ENERGY        2e-ENERGY     RMS[dD(SAO)]   TOL
  16  -4209.0579892879    -38828.944202     18031.449215    0.183D-07 0.683D-14
                            Exc = -553.843473504     Coul =  18585.2926889    
                              N = 602.00136789    
                            current damping = 0.050
 
          Norm of current diis error: 0.15222E-03
          max. resid. norm for Fia-block=  1.255D-06 for orbital    277a         
          max. resid. fock norm         =  1.996D-06 for orbital   4237a         

 DENSITY CONVERGED !


 ITERATION  ENERGY          1e-ENERGY        2e-ENERGY     RMS[dD(SAO)]   TOL
  17  -4209.0579892886    -38828.944870     18031.449883    0.114D-07 0.683D-14
                            Exc = -553.843473810     Coul =  18585.2933572    
                              N = 602.00136789    
                            current damping = 0.100
 
          Norm of current diis error: 0.42172E-04
          max. resid. norm for Fia-block=  6.555D-07 for orbital    274a         
          max. resid. fock norm         =  9.446D-07 for orbital   4248a         

 DENSITY CONVERGED !


 ITERATION  ENERGY          1e-ENERGY        2e-ENERGY     RMS[dD(SAO)]   TOL
  18  -4209.0579892881    -38828.944439     18031.449452    0.581D-08 0.683D-14
                            Exc = -553.843473840     Coul =  18585.2929260    
                              N = 602.00136789    
                            current damping = 0.150
 
          Norm of current diis error: 0.27487E-04
          max. resid. norm for Fia-block=  2.790D-07 for orbital    274a         
          max. resid. fock norm         =  3.840D-07 for orbital   4248a         

 DENSITY CONVERGED !


 ITERATION  ENERGY          1e-ENERGY        2e-ENERGY     RMS[dD(SAO)]   TOL
  19  -4209.0579892881    -38828.944512     18031.449526    0.205D-08 0.683D-14
                            Exc = -553.843468706     Coul =  18585.2929947    
                              N = 602.00136789    
                            current damping = 0.200
 
          Norm of current diis error: 0.75203E-05
          max. resid. norm for Fia-block=  8.793D-08 for orbital    223a         
          max. resid. fock norm         =  1.488D-07 for orbital   4243a         

 ENERGY & DENSITY CONVERGED !


 ITERATION  ENERGY          1e-ENERGY        2e-ENERGY     RMS[dD(SAO)]   TOL
  20  -4209.0578963635    -38828.944566     18031.449672    0.108D-08 0.683D-14
                            Exc = -553.843378389     Coul =  18585.2930508    
                              N = 601.99996155    
                            current damping = 0.050
 
          Norm of current diis error: 0.64558E-05
          max. resid. norm for Fia-block=  5.345D-08 for orbital    274a         
          max. resid. fock norm         =  9.348D-08 for orbital    240a         

 End of SCF iterations

   convergence criteria satisfied after   20 iterations


                  ------------------------------------------ 
                 |  total energy      =  -4209.05789636349  |
                  ------------------------------------------ 
                 :  kinetic energy    =   4181.93625329413  :
                 :  potential energy  =  -8390.99414965762  :
                 :  virial theorem    =      1.99355636255  :
                 :  wavefunction norm =      1.00000000000  :
                  .......................................... 


 <geterg> : there is no data group $energy 


 <skperg> : $end is missing 


 orbitals $scfmo  will be written to file mos

    irrep                297a        298a        299a        300a        301a   
 eigenvalues H         -0.21338    -0.21127    -0.20734    -0.20731    -0.20120
            eV          -5.8064     -5.7489     -5.6420     -5.6412     -5.4749
 occupation              2.0000      2.0000      2.0000      2.0000      2.0000 

    irrep                302a        303a        304a        305a        306a   
 eigenvalues H         -0.02723    -0.02341    -0.02340    -0.01431    -0.01426
            eV          -0.7411     -0.6371     -0.6368     -0.3893     -0.3880
 
 
 ! grave: sending quit signal to master process
 
 
 
 
 ==============================================================================
                           electrostatic moments
 ==============================================================================

 reference point for electrostatic moments:    0.00000   0.00000   0.00000

 
              nuc           elec       ->  total
 ------------------------------------------------------------------------------
                          charge      
 ------------------------------------------------------------------------------
         602.000000    -602.000000      -0.000000
 
 ------------------------------------------------------------------------------
                       dipole moment  
 ------------------------------------------------------------------------------
   x      -4.289093       4.273826      -0.015267
   y       0.044719      -0.044145       0.000574
   z       0.039615      -0.039716      -0.000101
 
   | dipole moment | =     0.0153 a.u. =     0.0388 debye 
 
 ------------------------------------------------------------------------------
                     quadrupole moment
 ------------------------------------------------------------------------------
  xx   29823.264066  -30056.437526    -233.173460
  yy   29694.292985  -29927.487859    -233.194873
  zz    7546.964787   -7994.025697    -447.060910
  xy      -5.295508       5.191856      -0.103652
  xz    -497.264372     492.463095      -4.801277
  yz    -449.593034     444.713586      -4.879448
 
     1/3  trace=    -304.476414
     anisotropy=     214.205223
 
 ==============================================================================
 

    ridft profiling
  --------------------------------------------------------------------
             module   cpu total (s)       %  wall total (s)       %

               RIDFT         11256.6  100.00         11272.3  100.00
         Ridft_b_scf          3435.8   30.52          3433.3   30.46
        b_scf_prelim             0.0    0.00             0.0    0.00
        b_scf_molinp             0.0    0.00             0.0    0.00
         b_scf_init0             0.0    0.00             0.0    0.00
        b_scf_auxbas             0.0    0.00             0.0    0.00
      b_scf_symmetry             0.0    0.00             0.1    0.00
         b_scf_cosmo             0.0    0.00             0.0    0.00
        b_scf_params          2843.5   25.26          2841.4   25.21
          b_scf_ri-j           495.4    4.40           495.0    4.39
    b_scf_ri-j_auxpq           495.3    4.40           494.9    4.39
     ri-j_auxpq_chol            16.2    0.14            16.2    0.14
         b_scf_1elec             7.3    0.06             7.3    0.06
       b_scf_moinput            89.6    0.80            89.5    0.79
     moinput_orthmos            88.7    0.79            88.6    0.79
    b_scf_dft-dstmax             0.0    0.00             0.0    0.00
           Ridft_scf          7818.6   69.46          7836.8   69.52
          Scf_b_loop             0.0    0.00             0.0    0.00
                noga             0.0    0.00             0.0    0.00
            Scf_loop          7811.4   69.39          7828.7   69.45
     scf_loop_mkdmat            34.8    0.31            34.8    0.31
       scf_loop_ri-j          2053.3   18.24          2051.7   18.20
      parlp1.bc.dens             2.4    0.02             2.4    0.02
        parlp1.gs.gp             0.0    0.00             0.0    0.00
        parlp2.bc.gq             0.0    0.00             0.0    0.00
        scf_loop_dft          4394.4   39.04          4391.0   38.95
      pardft.bc.dens             0.0    0.00             0.0    0.00
        dft_grid_con            61.4    0.55            61.3    0.54
           dft_xcrhf          4277.9   38.00          4274.6   37.92
          dft_getval           235.6    2.09           235.6    2.09
          funct2 dst             7.6    0.07             7.9    0.07
      funct2 f2loop1            28.0    0.25            27.8    0.25
      funct2 f2loop2           105.8    0.94           105.9    0.94
          funct2 s+c            85.8    0.76            85.7    0.76
        funct2 cmf_2            81.3    0.72            81.2    0.72
          dft_mkdens          2039.1   18.11          2037.6   18.08
         dft_gga-fun             1.5    0.01             1.4    0.01
          dft_mkfock          1995.2   17.73          1993.8   17.69
     pardft.red.fock           369.1    3.28           368.8    3.27
     scf_loop_energy             0.3    0.00             0.3    0.00
     scf_loop_mkfock             0.6    0.01             0.6    0.01
       scf_loop_diis           585.6    5.20           585.2    5.19
       scf_loop_diag           522.1    4.64           521.8    4.63
         diag_tritrn           186.1    1.65           186.0    1.65
          diag_rdiag           335.0    2.98           334.8    2.97
     scf_loop_modump           121.3    1.08           144.4    1.28
      scf_loop_ortho            94.4    0.84            94.3    0.84
          Scf_a_loop             7.1    0.06             8.2    0.07
         Ridft_a_scf             2.2    0.02             2.2    0.02
         a_scf_fanal             2.2    0.02             2.2    0.02
 


    ------------------------------------------------------------------------
         total  cpu-time :  3 hours  7 minutes and 45 seconds
         total wall-time :  3 hours  8 minutes and  1 seconds
    ------------------------------------------------------------------------


   ****  ridft : all done  ****


    2017-11-09 06:57:22.893 

