
   OpenMP run-time library returned nthreads = 28

 rirpa (c-13-27) : TURBOMOLE V7.3.1 () 25 Feb 2019 at 10:13:53
 Copyright (C) 2019 TURBOMOLE GmbH, Karlsruhe


    2019-11-27 02:07:58.631 

 
 
    *************************************************************************
    *************************** PROGRAM RIRPA *******************************
    ******                                                             ******
    ******              H. Eshuis, J. E. Bates and F. Furche           ******
    ******                                                             ******
    ****** Nov 2011                                                    ******
    ****** Copyright TURBOMOLE GmbH                                    ******
    *************************************************************************
    
    
                                References:                                  
    
                   RIRPA:                                                    
                     H. Eshuis, J. Yarkony and F. Furche                     
                     Fast computation of molecular random phase              
                     approximation correlation energies using resolution     
                     of the identity imaginary frequency integration         
                     J. Chem. Phys. 132: 234114 (2010)                       
    
                     H. Eshuis, J. E. Bates and F. Furche                    
                     Electron correlation methods based on                   
                     the random phase approximation                          
                     Theor. Chem. Acc.  131: 1084 (2012)                     
    
                   TWO-COMPONENT RIRPA:                                      
                     M. Kuehn                                                
                     Correlation energies from the                           
                     two-component random-phase approximation                
                     J. Chem. Theory Comput. 10: 623 (2014)                  
    
                   RIRPA GRADIENTS:                                          
                     Asbjoern M. Burow, Jefferson E. Bates, Filipp Furche*,  
                     and Henk Eshuis                                         
                     Analytical First-Order Molecular Properties and Forces  
                     within the Adiabatic Connection Random Phase            
                     Approximation                                           
                     J. Chem. Theory Comput. 10: 180 (2014)                  
    
    
    
      ... OpenMP parallelization enabled, threads:   28

   *-----------------------------------------------------------------------*
   |                     program will use 28 thread(s)                     |
   *-----------------------------------------------------------------------*
 
                FOUND RI-J FLAG
 
  HF exact exchange energy will be computed using RI-J.
 
  The HXX energy will NOT be computed due to nohxx option. 
 


              +--------------------------------------------------+
              | Atomic coordinate, charge and isotop information |
              +--------------------------------------------------+

                    atomic coordinates            atom    charge  isotop
          0.46415789    3.69773596    8.04387518    c      6.000     0
         -0.21263826    4.01092187    6.12902935    h      1.000     0
          2.40034022    4.37181935    8.19777733    h      1.000     0
         -0.67741976    4.78175058    9.36357056    h      1.000     0
          0.39452841    0.95165565    8.82945101    c      6.000     0
          0.93239815    0.28578908   10.98097614    o      8.000     0
         -0.30919666   -0.68431190    6.97895353    n      7.000     0
         -0.61368427   -0.00780744    5.22893799    h      1.000     0
         -0.37872512   -3.38072287    7.39107835    c      6.000     0
         -0.23116099   -3.69613240    9.41307819    h      1.000     0
         -2.14607360   -4.17129089    6.69804375    h      1.000     0
          1.18809685   -4.33290440    6.45124681    h      1.000     0
 
       center of nuclear mass  :    0.21967201    0.15308297    8.43797339
       center of nuclear charge:    0.19705090    0.15161246    8.34421488
              +-------------------------------------------------+
              |        Rotational Constants Section             |
              +-------------------------------------------------+
                                   Center of Mass [a.u]:
               0.21967201236881         0.15308296854464         8.43797338925340
                     Principal Moments of Inertia [a.u.]
             180.72420926349383       463.34147525447008       621.60228957477784
                       Rotational constants A,B,C [a.u.]
               0.00276664649433         0.00107911772786         0.00080437284158
                     Rotational constants A,B,C [cm**-1]
               0.33310250321074         0.12992509781990         0.09684598577916
                        Rotational constants A,B,C [MHz]
            9986.16182035007660      3895.05644313167613      2903.36961241670588

   * BASIS SET information:

              +--------------------------------------------------+
              |               basis set information              |
              +--------------------------------------------------+

              we will work with the 1s 3p 5d 7f 9g ... basis set
              ...i.e. with spherical basis functions...

   type   atoms  prim   cont   basis
   ---------------------------------------------------------------------------
    c        3     50     30   cc-pVTZ   [4s3p2d1f|18s5p2d1f]
    h        7     16     14   cc-pVTZ   [3s2p1d|5s2p1d]
    o        1     50     30   cc-pVTZ   [4s3p2d1f|18s5p2d1f]
    n        1     50     30   cc-pVTZ   [4s3p2d1f|18s5p2d1f]
   ---------------------------------------------------------------------------
   total:   12    362    248
   ---------------------------------------------------------------------------

   total number of primitive shells          :   86
   total number of contracted shells         :   92
   total number of cartesian basis functions :  280
   total number of SCF-basis functions       :  248


   * AUXILIARY BASIS SET information:

              +--------------------------------------------------+
              |               basis set information              |
              +--------------------------------------------------+

              we will work with the 1s 3p 5d 7f 9g ... basis set
              ...i.e. with spherical basis functions...

   type   atoms  prim   cont   basis
   ---------------------------------------------------------------------------
    c        3     81     81   cc-pVTZ   [8s6p5d3f1g|8s6p5d3f1g]
    h        7     30     30   cc-pVTZ   [4s3p2d1f|4s3p2d1f]
    o        1     81     81   cc-pVTZ   [8s6p5d3f1g|8s6p5d3f1g]
    n        1     81     81   cc-pVTZ   [8s6p5d3f1g|8s6p5d3f1g]
   ---------------------------------------------------------------------------
   total:   12    615    615
   ---------------------------------------------------------------------------

   total number of primitive shells          :   79
   total number of contracted shells         :  185
   total number of cartesian basis functions :  750
   total number of SCF-basis functions       :  615


   * RIJ AUXILIARY BASIS SET information:

              +--------------------------------------------------+
              |               basis set information              |
              +--------------------------------------------------+

              we will work with the 1s 3p 5d 7f 9g ... basis set
              ...i.e. with spherical basis functions...

   type   atoms  prim   cont   basis
   ---------------------------------------------------------------------------
    c        3     70     49   cc-pVTZ   [6s4p3d1f1g|12s5p4d2f1g]
    h        7     16     11   cc-pVTZ   [3s1p1d|5s2p1d]
    o        1     70     49   cc-pVTZ   [6s4p3d1f1g|12s5p4d2f1g]
    n        1     70     49   cc-pVTZ   [6s4p3d1f1g|12s5p4d2f1g]
   ---------------------------------------------------------------------------
   total:   12    462    322
   ---------------------------------------------------------------------------

   total number of primitive shells          :   80
   total number of contracted shells         :  110
   total number of cartesian basis functions :  389
   total number of SCF-basis functions       :  322

  No keyword $dft found! - HARTREE FOCK CALCULATION

 reading orbital data $scfmo  from file mos
 orbital characterization : scfconv=9

 integral neglect threshold       :  0.31E+02

 scfconv                     9

 MAXIMUM CORE MEMORY WHICH CAN BE ALLOCATED DYNAMICALLY = 140000 MiB
              ( or 18350080000 double words per process)


 there are 1 real representations :   a   

 maximum number of shells which are related by symmetry :  1

 time elapsed for calculating density matrices :   0.029 sec

     total memory allocated for calculation of (Q|P)**(-1/2) : 5 MiB


     calculation of (P|Q) ...
     time in lp2sym        cpu:  5.35 sec    wall:  0.19 sec    ratio: 27.6


     calculation of the Cholesky decomposition of (P|Q)**(-1) ...
     time in invmetri      cpu:  8.09 sec    wall:  0.29 sec    ratio: 27.8

   threshold for RMS(d[D]) in SCF was     :  0.10E-06
   integral neglect threshold             :  0.44E-13
   derivative integral neglect threshold  :  0.10E-06


 setting up bound for integral derivative estimation

 increment for numerical differentiation : 0.00050000
 total memory allocated for calculation of (Q|P)**(-1/2) : 5 MiB
 Dividing biap into                  65431  block chunks,
 using                     1 MiB per block
 Reserved                  69997 MiB for BLAS routines
 Estimated total memory usage:                 139998 MiB
 number of passes for ispin    1
 =    1
 
 Number of eigenvalues < 6e-3:                      0
 
 
            -----------------------------
            Complex frequency integration
            -----------------------------
 
 Number of Clenshaw-Curtis nodes:                    100
 Optimized scaling parameter    :    1.00000000000000     
 Sensitivity measure            :  -5.506983757896933E-013
 
 Done with rirpa frequency point #                     1
 Done with rirpa frequency point #                     2
 Done with rirpa frequency point #                     3
 Done with rirpa frequency point #                     4
 Done with rirpa frequency point #                     5
 Done with rirpa frequency point #                     6
 Done with rirpa frequency point #                     7
 Done with rirpa frequency point #                     8
 Done with rirpa frequency point #                     9
 Done with rirpa frequency point #                    10
 Done with rirpa frequency point #                    11
 Done with rirpa frequency point #                    12
 Done with rirpa frequency point #                    13
 Done with rirpa frequency point #                    14
 Done with rirpa frequency point #                    15
 Done with rirpa frequency point #                    16
 Done with rirpa frequency point #                    17
 Done with rirpa frequency point #                    18
 Done with rirpa frequency point #                    19
 Done with rirpa frequency point #                    20
 Done with rirpa frequency point #                    21
 Done with rirpa frequency point #                    22
 Done with rirpa frequency point #                    23
 Done with rirpa frequency point #                    24
 Done with rirpa frequency point #                    25
 Done with rirpa frequency point #                    26
 Done with rirpa frequency point #                    27
 Done with rirpa frequency point #                    28
 Done with rirpa frequency point #                    29
 Done with rirpa frequency point #                    30
 Done with rirpa frequency point #                    31
 Done with rirpa frequency point #                    32
 Done with rirpa frequency point #                    33
 Done with rirpa frequency point #                    34
 Done with rirpa frequency point #                    35
 Done with rirpa frequency point #                    36
 Done with rirpa frequency point #                    37
 Done with rirpa frequency point #                    38
 Done with rirpa frequency point #                    39
 Done with rirpa frequency point #                    40
 Done with rirpa frequency point #                    41
 Done with rirpa frequency point #                    42
 Done with rirpa frequency point #                    43
 Done with rirpa frequency point #                    44
 Done with rirpa frequency point #                    45
 Done with rirpa frequency point #                    46
 Done with rirpa frequency point #                    47
 Done with rirpa frequency point #                    48
 Done with rirpa frequency point #                    49
 Done with rirpa frequency point #                    50
 Done with rirpa frequency point #                    51
 Done with rirpa frequency point #                    52
 Done with rirpa frequency point #                    53
 Done with rirpa frequency point #                    54
 Done with rirpa frequency point #                    55
 Done with rirpa frequency point #                    56
 Done with rirpa frequency point #                    57
 Done with rirpa frequency point #                    58
 Done with rirpa frequency point #                    59
 Done with rirpa frequency point #                    60
 Done with rirpa frequency point #                    61
 Done with rirpa frequency point #                    62
 Done with rirpa frequency point #                    63
 Done with rirpa frequency point #                    64
 Done with rirpa frequency point #                    65
 Done with rirpa frequency point #                    66
 Done with rirpa frequency point #                    67
 Done with rirpa frequency point #                    68
 Done with rirpa frequency point #                    69
 Done with rirpa frequency point #                    70
 Done with rirpa frequency point #                    71
 Done with rirpa frequency point #                    72
 Done with rirpa frequency point #                    73
 Done with rirpa frequency point #                    74
 Done with rirpa frequency point #                    75
 Done with rirpa frequency point #                    76
 Done with rirpa frequency point #                    77
 Done with rirpa frequency point #                    78
 Done with rirpa frequency point #                    79
 Done with rirpa frequency point #                    80
 Done with rirpa frequency point #                    81
 Done with rirpa frequency point #                    82
 Done with rirpa frequency point #                    83
 Done with rirpa frequency point #                    84
 Done with rirpa frequency point #                    85
 Done with rirpa frequency point #                    86
 Done with rirpa frequency point #                    87
 Done with rirpa frequency point #                    88
 Done with rirpa frequency point #                    89
 Done with rirpa frequency point #                    90
 Done with rirpa frequency point #                    91
 Done with rirpa frequency point #                    92
 Done with rirpa frequency point #                    93
 Done with rirpa frequency point #                    94
 Done with rirpa frequency point #                    95
 Done with rirpa frequency point #                    96
 Done with rirpa frequency point #                    97
 Done with rirpa frequency point #                    98
 Done with rirpa frequency point #                    99
 Done with rirpa frequency point #                   100
 


 RI-RPA correlation energy: -0.1124706705945652E+01
 
 
 HXX Energy calculation skipped due to nohxx option
 

                  --------------------------------------------------- 
                 |  HXX+RIRPA total energy     =     -1.12470670595  |
                  ---------------------------------------------------- 
                 :  RIRPA correlation energy   =     -1.12470670595  :
                 :  HXX total energy           =      0.00000000000  :
                 :  Hartree energy             =      0.00000000000  :
                 :  Exact Exchange energy      =      0.00000000000  :
                  .................................................... 


    ------------------------------------------------------------------------
    Rirpa profiling                cpu                    wall         ratio
    ------------------------------------------------------------------------
    module                         sec     %               sec     %
    ------------------------------------------------------------------------
    RIRPA                      1931.9  100.00           72.5  100.00  26.6
    STARTUP                       4.4    0.23            0.9    1.17   5.1
    riccmos                       4.8    0.25            0.6    0.89   7.4
    riccaux                      13.7    0.71            0.5    0.68  27.8
    riccbound                     6.5    0.34            2.3    3.23   2.8
    ccmkbaoi                     46.4    2.40            1.8    2.49  25.7
    cc3idxnrm                     2.0    0.10            0.1    0.10  26.8
    ecrpa                      1851.9   95.86           66.2   91.30  28.0
    tread                        92.8    4.80            3.4    4.63  27.6
    tqbuild                    1451.1   75.11           51.9   71.47  28.0
    trpaln                      150.6    7.79            5.4    7.41  28.0
    ------------------------------------------------------------------------
    sum                        5556.0  287.60          205.6  283.39  27.0
    ------------------------------------------------------------------------


    ------------------------------------------------------------------------
         total  cpu-time : 32 minutes and 15 seconds
         total wall-time :  1 minutes and 13 seconds
    ------------------------------------------------------------------------

   ****  rirpa : all done  ****


    2019-11-27 02:09:11.248 

