
   OpenMP run-time library returned nthreads =  8
 operating system is UNIX !

 dscf (c-17-7) : TURBOMOLE V7.3 ( 22142 ) 4 Jul 2018 at 18:12:42
 Copyright (C) 2018 TURBOMOLE GmbH, Karlsruhe


    2019-04-02 14:04:11.080 



                             d s c f - program

                   idea & directorship : reinhart ahlrichs
                   program development : marco haeser
                                         michael baer
                           dft version : oliver treutler


                          quantum chemistry group
                          universitaet  karlsruhe
                                  germany




                          References             
                                                 
          TURBOMOLE:                             
              R. Ahlrichs, M. Baer, M. Haeser, H. Horn, and
              C. Koelmel
              Electronic structure calculations on workstation
              computers: the program system TURBOMOLE
              Chem. Phys. Lett. 162: 165 (1989)
          Density Functional:                              
              O. Treutler and R. Ahlrichs                      
              Efficient Molecular Numerical Integration Schemes
              J. Chem. Phys. 102: 346 (1995)                   
          Parallel Version:                                
              Performance of parallel TURBOMOLE for Density    
              Functional Calculations                          
              M. v. Arnim and R. Ahlrichs                      
              J. Comp. Chem. 19: 1746 (1998)                   
                                         




              +--------------------------------------------------+
              | Atomic coordinate, charge and isotop information |
              +--------------------------------------------------+

                    atomic coordinates            atom    charge  isotop
          1.82184790    1.65368669    0.71434225    c      6.000     0
          3.13662339    3.21240370    0.84289774    h      1.000     0
          2.70430597   -0.78070905    0.22486138    c      6.000     0
          4.70451956   -1.10966451   -0.03214918    h      1.000     0
          1.00935500   -2.79233284    0.08015756    c      6.000     0
          1.69501119   -4.68158557   -0.28726103    h      1.000     0
         -1.56909029   -2.36896840    0.41735756    c      6.000     0
         -2.88326856   -3.92992049    0.31013532    h      1.000     0
         -2.45208435    0.06503041    0.90752704    c      6.000     0
         -4.44916378    0.39309349    1.18780806    h      1.000     0
         -0.75673155    2.07828152    1.06127278    c      6.000     0
         -1.43705195    3.95664962    1.48297577    h      1.000     0
 
       center of nuclear mass  :    0.12638411   -0.35768275    0.56886245
       center of nuclear charge:    0.12648300   -0.35783557    0.56994091

              +--------------------------------------------------+
              |               basis set information              |
              +--------------------------------------------------+

              we will work with the 1s 3p 5d 7f 9g ... basis set
              ...i.e. with spherical basis functions...

   type   atoms  prim   cont   basis
   ---------------------------------------------------------------------------
    c        6     77     57   def2-QZVP   [7s4p3d2f1g|15s8p3d2f1g]
    h        6     33     30   def2-QZVP   [4s3p2d1f|7s3p2d1f]
   ---------------------------------------------------------------------------
   total:   12    660    522
   ---------------------------------------------------------------------------

   total number of primitive shells          :   42
   total number of contracted shells         :  162
   total number of cartesian basis functions :  642
   total number of SCF-basis functions       :  522


 integral neglect threshold       :  0.52E-13
 integral storage threshold THIZE :  0.10E-04
 integral storage threshold THIME :         5


 DENSITY CONVERGENCE CHECK SWITCHED ON !
 SCF CONVERGENCE IF RMS(delta[D]) <     0.1000000000E-06


 symmetry group of the molecule :   c1 

 the group has the following generators :
   c1(z)

    1 symmetry operations found

 there are 1 real representations :   a   

 maximum number of shells which are related by symmetry :  1


    mo occupation :
   irrep   mo's   occupied
    a      522       21
 
 number of basis functions   :                    522
 number of occupied orbitals :                     21
 

 automatic virtual orbital shift switched on 
      shift if e(lumo)-e(homo) < 0.10000000    


          ------------------------
          nuclear repulsion energy  :   203.605875432    
          ------------------------


         -----------------
         -S,T+V- integrals
         -----------------

 1e-integrals will be neglected if expon. factor < 0.520555E-14
 
   Difference densities algorithm switched on.
   The maximal number of linear combinations of
   difference densities is                    20 .

 DIIS switched on: error vector is FDS-SDF
 Max. Iterations for DIIS is     :   5
 DIIS matrix (see manual) 
    Scaling factor of diagonals  :  1.200
    threshold for scaling factor :  0.000

 scf convergence criterion : increment of total energy < .1000000D-08
                  and increment of one-electron energy < .1000000D-05

  MOs are in ASCII format !


 reading orbital data $scfmo  from file mos
 orbital characterization : scfconv=9

 DSCF restart information will be dumped onto file mos

 
                                              current damping :  0.700
 ITERATION  ENERGY          1e-ENERGY        2e-ENERGY     RMS[dD(SAO)]   TOL
   1  -230.74244837725    -714.59640661     280.24808280    0.000D+00 0.519D-13
          max. resid. norm for Fia-block=  2.007D-01 for orbital      6a         
          max. resid. fock norm         =  6.256D-01 for orbital    516a         
          Delta Eig. =    46.9628732252 eV 
 
                                              current damping :  0.650
 ITERATION  ENERGY          1e-ENERGY        2e-ENERGY     RMS[dD(SAO)]   TOL
   2  -230.78524805260    -713.71833007     279.32720658    0.724D-03 0.341D-13
          Norm of current diis error: 0.69094    
          max. resid. norm for Fia-block=  8.956D-02 for orbital      6a         
          max. resid. fock norm         =  2.523D-01 for orbital    522a         
          Delta Eig. =    19.0652064774 eV 
 
                                              current damping :  0.600
 ITERATION  ENERGY          1e-ENERGY        2e-ENERGY     RMS[dD(SAO)]   TOL
   3  -230.79390446793    -713.83785091     279.43807101    0.332D-03 0.255D-13
          Norm of current diis error: 0.29779    
          max. resid. norm for Fia-block=  3.643D-02 for orbital      6a         
          max. resid. fock norm         =  1.008D-01 for orbital    516a         
          Delta Eig. =     8.0471884780 eV 
 
                                              current damping :  0.650
 ITERATION  ENERGY          1e-ENERGY        2e-ENERGY     RMS[dD(SAO)]   TOL
   4  -230.79567207788    -713.74347902     279.34193151    0.140D-03 0.223D-13
          Norm of current diis error: 0.11842    
          max. resid. norm for Fia-block=  1.377D-02 for orbital      6a         
          max. resid. fock norm         =  3.781D-02 for orbital    516a         
          Delta Eig. =     2.9049012512 eV 
 
                                              current damping :  0.500
 ITERATION  ENERGY          1e-ENERGY        2e-ENERGY     RMS[dD(SAO)]   TOL
   5  -230.79596001232    -713.73096389     279.32912844    0.512D-04 0.206D-13
          Norm of current diis error: 0.49605E-01
          max. resid. norm for Fia-block=  5.418D-03 for orbital      6a         
          max. resid. fock norm         =  1.494D-02 for orbital    516a         
 mo-orthogonalization: Cholesky decomposition
          Delta Eig. =     1.2670683364 eV 
 
                                              current damping :  0.350
 ITERATION  ENERGY          1e-ENERGY        2e-ENERGY     RMS[dD(SAO)]   TOL
   6  -230.79601633954    -713.72241877     279.32052699    0.225D-04 0.190D-13
          Norm of current diis error: 0.18038E-01
          max. resid. norm for Fia-block=  1.793D-03 for orbital      6a         
          max. resid. fock norm         =  4.987D-03 for orbital    516a         
          Delta Eig. =     0.4705140962 eV 
 
                                              current damping :  0.200
 ITERATION  ENERGY          1e-ENERGY        2e-ENERGY     RMS[dD(SAO)]   TOL
   7  -230.79602483206    -713.71881526     279.31691500    0.866D-05 0.175D-13
          Norm of current diis error: 0.53905E-02
          max. resid. norm for Fia-block=  4.592D-04 for orbital      6a         
          max. resid. fock norm         =  1.290D-03 for orbital    516a         
          Delta Eig. =     0.1364711339 eV 
 
                                              current damping :  0.050
 ITERATION  ENERGY          1e-ENERGY        2e-ENERGY     RMS[dD(SAO)]   TOL
   8  -230.79602573375    -713.71791341     279.31601225    0.287D-05 0.161D-13
          Norm of current diis error: 0.12184E-02
          max. resid. norm for Fia-block=  7.988D-05 for orbital     14a         
          max. resid. fock norm         =  2.161D-04 for orbital    516a         
          Delta Eig. =     0.0263197040 eV 
 
                                              current damping :  0.050
 ITERATION  ENERGY          1e-ENERGY        2e-ENERGY     RMS[dD(SAO)]   TOL
   9  -230.79602579515    -713.71749017     279.31558894    0.856D-06 0.149D-13
          Norm of current diis error: 0.20595E-03
          max. resid. norm for Fia-block=  1.426D-05 for orbital     14a         
          max. resid. fock norm         =  1.426D-05 for orbital     14a         
          Delta Eig. =     0.0010888292 eV 
 
                                              current damping :  0.100
 ITERATION  ENERGY          1e-ENERGY        2e-ENERGY     RMS[dD(SAO)]   TOL
  10  -230.79602579767    -713.71751524     279.31561401    0.216D-06 0.142D-13
          Norm of current diis error: 0.52617E-04
          max. resid. norm for Fia-block=  4.808D-06 for orbital     17a         
          max. resid. fock norm         =  4.815D-06 for orbital     17a         
 mo-orthogonalization: Cholesky decomposition
          Delta Eig. =     0.0001323795 eV 

 DENSITY CONVERGED !

 
                                              current damping :  0.150
 ITERATION  ENERGY          1e-ENERGY        2e-ENERGY     RMS[dD(SAO)]   TOL
  11  -230.79602579785    -713.71746131     279.31556008    0.606D-07 0.139D-13
          Norm of current diis error: 0.18721E-04
          max. resid. norm for Fia-block=  1.132D-06 for orbital     17a         
          max. resid. fock norm         =  1.133D-06 for orbital     17a         
          Delta Eig. =     0.0000418987 eV 

 DENSITY CONVERGED !

 
                                              current damping :  0.200
 ITERATION  ENERGY          1e-ENERGY        2e-ENERGY     RMS[dD(SAO)]   TOL
  12  -230.79602579787    -713.71747954     279.31557831    0.162D-07 0.136D-13
          Norm of current diis error: 0.56766E-05
          max. resid. norm for Fia-block=  4.939D-07 for orbital     21a         
          max. resid. fock norm         =  4.940D-07 for orbital     21a         
          Delta Eig. =     0.0000101192 eV 

 ENERGY & DENSITY CONVERGED !

 
                                              current damping :  0.250
 ITERATION  ENERGY          1e-ENERGY        2e-ENERGY     RMS[dD(SAO)]   TOL
  13  -230.79602579788    -713.71747437     279.31557314    0.443D-08 0.148D-13
          max. resid. norm for Fia-block=  1.146D-07 for orbital     20a         
          max. resid. fock norm         =  1.146D-07 for orbital     20a         

 convergence criteria satisfied after    13 iterations


                  ------------------------------------------ 
                 |  total energy      =   -230.79602579788  |
                  ------------------------------------------ 
                 :  kinetic energy    =    230.49300971822  :
                 :  potential energy  =   -461.28903551609  :
                 :  virial theorem    =      1.99868708277  :
                 :  wavefunction norm =      1.00000000000  :
                  .......................................... 


 orbitals $scfmo  will be written to file mos

    irrep                 17a         18a         19a         20a         21a   
 eigenvalues H         -0.50203    -0.49515    -0.49469    -0.33657    -0.33654
            eV         -13.6610    -13.4740    -13.4612     -9.1587     -9.1579
 occupation              2.0000      2.0000      2.0000      2.0000      2.0000 

    irrep                 22a         23a         24a         25a         26a   
 eigenvalues H          0.11179     0.11728     0.11737     0.12455     0.12458
            eV           3.0419      3.1915      3.1939      3.3891      3.3900
 
 
 
 
 ==============================================================================
                           electrostatic moments
 ==============================================================================

 reference point for electrostatic moments:    0.00000   0.00000   0.00000

 
              nuc           elec       ->  total
 ------------------------------------------------------------------------------
                          charge      
 ------------------------------------------------------------------------------
          42.000000     -42.000000       0.000000
 
 ------------------------------------------------------------------------------
                       dipole moment  
 ------------------------------------------------------------------------------
   x       5.312286      -5.310931       0.001355
   y     -15.029094      15.027078      -0.002016
   z      23.937518     -23.923021       0.014498
 
   | dipole moment | =     0.0147 a.u. =     0.0374 debye 
 
 ------------------------------------------------------------------------------
                     quadrupole moment
 ------------------------------------------------------------------------------
  xx     189.209004    -213.054584     -23.845580
  yy     191.182830    -215.118918     -23.936088
  zz      20.648510     -50.782168     -30.133658
  xy       1.224481      -1.117638       0.106843
  xz     -16.461647      15.775460      -0.686186
  yz      21.551091     -20.484412       1.066680
 
     1/3  trace=     -25.971775
     anisotropy=       6.621119
 
 ==============================================================================
 


    ------------------------------------------------------------------------
         total  cpu-time : 54 minutes and 35 seconds
         total wall-time :  6 minutes and 54 seconds
    ------------------------------------------------------------------------

   ****  dscf : all done  ****


    2019-04-02 14:11:04.750 

