 this is node-proc. number 0 running on node c-3-37.gp.local
 the total number of node-proc. spawned is  17

 dscfserver (c-3-37.gp.local) : TURBOMOLE V7.2 ( 21471 ) 7 Nov 2017 at 16:15:16
 Copyright (C) 2017 TURBOMOLE GmbH, Karlsruhe


    2018-02-14 23:49:08.781 

 
    0:00:01 ---- Start global counter...
    0:00:32 ---- ... finished.
 
    0:00:34 ---- Start global counter...
    0:01:00 ---- ... finished.
 
    0:01:01 ---- Start global counter...
    0:01:23 ---- ... finished.
 
    0:01:25 ---- Start global counter...
    0:01:44 ---- ... finished.
 
    0:01:46 ---- Start global counter...
    0:02:03 ---- ... finished.
 
    0:02:05 ---- Start global counter...
    0:02:20 ---- ... finished.
 
    0:02:22 ---- ByeBye Tag received


 ! Total wall-clock time in seconds  :      141.6
 ! Time (sec) spent in global counter:      132.0
 ! So-called SERIAL wall-clock time  :        9.6

  *** Regular termination of server ***
 total turnaround time of dscfserver   141.72 sec
 cpu elapsed by dscfserver process     131.98 sec 

   ***  dscf server : all done  ***


    2018-02-14 23:51:30.497 

