Using OpenMPI from /sopt/mpi/openmpi-1.8.6/intel_15.0.3/bin/mpiexec
STARTING ridft ON 8 PROCESSORS!
RUNNING PROGRAM /beegfs/modfac/apps/TURBOMOLE/7.0_intel/bin/em64t-unknown-linux-gnu_mpi/ridft_mpi.
PLEASE WAIT UNTIL ridft HAS FINISHED.
Look for the output in slave1.output.
  this is node-proc. number 1 running on node c-16-19.local
  the total number of node-proc. spawned is            7
  parallel platform: MPP, or cluster with fast interconnect

 ridft (c-16-19.local) : TURBOMOLE V7.0( ) 6 Jul 2015 at 19:34:44
 Copyright (C) 2015 TURBOMOLE GmbH, Karlsruhe


    2017-11-01 17:14:49.793 



                                  r i d f t

                        DFT program with RI approximation 
                                for coulomb part 




                                                 
                                 References:     
                                                 
          TURBOMOLE:                             
              R. Ahlrichs, M. Baer, M. Haeser, H. Horn, and
              C. Koelmel
              Electronic structure calculations on workstation
              computers: the program system TURBOMOLE
              Chem. Phys. Lett. 162: 165 (1989)
          Density Functional:                              
              O. Treutler and R. Ahlrichs                      
              Efficient Molecular Numerical Integration Schemes
              J. Chem. Phys. 102: 346 (1995)                   
          Parallel Version:                                
              Performance of parallel TURBOMOLE for Density    
              Functional Calculations                          
              M. v. Arnim and R. Ahlrichs                      
              J. Comp. Chem. 19: 1746 (1998)                   
          RI-J Method:                                     
              Auxiliary Basis Sets to approximate Coulomb      
              Potentials                                       
              Chem. Phys. Lett. 240: 283 (1995)                
              K. Eichkorn, O. Treutler, H. Oehm, M. Haeser     
              and R. Ahlrichs                                  
              Chem. Phys. Lett. 242: 652 (1995)                
                                                           
              Auxiliary Basis Sets for Main Row Atoms and their
              Use to approximate Coulomb Potentials            
              K. Eichkorn, F. Weigend, O. Treutler and         
              R. Ahlrichs                                      
              Theo. Chem. Acc. 97: 119 (1997)                   
                                                           
              Accurate Coulomb-fitting basis sets for H to Rn 
              F. Weigend                                        
              Phys. Chem. Chem. Phys. 8: 1057 (2006)            
                                                           
          Multipole accelerated RI-J (MARI-J):             
              Fast evaluation of the Coulomb potential for     
              electron densities using multipole accelerated   
              resolution of identity approximation             
              M. Sierka, A. Hogekamp and R. Ahlrichs           
              J. Chem. Phys. 118: 9136 (2003)                  
          RI-JK Method:                                     
              A fully direct RI-HF algorithm: Implementation,
              optimised auxiliary basis sets, demonstration of
              accuracy and efficiency                         
              F. Weigend                                      
              Phys. Chem. Chem. Phys. 4: 4285 (2002)           
          Two-component HF and DFT with spin-orbit coupling:  
              Self-consistent treatment of spin-orbit         
              interactions with efficient Hartree-Fock and    
              density functional methods                      
              M. K. Armbruster, F. Weigend, C. van Wüllen and 
              W. Klopper                                      
              Phys. Chem. Chem. Phys. 10: 1748 (2008)         
          Relativistic all-electron 2c calculations           
              An efficient implementation of two-component    
              relativistic exact-decoupling methods for large 
              molecules                                       
              D. Peng, N. Middendorf, F. Weigend, M. Reiher   
              J. Chem. Phys. 138, 184105 (2013)               
                                         


 


              +--------------------------------------------------+
              |      general information about current run       |
              +--------------------------------------------------+

 

 SCF run will be profiled !


 DENSITY CONVERGENCE CHECK SWITCHED ON !
 SCF CONVERGENCE IF RMS(delta[D]) <     0.1000000000E-06

 TPSS meta-GGA functional
 exchange:    LDA + TPSS
 correlation: LDA (PW) + TPSS
 A DFT calculation using the RI-J approximation will be carried out.
 Allocatable memory for RI due to $ricore (MB):       10000


              +--------------------------------------------------+
              | Atomic coordinate, charge and isotop information |
              +--------------------------------------------------+

                    atomic coordinates            atom    charge  isotop
         -7.26166319   -9.96128936    2.29279803    c      6.000     0
         -7.26166319    9.96128936   -2.29279803    c      6.000     0
         -7.26166319   -9.96128936   -2.29279803    c      6.000     0
          7.26166319    9.96128936   -2.29279803    c      6.000     0
          7.26166319   -9.96128936   -2.29279803    c      6.000     0
         -7.26166319    9.96128936    2.29279803    c      6.000     0
          7.26166319   -9.96128936    2.29279803    c      6.000     0
          7.26166319    9.96128936    2.29279803    c      6.000     0
          4.99589805  -11.26942948    2.29279803    c      6.000     0
         -4.99589805   11.26942948   -2.29279803    c      6.000     0
          4.99589805   11.26942948    2.29279803    c      6.000     0
          4.99589805  -11.26942948   -2.29279803    c      6.000     0
         -4.99589805  -11.26942948    2.29279803    c      6.000     0
         -4.99589805  -11.26942948   -2.29279803    c      6.000     0
         -4.99589805   11.26942948    2.29279803    c      6.000     0
          4.99589805   11.26942948   -2.29279803    c      6.000     0
         12.25756124   -1.30814011    2.29279803    c      6.000     0
         12.25756124    1.30814011   -2.29279803    c      6.000     0
         12.25756124   -1.30814011   -2.29279803    c      6.000     0
         12.25756124    1.30814011    2.29279803    c      6.000     0
        -12.25756124    1.30814011    2.29279803    c      6.000     0
        -12.25756124   -1.30814011    2.29279803    c      6.000     0
        -12.25756124    1.30814011   -2.29279803    c      6.000     0
        -12.25756124   -1.30814011   -2.29279803    c      6.000     0
        -12.10178399   -2.66744747    0.00000000    c      6.000     0
        -12.10178399    2.66744747    0.00000000    c      6.000     0
         12.10178399   -2.66744747    0.00000000    c      6.000     0
         12.10178399    2.66744747    0.00000000    c      6.000     0
         -3.74081472   11.81417611    0.00000000    c      6.000     0
         -3.74081472  -11.81417611    0.00000000    c      6.000     0
          3.74081472  -11.81417611    0.00000000    c      6.000     0
          3.74081472   11.81417611    0.00000000    c      6.000     0
          8.36096927    9.14672863    0.00000000    c      6.000     0
         -8.36096927    9.14672863    0.00000000    c      6.000     0
          8.36096927   -9.14672863    0.00000000    c      6.000     0
         -8.36096927   -9.14672863    0.00000000    c      6.000     0
         -1.15370024   12.48861445    0.00000000    c      6.000     0
          1.15370024  -12.48861445    0.00000000    c      6.000     0
         -1.15370024  -12.48861445    0.00000000    c      6.000     0
          1.15370024   12.48861445    0.00000000    c      6.000     0
         10.23860725    7.24344094    0.00000000    c      6.000     0
        -10.23860725    7.24344094    0.00000000    c      6.000     0
         10.23860725   -7.24344094    0.00000000    c      6.000     0
        -10.23860725   -7.24344094    0.00000000    c      6.000     0
         11.39230749   -5.24517351    0.00000000    c      6.000     0
         11.39230749    5.24517351    0.00000000    c      6.000     0
        -11.39230749    5.24517351    0.00000000    c      6.000     0
        -11.39230749   -5.24517351    0.00000000    c      6.000     0
         -8.13552991    9.41673707    4.06644302    h      1.000     0
         -8.13552991   -9.41673707    4.06644302    h      1.000     0
          8.13552991    9.41673707    4.06644302    h      1.000     0
         -8.13552991   -9.41673707   -4.06644302    h      1.000     0
         -8.13552991    9.41673707   -4.06644302    h      1.000     0
          8.13552991    9.41673707   -4.06644302    h      1.000     0
          8.13552991   -9.41673707    4.06644302    h      1.000     0
          8.13552991   -9.41673707   -4.06644302    h      1.000     0
         -4.08736857  -11.75394411    4.06644302    h      1.000     0
         -4.08736857   11.75394411    4.06644302    h      1.000     0
         -4.08736857  -11.75394411   -4.06644302    h      1.000     0
         -4.08736857   11.75394411   -4.06644302    h      1.000     0
          4.08736857  -11.75394411    4.06644302    h      1.000     0
          4.08736857   11.75394411    4.06644302    h      1.000     0
          4.08736857   11.75394411   -4.06644302    h      1.000     0
          4.08736857  -11.75394411   -4.06644302    h      1.000     0
         12.22289848   -2.33720704   -4.06644302    h      1.000     0
         12.22289848   -2.33720704    4.06644302    h      1.000     0
        -12.22289848   -2.33720704    4.06644302    h      1.000     0
        -12.22289848    2.33720704    4.06644302    h      1.000     0
        -12.22289848    2.33720704   -4.06644302    h      1.000     0
        -12.22289848   -2.33720704   -4.06644302    h      1.000     0
         12.22289848    2.33720704    4.06644302    h      1.000     0
         12.22289848    2.33720704   -4.06644302    h      1.000     0
 
       center of nuclear mass  :    0.00000000    0.00000000    0.00000000
       center of nuclear charge:    0.00000000    0.00000000    0.00000000

              +--------------------------------------------------+
              |               basis set information              |
              +--------------------------------------------------+

              we will work with the 1s 3p 5d 7f 9g ... basis set
              ...i.e. with spherical basis functions...

   type   atoms  prim   cont   basis
   ---------------------------------------------------------------------------
    c       48     50     30   cc-pVTZ   [4s3p2d1f|18s5p2d1f]
    h       24     16     14   cc-pVTZ   [3s2p1d|5s2p1d]
   ---------------------------------------------------------------------------
   total:   72   2784   1776
   ---------------------------------------------------------------------------

   total number of primitive shells          :   34
   total number of contracted shells         :  624
   total number of cartesian basis functions : 2040
   total number of SCF-basis functions       : 1776


 integral neglect threshold       :  0.16E-13
 integral storage threshold THIZE :  0.10E-04
 integral storage threshold THIME :         5

 RI-J AUXILIARY BASIS SET information:

              we will work with the 1s 3p 5d 7f 9g ... basis set
              ...i.e. with spherical basis functions...

   type   atoms  prim   cont   basis
   ---------------------------------------------------------------------------
    c       48     70     49   cc-pVTZ   [6s4p3d1f1g|12s5p4d2f1g]
    h       24     16     11   cc-pVTZ   [3s1p1d|5s2p1d]
   ---------------------------------------------------------------------------
   total:   72   3744   2616
   ---------------------------------------------------------------------------

   total number of primitive shells          :   32
   total number of contracted shells         :  840
   total number of cartesian basis functions : 3216
   total number of SCF-basis functions       : 2616


 symmetry group of the molecule :   c1 

 the group has the following generators :
   c1(z)

    1 symmetry operations found

 there are 1 real representations :   a   

 maximum number of shells which are related by symmetry :  1


    mo occupation :
   irrep   mo's   occupied
    a     1776      156
 
 number of basis functions   :         1776
 number of occupied orbitals :          156
 
  
           ------------------
           density functional
           ------------------
 TPSS meta-GGA functional
 exchange:    LDA + TPSS
 correlation: LDA (PW) + TPSS
 grinp -> nfun, dfgga, dfhybrid 
           5 F F
 iterations will be done with small grid
  
 spherical integration : Lebedev's spherical grid
 spherical gridsize    :           5
    i.e. gridpoints    :         590
 value for diffuse not defined
 radial integration    : Chebyshev 2nd kind (scaling 3)
 radial gridsize       :           8
 integration cells     :          72
 partition function    : becke
 partition sharpness   :           3
  

 <rddim> : input of entry tasksize
           from data group '$pardft' failed !

               Default values taken

 <rddim> : input of entry memdiv
           from data group '$pardft' failed !

               Default values taken
  RIDFT: memory allocation for DFT gridpoints
  MEMORY is divided by 1 as DEFAULT
 Each node can hold at most  the            1 -th part
 of the gridpoints    

 biggest AO integral is expected to be     3.593180334
  
           ------------------------
               RI-J - INFORMATION
           ------------------------
 
 
 **************************************************
 *      MEMORY ALLOCATION FOR PARALLEL RI-DFT     *
 **************************************************
 
 
MEMORY FOR (MU NU/ ALPHA), SEQUENTIAL RUN               9946 MByte
 
            DIFFERENCE IN MEMORY NEED:       DIAG./SLAVE  
 
      TOTAL DIFFERENCE :                    181 MByte
 
      difference in xcore:                   55 MByte
      difference in fatmat:                  46 MByte
      getcor calls skipped by slaves:        80 MByte
 
 
           Integral memory available for diagonal.      9946 MByte
 
           Integral memory available for slave             0 MByte
 
         MEMORY FOR (MU NU/ ALPHA) ON DIAGONALIZER      9946 MByte
 
         MEMORY FOR (MU NU/ ALPHA) ON ONE SLAVE            0 MByte
 
         TOTAL MEMORY FOR (MU NU/ ALPHA),ALL NODES      9946 MByte
 
 Contributions to RI integral batches: 
  neglected integral batches:      136078
  direct contribution:              12984
  memory contribution:       45938
 Memory core needed for (P|Q) and Cholesky     53 MByte
 Memory core minimum needed except of (P|Q)     6 MByte
 Total minimum memory core needed (sum)        58 MByte
     number of direct tasks:         140
  
 ****************************************
 Memory allocated for RI-J 10003 MByte
 ****************************************
                                            

          ------------------------
          nuclear repulsion energy  :   4282.95117564    
          ------------------------

 
          -----------------
          -S integrals
          -----------------

 1e-integrals will be neglected if expon. factor < 0.163822E-14
 
          -----------------
          -T+V integrals
          -----------------

 1e-integrals will be neglected if expon. factor < 0.163822E-14
 Difference densities >>NOT<< switched on in parallel ridft!

 automatic virtual orbital shift switched on 
      shift if e(lumo)-e(homo) < 0.10000000    


 DIIS switched on: error vector is FDS-SDF
 Max. Iterations for DIIS is     :   4
 DIIS matrix (see manual) 
    Scaling factor of diagonals  :  1.200
    threshold for scaling factor :  0.000

 scf convergence criterion : increment of total energy < .1000000D-08
                  and increment of one-electron energy < .1000000D-05


 <geterg> : there is no data group $energy 

  MOs are in ASCII format !


 reading orbital data $scfmo  from file mos . 

 orbital characterization : expanded
 
 mo provided and orthogonalized by Cholesky decomposition

 DSCF restart information will be dumped onto file mos


 Starting SCF iterations


 ITERATION  ENERGY          1e-ENERGY        2e-ENERGY     RMS[dD(SAO)]   TOL
   1  -1838.2443005914    -10927.647434     4806.4519576    0.000D+00 0.163D-13
                            Exc = -262.633710510     Coul =  5069.08566811    
                              N = 311.99977833    
                            current damping = 0.700
 
          max. resid. norm for Fia-block=  2.952D-01 for orbital      7a         
          max. resid. fock norm         =  4.961D+00 for orbital   1653a         

 ITERATION  ENERGY          1e-ENERGY        2e-ENERGY     RMS[dD(SAO)]   TOL
   2  -1842.8482434399    -10980.423461     4854.6240424    0.803D-02 0.163D-13
                            Exc = -267.138167552     Coul =  5121.76220994    
                              N = 311.99984114    
                            current damping = 0.650
 
          Norm of current diis error:  5.7387    
          max. resid. norm for Fia-block=  1.335D-01 for orbital     48a         
          max. resid. fock norm         =  1.652D-01 for orbital    246a         

 ITERATION  ENERGY          1e-ENERGY        2e-ENERGY     RMS[dD(SAO)]   TOL
   3  -1843.8246904477    -10993.209036     4866.4331695    0.164D-02 0.163D-13
                            Exc = -268.519214073     Coul =  5134.95238355    
                              N = 311.99985932    
                            current damping = 0.550
 
          Norm of current diis error:  2.7761    
          max. resid. norm for Fia-block=  5.775D-02 for orbital     54a         
          max. resid. fock norm         =  6.440D-02 for orbital     54a         

 ITERATION  ENERGY          1e-ENERGY        2e-ENERGY     RMS[dD(SAO)]   TOL
   4  -1844.1090403387    -11002.931982     4875.8717664    0.784D-03 0.163D-13
                            Exc = -269.367367723     Coul =  5145.23913411    
                              N = 311.99987210    
                            current damping = 0.450
 
          Norm of current diis error:  1.0562    
          max. resid. norm for Fia-block=  2.237D-02 for orbital     67a         
          max. resid. fock norm         =  2.841D-02 for orbital     72a         

 ITERATION  ENERGY          1e-ENERGY        2e-ENERGY     RMS[dD(SAO)]   TOL
   5  -1844.1567640586    -11005.267585     4878.1596449    0.573D-03 0.163D-13
                            Exc = -269.697286905     Coul =  5147.85693178    
                              N = 311.99987738    
                            current damping = 0.350
 
          Norm of current diis error: 0.45044    
          max. resid. norm for Fia-block=  8.935D-03 for orbital    102a         
          max. resid. fock norm         =  1.168D-02 for orbital     61a         
          irrep a   : virtual orbitals shifted by    0.00517
          mo-orthogonalization: Cholesky decomposition

 ITERATION  ENERGY          1e-ENERGY        2e-ENERGY     RMS[dD(SAO)]   TOL
   6  -1844.1643465207    -11007.471477     4880.3559545    0.245D-03 0.163D-13
                            Exc = -269.853374064     Coul =  5150.20932854    
                              N = 311.99987362    
                            current damping = 0.250
 
          Norm of current diis error: 0.20426    
          max. resid. norm for Fia-block=  3.250D-03 for orbital     96a         
          max. resid. fock norm         =  5.819D-03 for orbital     72a         
          irrep a   : virtual orbitals shifted by    0.02229

 ITERATION  ENERGY          1e-ENERGY        2e-ENERGY     RMS[dD(SAO)]   TOL
   7  -1844.1660674306    -11007.274394     4880.1571511    0.989D-04 0.163D-13
                            Exc = -269.864705355     Coul =  5150.02185641    
                              N = 311.99987447    
                            current damping = 0.300
 
          Norm of current diis error: 0.40736E-01
          max. resid. norm for Fia-block=  8.001D-04 for orbital    102a         
          max. resid. fock norm         =  1.041D-03 for orbital   1758a         
          irrep a   : virtual orbitals shifted by    0.02154

 ITERATION  ENERGY          1e-ENERGY        2e-ENERGY     RMS[dD(SAO)]   TOL
   8  -1844.1661207298    -11007.298649     4880.1813522    0.284D-04 0.163D-13
                            Exc = -269.871739637     Coul =  5150.05309182    
                              N = 311.99987387    
                            current damping = 0.350
 
          Norm of current diis error: 0.21986E-01
          max. resid. norm for Fia-block=  2.957D-04 for orbital    102a         
          max. resid. fock norm         =  4.642D-04 for orbital   1758a         
          irrep a   : virtual orbitals shifted by    0.01903

 ITERATION  ENERGY          1e-ENERGY        2e-ENERGY     RMS[dD(SAO)]   TOL
   9  -1844.1661383966    -11007.360286     4880.2429715    0.419D-05 0.163D-13
                            Exc = -269.873945816     Coul =  5150.11691732    
                              N = 311.99987388    
                            current damping = 0.200
 
          Norm of current diis error: 0.15474E-02
          max. resid. norm for Fia-block=  3.029D-05 for orbital     76a         
          max. resid. fock norm         =  3.906D-05 for orbital    287a         
          irrep a   : virtual orbitals shifted by    0.02816

 ITERATION  ENERGY          1e-ENERGY        2e-ENERGY     RMS[dD(SAO)]   TOL
  10  -1844.1661385238    -11007.362396     4880.2450815    0.134D-05 0.163D-13
                            Exc = -269.874072459     Coul =  5150.11915396    
                              N = 311.99987383    
                            current damping = 0.050
 
          Norm of current diis error: 0.74541E-03
          max. resid. norm for Fia-block=  1.552D-05 for orbital    154a         
          max. resid. fock norm         =  2.087D-05 for orbital    154a         
          irrep a   : virtual orbitals shifted by    0.03716
          mo-orthogonalization: Cholesky decomposition

 ITERATION  ENERGY          1e-ENERGY        2e-ENERGY     RMS[dD(SAO)]   TOL
  11  -1844.1661385235    -11007.361064     4880.2437494    0.106D-05 0.163D-13
                            Exc = -269.874174121     Coul =  5150.11792352    
                              N = 311.99987383    
                            current damping = 0.100
 
          Norm of current diis error: 0.74792E-03
          max. resid. norm for Fia-block=  9.673D-06 for orbital    155a         
          max. resid. fock norm         =  2.072D-05 for orbital     44a         
          irrep a   : virtual orbitals shifted by    0.03417

 ITERATION  ENERGY          1e-ENERGY        2e-ENERGY     RMS[dD(SAO)]   TOL
  12  -1844.1661385420    -11007.362242     4880.2449276    0.161D-06 0.163D-13
                            Exc = -269.874200900     Coul =  5150.11912850    
                              N = 311.99987382    
                            current damping = 0.150
 
          Norm of current diis error: 0.28221E-03
          max. resid. norm for Fia-block=  4.067D-06 for orbital    143a         
          max. resid. fock norm         =  1.058D-05 for orbital     44a         
          irrep a   : virtual orbitals shifted by    0.03118

 ITERATION  ENERGY          1e-ENERGY        2e-ENERGY     RMS[dD(SAO)]   TOL
  13  -1844.1661385439    -11007.362275     4880.2449605    0.162D-06 0.163D-13
                            Exc = -269.874168675     Coul =  5150.11912915    
                              N = 311.99987382    
                            current damping = 0.050
 
          Norm of current diis error: 0.15205E-03
          max. resid. norm for Fia-block=  2.337D-06 for orbital    152a         
          max. resid. fock norm         =  5.367D-06 for orbital     44a         
          irrep a   : virtual orbitals shifted by    0.03716

 DENSITY CONVERGED !


 ITERATION  ENERGY          1e-ENERGY        2e-ENERGY     RMS[dD(SAO)]   TOL
  14  -1844.1661385445    -11007.361969     4880.2446543    0.339D-07 0.163D-13
                            Exc = -269.874158010     Coul =  5150.11881235    
                              N = 311.99987382    
                            current damping = 0.100
 
          Norm of current diis error: 0.87126E-04
          max. resid. norm for Fia-block=  9.325D-07 for orbital    152a         
          max. resid. fock norm         =  1.893D-06 for orbital     44a         
          irrep a   : virtual orbitals shifted by    0.03417

 DENSITY CONVERGED !


 ITERATION  ENERGY          1e-ENERGY        2e-ENERGY     RMS[dD(SAO)]   TOL
  15  -1844.1661385448    -11007.362089     4880.2447746    0.163D-07 0.163D-13
                            Exc = -269.874165643     Coul =  5150.11894022    
                              N = 311.99987382    
                            current damping = 0.150
 
          Norm of current diis error: 0.13085E-04
          max. resid. norm for Fia-block=  2.782D-07 for orbital    100a         
          max. resid. fock norm         =  4.663D-07 for orbital   1758a         
          irrep a   : virtual orbitals shifted by    0.03118
          mo-orthogonalization: Cholesky decomposition

 ENERGY & DENSITY CONVERGED !


 ITERATION  ENERGY          1e-ENERGY        2e-ENERGY     RMS[dD(SAO)]   TOL
  16  -1844.1649569110    -11007.362119     4880.2459860    0.323D-08 0.163D-13
                            Exc = -269.872984309     Coul =  5150.11897030    
                              N = 312.00003663    
                            current damping = 0.050
 
          Norm of current diis error: 0.10489E-04
          max. resid. norm for Fia-block=  9.865D-08 for orbital    100a         
          max. resid. fock norm         =  1.743D-07 for orbital   1757a         

 End of SCF iterations

   convergence criteria satisfied after   16 iterations


                  ------------------------------------------ 
                 |  total energy      =  -1844.16495691099  |
                  ------------------------------------------ 
                 :  kinetic energy    =   1833.59652085493  :
                 :  potential energy  =  -3677.76147776592  :
                 :  virial theorem    =      1.99426925665  :
                 :  wavefunction norm =      1.00000000000  :
                  .......................................... 


 <geterg> : there is no data group $energy 


 <skperg> : $end is missing 


 orbitals $scfmo  will be written to file mos

    irrep                152a        153a        154a        155a        156a   
 eigenvalues H         -0.23068    -0.23067    -0.19649    -0.19649    -0.17521
            eV          -6.2770     -6.2770     -5.3469     -5.3469     -4.7678
 occupation              2.0000      2.0000      2.0000      2.0000      2.0000 

    irrep                157a        158a        159a        160a        161a   
 eigenvalues H         -0.11536    -0.09228    -0.09228    -0.05376    -0.05376
            eV          -3.1392     -2.5112     -2.5112     -1.4628     -1.4628
 
 
 ! grave: sending quit signal to master process
 
 
 
 
 ==============================================================================
                           electrostatic moments
 ==============================================================================

 reference point for electrostatic moments:    0.00000   0.00000   0.00000

 
              nuc           elec       ->  total
 ------------------------------------------------------------------------------
                          charge      
 ------------------------------------------------------------------------------
         312.000000    -312.000000       0.000000
 
 ------------------------------------------------------------------------------
                       dipole moment  
 ------------------------------------------------------------------------------
   x       0.000000      -0.000000      -0.000000
   y       0.000000      -0.000000      -0.000000
   z      -0.000000      -0.000000      -0.000000
 
   | dipole moment | =     0.0000 a.u. =     0.0000 debye 
 
 ------------------------------------------------------------------------------
                     quadrupole moment
 ------------------------------------------------------------------------------
  xx   23990.530953  -24206.083713    -215.552760
  yy   23990.530953  -24206.085407    -215.554454
  zz    1153.859899   -1331.393793    -177.533894
  xy       0.000000       0.000000       0.000000
  xz       0.000000      -0.000000      -0.000000
  yz       0.000000       0.000000       0.000000
 
     1/3  trace=    -202.880369
     anisotropy=      38.019713
 
 ==============================================================================
 

    ridft profiling
  --------------------------------------------------------------------
             module   cpu total (s)       %  wall total (s)       %

               RIDFT          4258.1  100.00          4321.9  100.00
         Ridft_b_scf          2057.2   48.31          2106.6   48.74
        b_scf_prelim             0.0    0.00             0.0    0.00
        b_scf_molinp             0.0    0.00             0.0    0.00
         b_scf_init0             0.0    0.00             0.0    0.00
        b_scf_auxbas             0.0    0.00             0.0    0.00
      b_scf_symmetry             0.0    0.00             0.1    0.00
         b_scf_cosmo             0.0    0.00             0.0    0.00
        b_scf_params          1438.7   33.79          1487.6   34.42
          b_scf_ri-j           607.8   14.28           608.2   14.07
    b_scf_ri-j_auxpq           607.8   14.27           608.2   14.07
     ri-j_auxpq_chol             3.4    0.08             3.4    0.08
         b_scf_1elec             1.0    0.02             1.0    0.02
       b_scf_moinput             9.6    0.23             9.6    0.22
     moinput_orthmos             9.3    0.22             9.3    0.21
    b_scf_dft-dstmax             0.0    0.00             0.0    0.00
           Ridft_scf          2200.2   51.67          2214.5   51.24
          Scf_b_loop             0.0    0.00             0.0    0.00
                noga             0.0    0.00             0.0    0.00
            Scf_loop          2198.0   51.62          2212.2   51.19
     scf_loop_mkdmat             5.9    0.14             5.9    0.14
       scf_loop_ri-j           108.4    2.54           108.5    2.51
      parlp1.bc.dens             1.4    0.03             1.4    0.03
        parlp1.gs.gp             5.8    0.14             5.9    0.14
        parlp2.bc.gq             0.0    0.00             0.0    0.00
        scf_loop_dft          1879.8   44.15          1893.2   43.81
      pardft.bc.dens             0.0    0.00             0.0    0.00
        dft_grid_con             4.7    0.11             4.7    0.11
          dft_xcmrhf          1856.6   43.60          1870.0   43.27
          dft_getval           156.5    3.67           157.4    3.64
          funct2 dst             6.9    0.16             7.2    0.17
      funct2 f2loop1            29.6    0.70            29.6    0.69
      funct2 f2loop2            63.3    1.49            64.0    1.48
          funct2 s+c            35.2    0.83            35.3    0.82
        funct2 cmf_2            33.9    0.80            33.9    0.78
          dft_mkdens           928.0   21.79           935.2   21.64
        dft_mgga-fun             2.2    0.05             2.6    0.06
          dft_mkfock           756.4   17.76           760.7   17.60
     pardft.red.fock           209.5    4.92           210.9    4.88
     scf_loop_energy             0.1    0.00             0.1    0.00
     scf_loop_mkfock             0.1    0.00             0.1    0.00
       scf_loop_diis            39.5    0.93            39.6    0.92
       scf_loop_diag           114.9    2.70           115.4    2.67
         diag_tritrn            57.7    1.35            58.0    1.34
          diag_rdiag            56.8    1.34            57.0    1.32
     scf_loop_modump            30.0    0.70            30.0    0.69
      scf_loop_ortho            18.2    0.43            18.3    0.42
          Scf_a_loop             2.3    0.05             2.3    0.05
         Ridft_a_scf             0.6    0.01             0.7    0.02
         a_scf_fanal             0.6    0.01             0.6    0.01
 


    ------------------------------------------------------------------------
         total  cpu-time :  1 hours 11 minutes and  2 seconds
         total wall-time :  1 hours 12 minutes and  6 seconds
    ------------------------------------------------------------------------


   ****  ridft : all done  ****


    2017-11-01 18:26:55.640 

