 operating system is UNIX !

 dscf (gplogin2.gp.local) : TURBOMOLE V7.3 ( 22118 ) 1 Jul 2018 at 20:38:15
 Copyright (C) 2018 TURBOMOLE GmbH, Karlsruhe


    2019-02-08 17:46:32.884 

no calculation of wave function, analysis of properties only


                             d s c f - program

                   idea & directorship : reinhart ahlrichs
                   program development : marco haeser
                                         michael baer
                           dft version : oliver treutler


                          quantum chemistry group
                          universitaet  karlsruhe
                                  germany




                          References             
                                                 
          TURBOMOLE:                             
              R. Ahlrichs, M. Baer, M. Haeser, H. Horn, and
              C. Koelmel
              Electronic structure calculations on workstation
              computers: the program system TURBOMOLE
              Chem. Phys. Lett. 162: 165 (1989)
          Density Functional:                              
              O. Treutler and R. Ahlrichs                      
              Efficient Molecular Numerical Integration Schemes
              J. Chem. Phys. 102: 346 (1995)                   
          Parallel Version:                                
              Performance of parallel TURBOMOLE for Density    
              Functional Calculations                          
              M. v. Arnim and R. Ahlrichs                      
              J. Comp. Chem. 19: 1746 (1998)                   
                                         




              +--------------------------------------------------+
              | Atomic coordinate, charge and isotop information |
              +--------------------------------------------------+

                    atomic coordinates            atom    charge  isotop
         -1.45507077   -0.18117687   -9.52271731    c      6.000     0
          1.50694907   -0.19355039   -9.48385080    c      6.000     0
          2.12404334    2.03945280   -8.00569874    n      7.000     0
          0.01646673    3.36018706   -7.21206028    c      6.000     0
         -2.08591655    2.09778578   -8.13413163    n      7.000     0
         -2.11121140   -2.53465553   -8.30613592    n      7.000     0
         -0.00725822   -4.02169335   -7.73304406    c      6.000     0
          2.12062499   -2.59098083   -8.33444487    n      7.000     0
         -0.03645480   -6.16684830   -6.93789639    o      8.000     0
         -0.00895430    5.31224645   -5.97634610    o      8.000     0
          4.64215941   -3.65890099   -8.16070741    c      6.000     0
          4.65250269    3.05454039   -7.73168786    c      6.000     0
         -9.05653956   -0.26688067   -3.51066175    c      6.000     0
         -7.56616279   -0.22543327   -6.07306319    c      6.000     0
         -6.12363902    2.11448185   -5.91063073    n      7.000     0
         -9.37087756    3.09774873    0.00000000    c      6.000     0
         -8.30424818    2.09293414   -2.31069124    n      7.000     0
         -8.17098030   -2.54512430   -2.30449983    n      7.000     0
         -6.52184819   -3.94131955   -3.81933294    c      6.000     0
         -6.11013837   -2.52685118   -6.00348542    n      7.000     0
         -5.67367306   -6.01402945   -3.35444778    o      8.000     0
         -5.63975622    5.48395752   -3.13933303    o      8.000     0
         -4.64531786   -3.53893152   -8.09164027    c      6.000     0
         -4.58761026    3.15923529   -7.92668777    c      6.000     0
          9.10584356   -0.57312059    3.51304468    c      6.000     0
          7.58458019   -0.42534634    6.05000367    c      6.000     0
          6.13150545    1.88976477    5.75576661    n      7.000     0
          6.82701599    3.27045435    3.63359919    c      6.000     0
          8.57312560    1.83190210    2.31407944    n      7.000     0
          8.06120808   -2.79177147    2.29738864    n      7.000     0
          6.45234668   -4.16066455    3.87110418    c      6.000     0
          6.15125279   -2.74246543    6.07185755    n      7.000     0
          5.54266319   -6.21721753    3.44176170    o      8.000     0
          6.07315631    5.37345656    3.07907200    o      8.000     0
          4.64215941   -3.65890099    8.16070741    c      6.000     0
          4.65250269    3.05454039    7.73168786    c      6.000     0
          7.58458019   -0.42534634   -6.05000367    c      6.000     0
          9.10584356   -0.57312059   -3.51304468    c      6.000     0
          8.57312560    1.83190210   -2.31407944    n      7.000     0
          6.82701599    3.27045435   -3.63359919    c      6.000     0
          6.13150545    1.88976477   -5.75576661    n      7.000     0
          6.15125279   -2.74246543   -6.07185755    n      7.000     0
          6.45234668   -4.16066455   -3.87110418    c      6.000     0
          8.06120808   -2.79177147   -2.29738864    n      7.000     0
          5.54266319   -6.21721753   -3.44176170    o      8.000     0
          6.07315631    5.37345656   -3.07907200    o      8.000     0
          9.04266087   -3.90976719    0.00000000    c      6.000     0
          9.71688649    2.74495287    0.00000000    c      6.000     0
         -7.56616279   -0.22543327    6.07306319    c      6.000     0
         -9.05653956   -0.26688067    3.51066175    c      6.000     0
         -8.30424818    2.09293414    2.31069124    n      7.000     0
         -6.57075440    3.43611533    3.71760572    c      6.000     0
         -6.12363902    2.11448185    5.91063073    n      7.000     0
         -6.11013837   -2.52685118    6.00348542    n      7.000     0
         -6.52184819   -3.94131955    3.81933294    c      6.000     0
         -8.17098030   -2.54512430    2.30449983    n      7.000     0
         -5.67367306   -6.01402945    3.35444778    o      8.000     0
         -5.63975622    5.48395752    3.13933303    o      8.000     0
         -9.20056302   -3.60705911    0.00000000    c      6.000     0
         -6.57075440    3.43611533   -3.71760572    c      6.000     0
          1.50694907   -0.19355039    9.48385080    c      6.000     0
         -1.45507077   -0.18117687    9.52271731    c      6.000     0
         -2.08591655    2.09778578    8.13413163    n      7.000     0
          0.01646673    3.36018706    7.21206028    c      6.000     0
          2.12404334    2.03945280    8.00569874    n      7.000     0
          2.12062499   -2.59098083    8.33444487    n      7.000     0
         -0.00725822   -4.02169335    7.73304406    c      6.000     0
         -2.11121140   -2.53465553    8.30613592    n      7.000     0
         -0.03645480   -6.16684830    6.93789639    o      8.000     0
         -0.00895430    5.31224645    5.97634610    o      8.000     0
         -4.64531786   -3.53893152    8.09164027    c      6.000     0
         -4.58761026    3.15923529    7.92668777    c      6.000     0
         -2.26133434   -0.09001059  -11.43386181    h      1.000     0
          2.36251987   -0.04667049  -11.36963696    h      1.000     0
          5.65622881   -3.29653342   -9.93270547    h      1.000     0
          4.39137830   -5.68873750   -7.86687832    h      1.000     0
          5.63960430    2.85914940   -9.54698586    h      1.000     0
          4.45818736    5.04774116   -7.22533810    h      1.000     0
        -11.11797305   -0.30458011   -3.74737322    h      1.000     0
         -8.79102164   -0.17696831   -7.74736180    h      1.000     0
         -4.44147356   -5.56620872   -7.74468423    h      1.000     0
         -5.67764393   -3.20046935   -9.85896624    h      1.000     0
          5.63960430    2.85914940    9.54698586    h      1.000     0
         -5.58166559    2.89153037   -9.72543920    h      1.000     0
         11.15296026   -0.78687566    3.78716909    h      1.000     0
          8.79328968   -0.30078055    7.73402993    h      1.000     0
          5.65622881   -3.29653342    9.93270547    h      1.000     0
          4.39137830   -5.68873750    7.86687832    h      1.000     0
         -4.36645185    5.17033160   -7.51660904    h      1.000     0
          4.45818736    5.04774116    7.22533810    h      1.000     0
          8.79328968   -0.30078055   -7.73402993    h      1.000     0
         11.15296026   -0.78687566   -3.78716909    h      1.000     0
          8.44330394   -5.88824688    0.00000000    h      1.000     0
         11.11502132   -3.77504629    0.00000000    h      1.000     0
          9.49052781    4.79718869    0.00000000    h      1.000     0
         11.72369771    2.23367265    0.00000000    h      1.000     0
         -8.79102164   -0.17696831    7.74736180    h      1.000     0
        -11.11797305   -0.30458011    3.74737322    h      1.000     0
        -11.26239144   -3.37189419    0.00000000    h      1.000     0
         -8.69678513   -5.61186371    0.00000000    h      1.000     0
        -11.41193843    2.74206516    0.00000000    h      1.000     0
         -8.99306201    5.12698521    0.00000000    h      1.000     0
          2.36251987   -0.04667049   11.36963696    h      1.000     0
         -2.26133434   -0.09001059   11.43386181    h      1.000     0
         -4.44147356   -5.56620872    7.74468423    h      1.000     0
         -5.67764393   -3.20046935    9.85896624    h      1.000     0
         -4.36645185    5.17033160    7.51660904    h      1.000     0
         -5.58166559    2.89153037    9.72543920    h      1.000     0
          0.49539521    3.67413209    0.00000000    c      6.000     0
         -0.92366084    1.16806728    0.00000000    c      6.000     0
          0.92859186   -1.05942441    0.00000000    c      6.000     0
         -1.30210197    5.89433350    0.00000000    n      7.000     0
         -2.48358102    5.87193217    1.56883530    h      1.000     0
         -2.48358102    5.87193217   -1.56883530    h      1.000     0
         -0.30102330    7.54808609    0.00000000    h      1.000     0
         -2.14965762    1.05488509    1.66764213    h      1.000     0
         -2.14965762    1.05488509   -1.66764213    h      1.000     0
          1.67224909    3.89810879   -1.67535704    h      1.000     0
          1.67224909    3.89810879    1.67535704    h      1.000     0
         -0.07237719   -2.86560193    0.00000000    h      1.000     0
          2.14382289   -1.00456045   -1.67326303    h      1.000     0
          2.14382289   -1.00456045    1.67326303    h      1.000     0
 
       center of nuclear mass  :    0.01258607   -0.16108665    0.00000000
       center of nuclear charge:    0.01101239   -0.14217789   -0.00000000

              +--------------------------------------------------+
              |               basis set information              |
              +--------------------------------------------------+

              we will work with the 1s 3p 5d 7f 9g ... basis set
              ...i.e. with spherical basis functions...

   type   atoms  prim   cont   basis
   ---------------------------------------------------------------------------
    c       39     50     30   cc-pVTZ   [4s3p2d1f|18s5p2d1f]
    n       25     50     30   cc-pVTZ   [4s3p2d1f|18s5p2d1f]
    o       12     50     30   cc-pVTZ   [4s3p2d1f|18s5p2d1f]
    h       46     16     14   cc-pVTZ   [3s2p1d|5s2p1d]
   ---------------------------------------------------------------------------
   total:  122   4536   2924
   ---------------------------------------------------------------------------

   total number of primitive shells          :   86
   total number of contracted shells         : 1036
   total number of cartesian basis functions : 3350
   total number of SCF-basis functions       : 2924


 integral neglect threshold       :  0.10E-13
 integral storage threshold THIZE :  0.10E-04
 integral storage threshold THIME :         5


 DENSITY CONVERGENCE CHECK SWITCHED ON !
 SCF CONVERGENCE IF RMS(delta[D]) <     0.1000000000E-06


 symmetry group of the molecule :   c1 

 the group has the following generators :
   c1(z)

    1 symmetry operations found

 there are 1 real representations :   a   

 maximum number of shells which are related by symmetry :  1


    mo occupation :
   irrep   mo's   occupied
    a     2924      275
 
 number of basis functions   :                   2924
 number of occupied orbitals :                    275
 

 automatic virtual orbital shift switched on 
      shift if e(lumo)-e(homo) < 0.10000000    


          ------------------------
          nuclear repulsion energy  :   15491.7899309    
          ------------------------


         -----------------
         -S,T+V- integrals
         -----------------

 1e-integrals will be neglected if expon. factor < 0.997600E-15
 
   Difference densities algorithm switched on.
   The maximal number of linear combinations of
   difference densities is                    20 .

 DIIS switched on: error vector is FDS-SDF
 Max. Iterations for DIIS is     :   5
 DIIS matrix (see manual) 
    Scaling factor of diagonals  :  1.200
    threshold for scaling factor :  0.000

 scf convergence criterion : increment of total energy < .1000000D-08
                  and increment of one-electron energy < .1000000D-05

  MOs are in ASCII format !


 reading orbital data $scfmo  from file mos
 orbital characterization : scfconv=9
 
 
 
 ==============================================================================
                           electrostatic moments
 ==============================================================================

 reference point for electrostatic moments:    0.00000   0.00000   0.00000

 
              nuc           elec       ->  total
 ------------------------------------------------------------------------------
                          charge      
 ------------------------------------------------------------------------------
         551.000000    -550.000000       1.000000
 
 ------------------------------------------------------------------------------
                       dipole moment  
 ------------------------------------------------------------------------------
   x       6.067829      -7.217338      -1.149509
   y     -78.340018      81.383982       3.043963
   z      -0.000000      -0.000000      -0.000000
 
   | dipole moment | =     3.2538 a.u. =     8.2703 debye 
 
 ------------------------------------------------------------------------------
                     quadrupole moment
 ------------------------------------------------------------------------------
  xx   19048.947542  -19243.597254    -194.649711
  yy    6906.472178   -7290.601420    -384.129243
  zz   18539.002899  -18735.278037    -196.275138
  xy    -276.541390     269.199396      -7.341994
  xz      -0.000000       0.000000       0.000000
  yz      -0.000000       0.000000       0.000000
 
     1/3  trace=    -258.351364
     anisotropy=     189.100143



 ==============================================================================
                  MULLIKEN POPULATION ANALYSIS (CAO-BASIS)
 ==============================================================================

         BRUTTO POPULATIONS  
 
       values displayed are larger than   0.010000
 
 
 atomic populations from total density:
 
 atom      charge    n(s)      n(p)      n(d)      n(f)      n(g)
     1c     -0.01437   3.17950   2.59751   0.22192   0.01545
     2c     -0.00817   3.17450   2.59583   0.22244   0.01541
     3n     -0.11315   3.33692   3.70188   0.06889   0.00546
     4c      0.32231   3.12678   2.17567   0.34671   0.02852
     5n     -0.11335   3.33301   3.70608   0.06876   0.00550
     6n     -0.13488   3.34366   3.71782   0.06798   0.00543
     7c      0.32543   3.11770   2.17781   0.35089   0.02817
     8n     -0.13238   3.34016   3.71879   0.06801   0.00542
     9o     -0.40503   3.77165   4.59441   0.03654   0.00243
    10o     -0.48099   3.78246   4.66228   0.03390   0.00235
    11c     -0.06046   3.18928   2.67283   0.18534   0.01300
    12c     -0.07903   3.19760   2.68287   0.18543   0.01313
    13c     -0.00692   3.17539   2.59493   0.22124   0.01536
    14c     -0.01825   3.17765   2.60145   0.22375   0.01541
    15n     -0.10583   3.33463   3.69688   0.06884   0.00548
    16c     -0.07325   3.19165   2.68250   0.18608   0.01303
    17n     -0.10970   3.33530   3.70012   0.06880   0.00549
    18n     -0.13214   3.34328   3.71523   0.06820   0.00542
    19c      0.31675   3.11995   2.18300   0.35214   0.02816
    20n     -0.12870   3.33747   3.71765   0.06814   0.00543
    21o     -0.40046   3.77365   4.58777   0.03661   0.00243
    22o     -0.51086   3.79022   4.68659   0.03176   0.00230
    23c     -0.06334   3.19230   2.67383   0.18419   0.01302
    24c     -0.07890   3.19444   2.68388   0.18744   0.01313
    25c     -0.00384   3.17213   2.59517   0.22119   0.01536
    26c     -0.01465   3.17287   2.60290   0.22344   0.01545
    27n     -0.12368   3.34711   3.70282   0.06836   0.00540
    28c      0.31890   3.12373   2.17966   0.34936   0.02836
    29n     -0.12513   3.33563   3.71547   0.06856   0.00546
    30n     -0.13115   3.34935   3.70825   0.06815   0.00539
    31c      0.31112   3.12563   2.18442   0.35066   0.02817
    32n     -0.12535   3.33179   3.71977   0.06832   0.00546
    33o     -0.40783   3.77402   4.59499   0.03640   0.00242
    34o     -0.45081   3.78018   4.63308   0.03517   0.00238
    35c     -0.06046   3.18928   2.67283   0.18534   0.01300
    36c     -0.07903   3.19760   2.68287   0.18543   0.01313
    37c     -0.01465   3.17287   2.60290   0.22344   0.01545
    38c     -0.00384   3.17213   2.59517   0.22119   0.01536
    39n     -0.12513   3.33563   3.71547   0.06856   0.00546
    40c      0.31890   3.12373   2.17966   0.34936   0.02836
    41n     -0.12368   3.34711   3.70282   0.06836   0.00540
    42n     -0.12535   3.33179   3.71977   0.06832   0.00546
    43c      0.31112   3.12563   2.18442   0.35066   0.02817
    44n     -0.13115   3.34935   3.70825   0.06815   0.00539
    45o     -0.40783   3.77402   4.59499   0.03640   0.00242
    46o     -0.45081   3.78018   4.63308   0.03517   0.00238
    47c     -0.07008   3.19777   2.67618   0.18305   0.01308
    48c     -0.05980   3.18223   2.67862   0.18597   0.01297
    49c     -0.01825   3.17765   2.60145   0.22375   0.01541
    50c     -0.00692   3.17539   2.59493   0.22124   0.01536
    51n     -0.10970   3.33530   3.70012   0.06880   0.00549
    52c      0.31969   3.14315   2.16303   0.34514   0.02898
    53n     -0.10583   3.33463   3.69688   0.06884   0.00548
    54n     -0.12870   3.33747   3.71765   0.06814   0.00543
    55c      0.31675   3.11995   2.18300   0.35214   0.02816
    56n     -0.13214   3.34328   3.71523   0.06820   0.00542
    57o     -0.40046   3.77365   4.58777   0.03661   0.00243
    58o     -0.51086   3.79022   4.68659   0.03176   0.00230
    59c     -0.06567   3.19441   2.67461   0.18363   0.01303
    60c      0.31969   3.14315   2.16303   0.34514   0.02898
    61c     -0.00817   3.17450   2.59583   0.22244   0.01541
    62c     -0.01437   3.17950   2.59751   0.22192   0.01545
    63n     -0.11335   3.33301   3.70608   0.06876   0.00550
    64c      0.32231   3.12678   2.17567   0.34671   0.02852
    65n     -0.11315   3.33692   3.70188   0.06889   0.00546
    66n     -0.13238   3.34016   3.71879   0.06801   0.00542
    67c      0.32543   3.11770   2.17781   0.35089   0.02817
    68n     -0.13488   3.34366   3.71782   0.06798   0.00543
    69o     -0.40503   3.77165   4.59441   0.03654   0.00243
    70o     -0.48099   3.78246   4.66228   0.03390   0.00235
    71c     -0.06334   3.19230   2.67383   0.18419   0.01302
    72c     -0.07890   3.19444   2.68388   0.18744   0.01313
    73h      0.14559   0.82408   0.02767   0.00266
    74h      0.14549   0.82406   0.02778   0.00266
    75h      0.13055   0.84383   0.02327   0.00236
    76h      0.18361   0.78348   0.03037   0.00254
    77h      0.13281   0.84177   0.02306   0.00236
    78h      0.17875   0.78900   0.02972   0.00253
    79h      0.14951   0.82013   0.02770   0.00266
    80h      0.15377   0.81575   0.02783   0.00265
    81h      0.18593   0.78094   0.03059   0.00254
    82h      0.12910   0.84537   0.02318   0.00235
    83h      0.13281   0.84177   0.02306   0.00236
    84h      0.14108   0.83315   0.02340   0.00237
    85h      0.14580   0.82416   0.02738   0.00266
    86h      0.14912   0.82051   0.02772   0.00265
    87h      0.13055   0.84383   0.02327   0.00236
    88h      0.18361   0.78348   0.03037   0.00254
    89h      0.17684   0.79167   0.02895   0.00253
    90h      0.17875   0.78900   0.02972   0.00253
    91h      0.14912   0.82051   0.02772   0.00265
    92h      0.14580   0.82416   0.02738   0.00266
    93h      0.18620   0.78064   0.03064   0.00253
    94h      0.12508   0.84949   0.02309   0.00235
    95h      0.17560   0.79272   0.02914   0.00254
    96h      0.13755   0.83665   0.02342   0.00237
    97h      0.15377   0.81575   0.02783   0.00265
    98h      0.14951   0.82013   0.02770   0.00266
    99h      0.12937   0.84516   0.02312   0.00235
   100h      0.18681   0.77989   0.03075   0.00254
   101h      0.14231   0.83194   0.02339   0.00237
   102h      0.17776   0.79086   0.02885   0.00254
   103h      0.14549   0.82406   0.02778   0.00266
   104h      0.14559   0.82408   0.02767   0.00266
   105h      0.18593   0.78094   0.03059   0.00254
   106h      0.12910   0.84537   0.02318   0.00235
   107h      0.17684   0.79167   0.02895   0.00253
   108h      0.14108   0.83315   0.02340   0.00237
   109c     -0.19491   3.22773   2.81992   0.13899   0.00826
   110c     -0.23998   3.20574   2.91756   0.11012   0.00656
   111c     -0.32824   3.27762   2.96277   0.08308   0.00477
   112n      0.00588   3.35877   3.59146   0.04229   0.00160
   113h      0.23088   0.68889   0.07523   0.00499
   114h      0.23088   0.68889   0.07523   0.00499
   115h      0.18035   0.75373   0.06116   0.00475
   116h      0.10873   0.86230   0.02648   0.00248
   117h      0.10873   0.86230   0.02648   0.00248
   118h      0.19281   0.77615   0.02860   0.00243
   119h      0.19281   0.77615   0.02860   0.00243
   120h      0.18047   0.79242   0.02505   0.00207
   121h      0.08703   0.88445   0.02633   0.00218
   122h      0.08703   0.88445   0.02633   0.00218
 
 moments (from total density versus population analysis)
 <charge> =             1.000000            1.000000
 <x   >   =            -1.149509           -0.953766
 <y   >   =             3.043963            2.235718
 <z   >   =            -0.000000           -0.000000
 
 
 ==============================================================================
 


    ------------------------------------------------------------------------
         total  cpu-time :  31.80 seconds
         total wall-time :  33.39 seconds
    ------------------------------------------------------------------------

   ****  dscf : all done  ****


    2019-02-08 17:47:06.248 

