 this is node-proc. number 0 running on node c-17-12.gp.local
 the total number of node-proc. spawned is  33

 dscfserver (c-17-12.gp.local) : TURBOMOLE V7.2 ( 21471 ) 7 Nov 2017 at 16:15:16
 Copyright (C) 2017 TURBOMOLE GmbH, Karlsruhe


    2018-02-12 12:53:06.464 

 
    0:00:24 ---- Start global counter...
    0:17:16 ---- ... finished.
 
    0:17:54 ---- Start global counter...
    0:28:25 ---- ... finished.
 
    0:29:12 ---- Start global counter...
    0:37:06 ---- ... finished.
 
    0:37:44 ---- Start global counter...
    0:44:55 ---- ... finished.
 
    0:45:34 ---- Start global counter...
    0:51:29 ---- ... finished.
 
    0:52:08 ---- Start global counter...
    0:57:15 ---- ... finished.
 
    0:57:53 ---- Start global counter...
    1:02:11 ---- ... finished.
 
    1:02:46 ---- ByeBye Tag received


 ! Total wall-clock time in seconds  :     3766.3
 ! Time (sec) spent in global counter:     3467.5
 ! So-called SERIAL wall-clock time  :      298.7

  *** Regular termination of server ***
 total turnaround time of dscfserver  3766.73 sec
 cpu elapsed by dscfserver process    3467.19 sec 

   ***  dscf server : all done  ***


    2018-02-12 13:55:53.196 

