
   OpenMP run-time library returned nthreads = 28

 ricc2 (c-13-38) : TURBOMOLE V7.3 ( 22142 ) 4 Jul 2018 at 18:12:42
 Copyright (C) 2018 TURBOMOLE GmbH, Karlsruhe


    2019-04-01 11:19:33.660 



                              R I C C 2 - PROGRAM

                          the quantum chemistry groups
                             at the universities in
                           Karlsruhe, Bochum & Mainz
                                   Germany



   *-----------------------------------------------------------------------*
   |                     program will use 28 thread(s)                     |
   *-----------------------------------------------------------------------*


              +--------------------------------------------------+
              | Atomic coordinate, charge and isotop information |
              +--------------------------------------------------+

                    atomic coordinates            atom    charge  isotop
         -7.50192929   -9.30448991  -22.21948869    c      6.000     0
         -9.16726367  -11.38555271  -21.06400242    c      6.000     0
        -13.52984574  -10.67571677  -19.59037130    c      6.000     0
         -8.42156073  -13.95719218  -22.27847649    c      6.000     0
         -9.78992654  -16.17059628  -21.11087518    c      6.000     0
        -12.17392377  -16.90590950  -22.00286749    c      6.000     0
        -13.47907824  -18.88276713  -20.84310666    c      6.000     0
        -12.42088830  -20.15587374  -18.78919923    c      6.000     0
        -10.03294721  -19.46046775  -17.91232662    c      6.000     0
         -8.72943680  -17.48687368  -19.07354632    c      6.000     0
        -16.27005068  -10.44483381  -20.39504503    c      6.000     0
         -5.98438472   -9.66913714  -13.48222842    c      6.000     0
         -8.12955647  -11.25696440  -12.28853566    c      6.000     0
        -11.23039107   -8.07239037  -10.89627993    c      6.000     0
         -8.30495707  -13.90535700  -13.46890774    c      6.000     0
        -10.19384416  -15.60124636  -12.15632664    c      6.000     0
         -9.49419763  -17.01314012  -10.02942476    c      6.000     0
        -11.23189719  -18.57987805   -8.81531352    c      6.000     0
        -13.70395943  -18.75728742   -9.71946810    c      6.000     0
        -14.41915275  -17.36006550  -11.83882998    c      6.000     0
        -12.67723154  -15.79650420  -13.05012742    c      6.000     0
        -13.84125560   -6.96798150  -11.31479380    c      6.000     0
        -11.83168114  -10.85450754  -21.49583129    n      7.000     0
         -5.63554316   -8.44633882  -20.71677091    n      7.000     0
         -5.21765291   -7.72844887  -12.00351961    n      7.000     0
        -10.51759772   -9.88592085  -12.56467378    n      7.000     0
         -7.82268573   -8.56573739  -24.42375596    o      8.000     0
        -12.91885193  -10.66787063  -17.31889970    o      8.000     0
         -5.07159786  -10.13427244  -15.59103806    o      8.000     0
         -9.84877072   -7.38812431   -9.11977863    o      8.000     0
        -15.07104401   -7.59974907   -9.77453094    h      1.000     0
         -4.00798441   -6.43763553  -12.73573557    h      1.000     0
        -13.73083701   -4.90676650  -11.22751869    h      1.000     0
         -4.41531676   -7.15738497  -21.43228547    h      1.000     0
        -17.38537082  -11.81025165  -19.31735879    h      1.000     0
        -16.94974926   -8.55091438  -19.91036996    h      1.000     0
        -14.66786527   -7.55472635  -13.11450283    h      1.000     0
        -11.54870032  -10.19852502  -14.17397968    h      1.000     0
         -7.76770226  -11.41176132  -10.25645268    h      1.000     0
         -8.80074751  -13.72997718  -15.46489506    h      1.000     0
         -6.41696949  -14.74844130  -13.38533838    h      1.000     0
        -13.23217797  -14.73068166  -14.71515000    h      1.000     0
         -7.56582660  -16.89116964   -9.32378591    h      1.000     0
        -16.33630258  -17.49842557  -12.56202250    h      1.000     0
        -10.65528505  -19.66831305   -7.17176201    h      1.000     0
        -15.05895354  -19.98244979   -8.78175009    h      1.000     0
         -6.32640436   -7.24868709  -10.48716746    h      1.000     0
        -16.52885245  -10.77943061  -22.41528321    h      1.000     0
        -12.50097490  -11.07628391  -23.30021928    h      1.000     0
         -8.89567412  -11.45365277  -19.02179617    h      1.000     0
         -8.84094765  -13.84109308  -24.29905293    h      1.000     0
         -6.37360972  -14.18654825  -22.06882649    h      1.000     0
        -12.99822798  -15.92422512  -23.60664971    h      1.000     0
         -6.87055100  -16.94693924  -18.38277205    h      1.000     0
        -15.32761402  -19.43216910  -21.55019116    h      1.000     0
         -9.19848951  -20.43601430  -16.31150182    h      1.000     0
        -13.44691133  -21.68021754  -17.87415226    h      1.000     0
         -5.39500559   -9.04189924  -18.88738562    h      1.000     0
 
       center of nuclear mass  :  -10.26877867  -12.82503035  -16.20815606
       center of nuclear charge:  -10.31087610  -12.83745562  -16.20310470

              +--------------------------------------------------+
              |               basis set information              |
              +--------------------------------------------------+

              we will work with the 1s 3p 5d 7f 9g ... basis set
              ...i.e. with spherical basis functions...

   type   atoms  prim   cont   basis
   ---------------------------------------------------------------------------
    c       22     77     55   cc-pVQZ   [5s4p3d2f1g|21s6p3d2f1g]
    n        4     77     55   cc-pVQZ   [5s4p3d2f1g|21s6p3d2f1g]
    o        4     77     55   cc-pVQZ   [5s4p3d2f1g|21s6p3d2f1g]
    h       28     32     30   cc-pVQZ   [4s3p2d1f|6s3p2d1f]
   ---------------------------------------------------------------------------
   total:   58   3206   2490
   ---------------------------------------------------------------------------

   total number of primitive shells          :  111
   total number of contracted shells         :  730
   total number of cartesian basis functions : 3080
   total number of SCF-basis functions       : 2490


 symmetry group of the molecule :   c1 

 the group has the following generators :
   c1(z)

    1 symmetry operations found

 there are 1 real representations :   a   


   =========================================================================


     restricted closed shell calculation for the wavefunction models:
               MP2        - Second Order Moeller Plesset PT


     global parameters for ricc2 program:

        hard restart (reuse of interm.) :  enabled 
        soft restart (reuse of vectors) :  disabled
        threshold for vector function   :    0.100000E-05
        convergence threshold energy    :    0.100000E-06
        linear dependence threshold     :    0.100000E-13
        global print level              :      1
        maximum number of iterations    :   100
        maximum number DIIS vectors     :    10
        max. dim. of reduced space      :   100
        core memory limit (MB)          : *****


     MP2 energy only: Energy will be calculated directly from T2 amplitudes!

     Scratch Directory : 


   =========================================================================

    der. integral neglect threshold  :  0.10E-07
    integral neglect threshold       :  0.11E-11
    integral storage threshold THIZE :  0.10E-04
    integral storage threshold THIME :         5


                  +------------------------------------------+
                  |     Auxiliary basis set information      |
                  +------------------------------------------+

              we will work with the 1s 3p 5d 7f 9g ... basis set
              ...i.e. with spherical basis functions...

   type   atoms  prim   cont   basis
   ---------------------------------------------------------------------------
    c       22    132    132   cc-pVQZ   [8s7p6d5f3g1h|8s7p6d5f3g1h]
    n        4    132    132   cc-pVQZ   [8s7p6d5f3g1h|8s7p6d5f3g1h]
    o        4    132    132   cc-pVQZ   [8s7p6d5f3g1h|8s7p6d5f3g1h]
    h       28     55     55   cc-pVQZ   [5s4p3d2f1g|5s4p3d2f1g]
   ---------------------------------------------------------------------------
   total:   58   5500   5500
   ---------------------------------------------------------------------------

   total number of primitive shells          :  105
   total number of contracted shells         : 1320
   total number of cartesian basis functions : 7390
   total number of SCF-basis functions       : 5500


 maximum number of shells which are related by symmetry :  1


 The symmetry information takes   1 MB

*---------------------------------------------------------------------*
|               simplified C1 algorithm will be applied               |
*---------------------------------------------------------------------*
  MOs are in ASCII format !


 reading orbital data $scfmo  from file mos
 orbital characterization : scfconv=9



              +--------------------------------------------+
              | list of orbitals that will be kept frozen: |
              +--------------------------------------------+
              |   irrep   index      energy     occ/vir    |
              +--------------------------------------------+
              |   a         1      -20.5369     occupied   |
              |   a         2      -20.5313     occupied   |
              |   a         3      -20.5162     occupied   |
              |   a         4      -20.5075     occupied   |
              |   a         5      -15.6065     occupied   |
              |   a         6      -15.5814     occupied   |
              |   a         7      -15.5805     occupied   |
              |   a         8      -15.5689     occupied   |
              |   a         9      -11.3786     occupied   |
              |   a        10      -11.3636     occupied   |
              |   a        11      -11.3547     occupied   |
              |   a       ...        ...        occupied   |
              |   a        30      -11.2265     occupied   |
              +--------------------------------------------+



   Molecular Orbital Statistic:
   ============================

   -----------------------------
   orbitals in total:
   -----------------------------
    frozen occupied :     30
    active occupied :     80
    active virtual  :   2380
    frozen virtual  :      0
    all together    :   2490
   -----------------------------


     time in riccmos       cpu: 23.14 sec    wall:  7.44 sec    ratio:  3.1

     total memory allocated for calculation of (Q|P)**(-1/2) : 347 MiB


     calculation of (P|Q) ...
     time in lp2sym        cpu: 31.51 sec    wall:  1.16 sec    ratio: 27.2


     calculation of the Cholesky decomposition of (P|Q)**(-1) ...

  ----------------------------------------------------------------------------
  hard_restart flag is disabled because the check sum for the
  (P|Q)**(-1/2) "$chkCCVPQ_ISQR" differs from the reference value:
  reference value:     34039.4561192104    
  computed value :     34039.4561172858    
  relative error :    0.565394117269438E-10
  tolerance      :    0.100000000000000E-11
  the calculation will proceed...
  ----------------------------------------------------------------------------
     time in invmetri      cpu:  7 min 26 s  wall:  0 min 18 s  ratio: 24.9

   threshold for RMS(d[D]) in SCF was     :  0.10E-06
   integral neglect threshold             :  0.11E-11
   derivative integral neglect threshold  :  0.10E-07


   =========================================================================

     Energy of reference wave function is -1367.3218424530000
     Maximum orbital residual is           0.4965271214464E-06


     Number of symmetry-nonredundant auxiliary basis functions:     5500

     Block lengths for integral files:
        frozen occupied (BOI):        2 MiB
        active occupied (BJI):        4 MiB
        active virtual  (BAI):      100 MiB
        frozen virtual  (BGI):        0 MiB
               general  (BTI):      105 MiB

   =========================================================================




   **************************************************************************
   *                                                                        *
   *          OPTIMIZATION OF THE GROUND STATE CLUSTER AMPLITUDES           *
   *                                                                        *
   **************************************************************************


   Iter.   MP2 energy       Norm(Omega)   Norm(t1)  Norm(t2)     cpu    wall
   ...........................................................................
    1  -1373.0006942186     ------          0.00000   0.78085  450.56   17.34
   ...........................................................................


     time in total         cpu:  7 h 30 min  wall:  0 h 17 min  ratio: 26.0


     **********************************************************************
     *                                                                    *
     *   RHF  energy                             :  -1367.3218424530      *
     *   MP2 correlation energy (doubles)        :     -5.6788517656      *
     *                                                                    *
     *   Final MP2 energy                        :  -1373.0006942186      *
     *                                                                    *
     *    E(S)   =     -3.5684899896      E(T)   =     -2.1103617760      *
     *    E(OS)  =     -4.2719439150      E(SS)  =     -1.4069078506      *
     *                                                                    *
     *   SCS-MP2 energy                          :  -1372.9171444345      *
     *   (computed with  C(OS) =   1.2000  and  C(SS) =   0.3333)         *
     *                                                                    *
     *   SOS-MP2 energy                          :  -1372.8753695425      *
     *   (computed with  C(OS) =   1.3000)                                *
     *                                                                    *
     *   Norm of MP1 T2 amplitudes               :      0.7808479192      *
     *                                                                    *
     **********************************************************************



    ------------------------------------------------------------------------
         total  cpu-time :  8 hours 39 minutes and 46 seconds
         total wall-time : 28 minutes and 15 seconds
    ------------------------------------------------------------------------

   ****  ricc2 : all done  ****


    2019-04-01 11:47:48.685 

