Using Slurm to start processes with PMI2
STARTING ridft ON 12 PROCESSORS!
RUNNING PROGRAM /beegfs/modfac/apps/TURBOMOLE/7.0_intel_GA/bin/em64t-unknown-linux-gnu_mpi/ridft_mpi.
PLEASE WAIT UNTIL ridft HAS FINISHED.
Look for the output in slave1.output.
  this is node-proc. number 1 running on node c-3-342.local
  the total number of node-proc. spawned is           12
  parallel platform: MPP, or cluster with fast interconnect

 ridft (c-3-342.local) : TURBOMOLE V7.0.2( ) 15 Jan 2016 at 17:47:42
 Copyright (C) 2016 TURBOMOLE GmbH, Karlsruhe


    2017-11-26 14:47:47.235 



                                  r i d f t

                        DFT program with RI approximation 
                                for coulomb part 




                                                 
                                 References:     
                                                 
          TURBOMOLE:                             
              R. Ahlrichs, M. Baer, M. Haeser, H. Horn, and
              C. Koelmel
              Electronic structure calculations on workstation
              computers: the program system TURBOMOLE
              Chem. Phys. Lett. 162: 165 (1989)
          Density Functional:                              
              O. Treutler and R. Ahlrichs                      
              Efficient Molecular Numerical Integration Schemes
              J. Chem. Phys. 102: 346 (1995)                   
          Parallel Version:                                
              Performance of parallel TURBOMOLE for Density    
              Functional Calculations                          
              M. v. Arnim and R. Ahlrichs                      
              J. Comp. Chem. 19: 1746 (1998)                   
          RI-J Method:                                     
              Auxiliary Basis Sets to approximate Coulomb      
              Potentials                                       
              Chem. Phys. Lett. 240: 283 (1995)                
              K. Eichkorn, O. Treutler, H. Oehm, M. Haeser     
              and R. Ahlrichs                                  
              Chem. Phys. Lett. 242: 652 (1995)                
                                                           
              Auxiliary Basis Sets for Main Row Atoms and their
              Use to approximate Coulomb Potentials            
              K. Eichkorn, F. Weigend, O. Treutler and         
              R. Ahlrichs                                      
              Theo. Chem. Acc. 97: 119 (1997)                   
                                                           
              Accurate Coulomb-fitting basis sets for H to Rn 
              F. Weigend                                        
              Phys. Chem. Chem. Phys. 8: 1057 (2006)            
                                                           
          Multipole accelerated RI-J (MARI-J):             
              Fast evaluation of the Coulomb potential for     
              electron densities using multipole accelerated   
              resolution of identity approximation             
              M. Sierka, A. Hogekamp and R. Ahlrichs           
              J. Chem. Phys. 118: 9136 (2003)                  
          RI-JK Method:                                     
              A fully direct RI-HF algorithm: Implementation,
              optimised auxiliary basis sets, demonstration of
              accuracy and efficiency                         
              F. Weigend                                      
              Phys. Chem. Chem. Phys. 4: 4285 (2002)           
          Two-component HF and DFT with spin-orbit coupling:  
              Self-consistent treatment of spin-orbit         
              interactions with efficient Hartree-Fock and    
              density functional methods                      
              M. K. Armbruster, F. Weigend, C. van Wüllen and 
              W. Klopper                                      
              Phys. Chem. Chem. Phys. 10: 1748 (2008)         
          Relativistic all-electron 2c calculations           
              An efficient implementation of two-component    
              relativistic exact-decoupling methods for large 
              molecules                                       
              D. Peng, N. Middendorf, F. Weigend, M. Reiher   
              J. Chem. Phys. 138, 184105 (2013)               
                                         


 


              +--------------------------------------------------+
              |      general information about current run       |
              +--------------------------------------------------+

 

 SCF run will be profiled !


 DENSITY CONVERGENCE CHECK SWITCHED ON !
 SCF CONVERGENCE IF RMS(delta[D]) <     0.1000000000E-06

 PBE functional
 exchange:    LDA + PBE
 correlation: LDA (PW) + PBE
 A DFT calculation using the RI-J approximation will be carried out.
 Allocatable memory for RI due to $ricore (MB):       10000


              +--------------------------------------------------+
              | Atomic coordinate, charge and isotop information |
              +--------------------------------------------------+

                    atomic coordinates            atom    charge  isotop
         -0.45351847    2.40216059   15.73924984    n      7.000     0
          4.78470212    9.46324004  -11.89419133    n      7.000     0
         -4.93612740   -9.11525848   14.70663949    c      6.000     0
         -3.83018793  -10.62754060   15.56964417    h      1.000     0
         -6.91669198   -9.38212519   15.22008015    h      1.000     0
         -3.97138851   -6.53666496   15.49383132    c      6.000     0
         -1.73382680   -6.31528504   16.87671486    c      6.000     0
         -0.67895034   -7.99392149   17.41252003    h      1.000     0
         -0.86678152   -3.94307515   17.64518763    c      6.000     0
          0.84882955   -3.81391132   18.76662406    h      1.000     0
         -2.22665230   -1.76291231   17.04049384    c      6.000     0
         -4.47823625   -1.98824725   15.66248408    c      6.000     0
         -5.60025350   -0.32399502   15.22585216    h      1.000     0
         -5.34071803   -4.34830345   14.89776131    c      6.000     0
         -7.11943831   -4.48095149   13.87885535    h      1.000     0
         -1.31149259    0.80349653   17.92128423    c      6.000     0
         -2.80492131    1.86552860   18.86943477    h      1.000     0
          0.28533389    0.62884699   19.21524890    h      1.000     0
          1.78063803    1.87566576   14.59214300    c      6.000     0
          2.89744094    0.38234346   15.43778288    h      1.000     0
          2.52385592    3.15128902   12.45292925    c      6.000     0
          4.30176774    2.62704556   11.58250934    h      1.000     0
          0.96058303    5.01842009   11.36078552    c      6.000     0
         -1.29118807    5.58613988   12.67131072    c      6.000     0
         -2.53414269    7.08556011   12.03808211    h      1.000     0
         -1.94817452    4.27329559   14.82224562    c      6.000     0
         -3.65695699    4.66725888   15.87963300    h      1.000     0
          1.60480603    6.20267407    8.94108081    c      6.000     0
          4.12796567    6.39857521    8.11493253    c      6.000     0
          5.66990616    5.90321484    9.37489308    h      1.000     0
          4.68900732    7.29428041    5.71717898    c      6.000     0
          6.65396348    7.47474510    5.15884019    h      1.000     0
          2.75666437    7.99416080    4.02603031    c      6.000     0
          0.24592047    7.90174711    4.89777395    c      6.000     0
         -1.29120293    8.41670028    3.64230610    h      1.000     0
         -0.31991793    7.03988666    7.30635511    c      6.000     0
         -2.28736395    6.90165040    7.87110447    h      1.000     0
          3.30593367    8.65639870    1.37011697    c      6.000     0
          5.39559907    7.58575267    0.12137745    c      6.000     0
          6.66958954    6.34444460    1.14139587    h      1.000     0
          5.79436874    7.98548174   -2.43705766    c      6.000     0
          7.37096694    7.04383963   -3.35172446    h      1.000     0
          4.09832817    9.45356886   -3.86752390    c      6.000     0
          2.06789614   10.61896514   -2.60000996    c      6.000     0
          0.80204953   11.87691243   -3.61275788    h      1.000     0
          1.69481680   10.24301408   -0.03366689    c      6.000     0
          0.14589346   11.21224628    0.89740763    h      1.000     0
          4.37186289    9.61346932   -6.61934645    c      6.000     0
          6.72738171    9.33170236   -7.83702572    c      6.000     0
          8.46477400    9.19686350   -6.76114644    h      1.000     0
          6.88442407    9.26291981  -10.43571864    c      6.000     0
          8.66221682    9.05851753  -11.43120949    h      1.000     0
          2.49833395    9.84634649  -10.79391074    c      6.000     0
          0.90426557   10.02067643  -12.06708127    h      1.000     0
          2.25380408    9.94890983   -8.20826851    c      6.000     0
          0.38063967   10.21040723   -7.42325792    h      1.000     0
          0.45381173   -2.40259142  -15.73950849    n      7.000     0
         -4.78402753   -9.46284449   11.89408988    n      7.000     0
          4.93696314    9.11496783  -14.70653005    c      6.000     0
          3.83157732   10.62728186  -15.57021078    h      1.000     0
          6.91767645    9.38108125  -15.21987413    h      1.000     0
          3.97157968    6.53640173  -15.49308498    c      6.000     0
          1.73754536    6.31565265  -16.88166887    c      6.000     0
          0.68508590    7.99464674  -17.42108819    h      1.000     0
          0.87044796    3.94340011  -17.65012554    c      6.000     0
         -0.84282287    3.81450003  -18.77515964    h      1.000     0
          2.22680325    1.76270804  -17.03968182    c      6.000     0
          4.47458885    1.98734706  -15.65531810    c      6.000     0
          5.59327428    0.32239581  -15.21283137    h      1.000     0
          5.33708858    4.34736514  -14.89062842    c      6.000     0
          7.11248989    4.47933073  -13.86586392    h      1.000     0
          1.31223571   -0.80372344  -17.92106851    c      6.000     0
          2.80616178   -1.86545423  -18.86881304    h      1.000     0
         -0.28408521   -0.62904062  -19.21567146    h      1.000     0
         -1.77929069   -1.87423703  -14.59114634    c      6.000     0
         -2.89472650   -0.37917538  -15.43552320    h      1.000     0
         -2.52285356   -3.15004520  -12.45220055    c      6.000     0
         -4.29967128   -2.62420671  -11.58051726    h      1.000     0
         -0.96086712   -5.01912074  -11.36145588    c      6.000     0
          1.28969523   -5.58861098  -12.67321796    c      6.000     0
          2.53174691   -7.08914314  -12.04083712    h      1.000     0
          1.94702101   -4.27556671  -14.82396610    c      6.000     0
          3.65500078   -4.67064550  -15.88223948    h      1.000     0
         -1.60537537   -6.20366969   -8.94197087    c      6.000     0
         -4.12843498   -6.39696860   -8.11486815    c      6.000     0
         -5.67029436   -5.89990334   -9.37425414    h      1.000     0
         -4.68951225   -7.29223423   -5.71696893    c      6.000     0
         -6.65444913   -7.47020504   -5.15775121    h      1.000     0
         -2.75728513   -7.99419003   -4.02655945    c      6.000     0
         -0.24672505   -7.90398054   -4.89910199    c      6.000     0
          1.29035320   -8.41979895   -3.64393843    h      1.000     0
          0.31910647   -7.04262223   -7.30787323    c      6.000     0
          2.28650472   -6.90615178   -7.87323556    h      1.000     0
         -3.30640593   -8.65602599   -1.37051643    c      6.000     0
         -5.39476753   -7.58347223   -0.12125718    c      6.000     0
         -6.66828683   -6.34154486   -1.14111696    h      1.000     0
         -5.79316313   -7.98268999    2.43730570    c      6.000     0
         -7.36853441   -7.03946680    3.35244707    h      1.000     0
         -4.09806843   -9.45231199    3.86734276    c      6.000     0
         -2.06925220  -10.61986942    2.59925565    c      6.000     0
         -0.80444981  -11.87918807    3.61160521    h      1.000     0
         -1.69649548  -10.24428581    0.03280355    c      6.000     0
         -0.14909862  -11.21541351   -0.89882770    h      1.000     0
         -4.37153458   -9.61256987    6.61915484    c      6.000     0
         -6.72671001   -9.32834855    7.83701065    c      6.000     0
         -8.46401031   -9.19185560    6.76120307    h      1.000     0
         -6.88358245   -9.25994971   10.43569066    c      6.000     0
         -8.66117845   -9.05411018   11.43122943    h      1.000     0
         -2.49817030   -9.84828320   10.79363788    c      6.000     0
         -0.90425194  -10.02509685   12.06664781    h      1.000     0
         -2.25381315   -9.95049080    8.20793214    c      6.000     0
         -0.38096082  -10.21414646    7.42289133    h      1.000     0
 
       center of nuclear mass  :   -0.00000537    0.00001263   -0.00004497
       center of nuclear charge:   -0.00000441    0.00001086   -0.00003875

              +--------------------------------------------------+
              |               basis set information              |
              +--------------------------------------------------+

              we will work with the 1s 3p 5d 7f 9g ... basis set
              ...i.e. with spherical basis functions...

   type   atoms  prim   cont   basis
   ---------------------------------------------------------------------------
    n        4     77     55   cc-pVQZ   [5s4p3d2f1g|21s6p3d2f1g]
    c       60     77     55   cc-pVQZ   [5s4p3d2f1g|21s6p3d2f1g]
    h       48     32     30   cc-pVQZ   [4s3p2d1f|6s3p2d1f]
   ---------------------------------------------------------------------------
   total:  112   6464   4960
   ---------------------------------------------------------------------------

   total number of primitive shells          :   78
   total number of contracted shells         : 1440
   total number of cartesian basis functions : 6160
   total number of SCF-basis functions       : 4960


 integral neglect threshold       :  0.54E-14
 integral storage threshold THIZE :  0.10E-04
 integral storage threshold THIME :         5

 RI-J AUXILIARY BASIS SET information:

              we will work with the 1s 3p 5d 7f 9g ... basis set
              ...i.e. with spherical basis functions...

   type   atoms  prim   cont   basis
   ---------------------------------------------------------------------------
    n        4     70     49   cc-pVQZ   [6s4p3d1f1g|12s5p4d2f1g]
    c       60     70     49   cc-pVQZ   [6s4p3d1f1g|12s5p4d2f1g]
    h       48     16     11   cc-pVQZ   [3s1p1d|5s2p1d]
   ---------------------------------------------------------------------------
   total:  112   5248   3664
   ---------------------------------------------------------------------------

   total number of primitive shells          :   56
   total number of contracted shells         : 1200
   total number of cartesian basis functions : 4480
   total number of SCF-basis functions       : 3664


 symmetry group of the molecule :   c1 

 the group has the following generators :
   c1(z)

    1 symmetry operations found

 there are 1 real representations :   a   

 maximum number of shells which are related by symmetry :  1


    mo occupation :
   irrep   mo's   occupied
    a     4960      216
 
 number of basis functions   :         4960
 number of occupied orbitals :          216
 
  
           ------------------
           density functional
           ------------------
 PBE functional
 exchange:    LDA + PBE
 correlation: LDA (PW) + PBE
 grinp -> nfun, dfgga, dfhybrid 
           6 T F
 iterations will be done with small grid
  
 spherical integration : Lebedev's spherical grid
 spherical gridsize    :           5
    i.e. gridpoints    :         590
 value for diffuse not defined
 radial integration    : Chebyshev 2nd kind (scaling 3)
 radial gridsize       :           8
 integration cells     :         112
 partition function    : becke
 partition sharpness   :           3
  

 <rddim> : input of entry tasksize
           from data group '$pardft' failed !

               Default values taken

 <rddim> : input of entry memdiv
           from data group '$pardft' failed !

               Default values taken
  RIDFT: memory allocation for DFT gridpoints
  MEMORY is divided by 1 as DEFAULT
 Each node can hold at most  the            1 -th part
 of the gridpoints    

 biggest AO integral is expected to be     4.161848376
  
           ------------------------
               RI-J - INFORMATION
           ------------------------
 
 
 **************************************************
 *      MEMORY ALLOCATION FOR PARALLEL RI-DFT     *
 **************************************************
 
 
MEMORY FOR (MU NU/ ALPHA), SEQUENTIAL RUN               9888 MByte
 
            DIFFERENCE IN MEMORY NEED:       DIAG./SLAVE  
 
      TOTAL DIFFERENCE :                   1111 MByte
 
      difference in xcore:                  113 MByte
      difference in fatmat:                 333 MByte
      getcor calls skipped by slaves:       666 MByte
 
 
           Integral memory available for diagonal.      9888 MByte
 
           Integral memory available for slave             0 MByte
 
         MEMORY FOR (MU NU/ ALPHA) ON DIAGONALIZER      9888 MByte
 
         MEMORY FOR (MU NU/ ALPHA) ON ONE SLAVE            0 MByte
 
         TOTAL MEMORY FOR (MU NU/ ALPHA),ALL NODES      9888 MByte
 
 Contributions to RI integral batches: 
  neglected integral batches:      798859
  direct contribution:             175857
  memory contribution:       62804
 Memory core needed for (P|Q) and Cholesky    103 MByte
 Memory core minimum needed except of (P|Q)    13 MByte
 Total minimum memory core needed (sum)       115 MByte
     number of direct tasks:         240
  
 ****************************************
 Memory allocated for RI-J 10002 MByte
 ****************************************
                                            

          ------------------------
          nuclear repulsion energy  :   7673.59274149    
          ------------------------

 
          -----------------
          -S integrals
          -----------------

 1e-integrals will be neglected if expon. factor < 0.542526E-15
 
          -----------------
          -T+V integrals
          -----------------

 1e-integrals will be neglected if expon. factor < 0.542526E-15
 Difference densities >>NOT<< switched on in parallel ridft!

 automatic virtual orbital shift switched on 
      shift if e(lumo)-e(homo) < 0.10000000    


 DIIS switched on: error vector is FDS-SDF
 Max. Iterations for DIIS is     :   4
 DIIS matrix (see manual) 
    Scaling factor of diagonals  :  1.200
    threshold for scaling factor :  0.000

 scf convergence criterion : increment of total energy < .1000000D-08
                  and increment of one-electron energy < .1000000D-05

  MOs are in ASCII format !


 reading orbital data $scfmo  from file mos . 

 orbital characterization : expanded
 
 mo provided and orthogonalized by Cholesky decomposition

 DSCF restart information will be dumped onto file mos


 Starting SCF iterations


 ITERATION  ENERGY          1e-ENERGY        2e-ENERGY     RMS[dD(SAO)]   TOL
   1  -2522.6946003150    -18455.193369     8258.9060272    0.000D+00 0.541D-14
                            Exc = -357.054102559     Coul =  8615.96012978    
                              N = 431.99992118    
                            current damping = 0.700
 
          max. resid. norm for Fia-block=  3.163D-01 for orbital      1a         
          max. resid. fock norm         =  6.572D+00 for orbital   4502a         

 ITERATION  ENERGY          1e-ENERGY        2e-ENERGY     RMS[dD(SAO)]   TOL
   2  -2529.2143053122    -18534.882863     8332.0758165    0.363D-02 0.541D-14
                            Exc = -363.619176304     Coul =  8695.69499282    
                              N = 431.99993587    
                            current damping = 0.650
 
          Norm of current diis error:  9.1083    
          max. resid. norm for Fia-block=  1.342D-01 for orbital      2a         
          max. resid. fock norm         =  1.514D-01 for orbital    249a         

 ITERATION  ENERGY          1e-ENERGY        2e-ENERGY     RMS[dD(SAO)]   TOL
   3  -2530.5040664637    -18552.958344     8348.8615365    0.118D-02 0.541D-14
                            Exc = -365.403344439     Coul =  8714.26488096    
                              N = 431.99994653    
                            current damping = 0.550
 
          Norm of current diis error:  4.3459    
          max. resid. norm for Fia-block=  5.541D-02 for orbital     78a         
          max. resid. fock norm         =  6.271D-02 for orbital     78a         

 ITERATION  ENERGY          1e-ENERGY        2e-ENERGY     RMS[dD(SAO)]   TOL
   4  -2530.8779934188    -18568.241497     8363.7707626    0.503D-03 0.541D-14
                            Exc = -366.597724441     Coul =  8730.36848700    
                              N = 431.99995912    
                            current damping = 0.450
 
          Norm of current diis error:  1.6517    
          max. resid. norm for Fia-block=  2.193D-02 for orbital     68a         
          max. resid. fock norm         =  2.668D-02 for orbital    384a         

 ITERATION  ENERGY          1e-ENERGY        2e-ENERGY     RMS[dD(SAO)]   TOL
   5  -2530.9393636874    -18571.031990     8366.4998849    0.244D-03 0.541D-14
                            Exc = -366.971260318     Coul =  8733.47114524    
                              N = 431.99996278    
                            current damping = 0.350
 
          Norm of current diis error: 0.72133    
          max. resid. norm for Fia-block=  1.006D-02 for orbital     68a         
          max. resid. fock norm         =  1.479D-02 for orbital   4117a         
          mo-orthogonalization: Cholesky decomposition

 ITERATION  ENERGY          1e-ENERGY        2e-ENERGY     RMS[dD(SAO)]   TOL
   6  -2530.9445157062    -18574.835417     8370.2981597    0.105D-03 0.541D-14
                            Exc = -367.241173236     Coul =  8737.53933293    
                              N = 431.99996644    
                            current damping = 0.250
 
          Norm of current diis error: 0.61505    
          max. resid. norm for Fia-block=  5.273D-03 for orbital    197a         
          max. resid. fock norm         =  1.068D-02 for orbital   4746a         

 ITERATION  ENERGY          1e-ENERGY        2e-ENERGY     RMS[dD(SAO)]   TOL
   7  -2530.9519762235    -18574.789780     8370.2450623    0.402D-04 0.541D-14
                            Exc = -367.232425838     Coul =  8737.47748810    
                              N = 431.99996631    
                            current damping = 0.300
 
          Norm of current diis error: 0.19127    
          max. resid. norm for Fia-block=  2.109D-03 for orbital    198a         
          max. resid. fock norm         =  3.495D-03 for orbital     87a         

 ITERATION  ENERGY          1e-ENERGY        2e-ENERGY     RMS[dD(SAO)]   TOL
   8  -2530.9524883281    -18574.116475     8369.5712453    0.158D-04 0.541D-14
                            Exc = -367.224482267     Coul =  8736.79572753    
                              N = 431.99996626    
                            current damping = 0.200
 
          Norm of current diis error: 0.12104    
          max. resid. norm for Fia-block=  8.919D-04 for orbital    215a         
          max. resid. fock norm         =  1.916D-03 for orbital   4898a         
          irrep a   : virtual orbitals shifted by    0.00421

 ITERATION  ENERGY          1e-ENERGY        2e-ENERGY     RMS[dD(SAO)]   TOL
   9  -2530.9527415043    -18574.393014     8369.8475313    0.646D-05 0.541D-14
                            Exc = -367.230628007     Coul =  8737.07815933    
                              N = 431.99996641    
                            current damping = 0.250
 
          Norm of current diis error: 0.50990E-01
          max. resid. norm for Fia-block=  6.052D-04 for orbital    215a         
          max. resid. fock norm         =  1.297D-03 for orbital   4898a         

 ITERATION  ENERGY          1e-ENERGY        2e-ENERGY     RMS[dD(SAO)]   TOL
  10  -2530.9527805858    -18574.512225     8369.9667025    0.371D-05 0.541D-14
                            Exc = -367.235215598     Coul =  8737.20191813    
                              N = 431.99996638    
                            current damping = 0.100
 
          Norm of current diis error: 0.29610E-01
          max. resid. norm for Fia-block=  3.256D-04 for orbital    215a         
          max. resid. fock norm         =  6.856D-04 for orbital   4898a         
          irrep a   : virtual orbitals shifted by    0.01202
          mo-orthogonalization: Cholesky decomposition

 ITERATION  ENERGY          1e-ENERGY        2e-ENERGY     RMS[dD(SAO)]   TOL
  11  -2530.9527951311    -18574.437059     8369.8915228    0.187D-05 0.541D-14
                            Exc = -367.232474546     Coul =  8737.12399738    
                              N = 431.99996639    
                            current damping = 0.150
 
          Norm of current diis error: 0.15301E-01
          max. resid. norm for Fia-block=  1.193D-04 for orbital    216a         
          max. resid. fock norm         =  2.721D-04 for orbital   4902a         
          irrep a   : virtual orbitals shifted by    0.00796

 ITERATION  ENERGY          1e-ENERGY        2e-ENERGY     RMS[dD(SAO)]   TOL
  12  -2530.9527997130    -18574.444790     8369.8992487    0.739D-06 0.541D-14
                            Exc = -367.232278193     Coul =  8737.13152689    
                              N = 431.99996640    
                            current damping = 0.200
 
          Norm of current diis error: 0.42838E-02
          max. resid. norm for Fia-block=  4.692D-05 for orbital    202a         
          max. resid. fock norm         =  1.027D-04 for orbital   4918a         
          irrep a   : virtual orbitals shifted by    0.00400

 ITERATION  ENERGY          1e-ENERGY        2e-ENERGY     RMS[dD(SAO)]   TOL
  13  -2530.9527998163    -18574.450447     8369.9049056    0.311D-06 0.541D-14
                            Exc = -367.232934118     Coul =  8737.13783972    
                              N = 431.99996640    
                            current damping = 0.050
 
          Norm of current diis error: 0.37109E-02
          max. resid. norm for Fia-block=  2.720D-05 for orbital    197a         
          max. resid. fock norm         =  6.121D-05 for orbital   4746a         
          irrep a   : virtual orbitals shifted by    0.01597

 ITERATION  ENERGY          1e-ENERGY        2e-ENERGY     RMS[dD(SAO)]   TOL
  14  -2530.9528000906    -18574.449302     8369.9037602    0.191D-06 0.541D-14
                            Exc = -367.232660387     Coul =  8737.13642063    
                              N = 431.99996639    
                            current damping = 0.100
 
          Norm of current diis error: 0.13743E-02
          max. resid. norm for Fia-block=  1.247D-05 for orbital    197a         
          max. resid. fock norm         =  2.303D-05 for orbital   4549a         
          irrep a   : virtual orbitals shifted by    0.01198

 DENSITY CONVERGED !


 ITERATION  ENERGY          1e-ENERGY        2e-ENERGY     RMS[dD(SAO)]   TOL
  15  -2530.9528001185    -18574.447807     8369.9022659    0.747D-07 0.541D-14
                            Exc = -367.232665346     Coul =  8737.13493120    
                              N = 431.99996640    
                            current damping = 0.050
 
          Norm of current diis error: 0.75251E-03
          max. resid. norm for Fia-block=  6.139D-06 for orbital    197a         
          max. resid. fock norm         =  1.235D-05 for orbital   4909a         
          irrep a   : virtual orbitals shifted by    0.01598
          mo-orthogonalization: Cholesky decomposition

 DENSITY CONVERGED !


 ITERATION  ENERGY          1e-ENERGY        2e-ENERGY     RMS[dD(SAO)]   TOL
  16  -2530.9528001276    -18574.448648     8369.9031064    0.400D-07 0.541D-14
                            Exc = -367.232660554     Coul =  8737.13576694    
                              N = 431.99996640    
                            current damping = 0.100
 
          Norm of current diis error: 0.36469E-03
          max. resid. norm for Fia-block=  3.372D-06 for orbital    215a         
          max. resid. fock norm         =  7.862D-06 for orbital   4898a         
          irrep a   : virtual orbitals shifted by    0.01198

 DENSITY CONVERGED !


 ITERATION  ENERGY          1e-ENERGY        2e-ENERGY     RMS[dD(SAO)]   TOL
  17  -2530.9528001295    -18574.448508     8369.9029663    0.208D-07 0.541D-14
                            Exc = -367.232665279     Coul =  8737.13563157    
                              N = 431.99996640    
                            current damping = 0.150
 
          Norm of current diis error: 0.20314E-03
          max. resid. norm for Fia-block=  2.367D-06 for orbital    215a         
          max. resid. fock norm         =  5.505D-06 for orbital   4898a         
          irrep a   : virtual orbitals shifted by    0.00798

 DENSITY CONVERGED !


 ITERATION  ENERGY          1e-ENERGY        2e-ENERGY     RMS[dD(SAO)]   TOL
  18  -2530.9528001302    -18574.448420     8369.9028785    0.129D-07 0.541D-14
                            Exc = -367.232664718     Coul =  8737.13554326    
                              N = 431.99996640    
                            current damping = 0.050
 
          Norm of current diis error: 0.10425E-03
          max. resid. norm for Fia-block=  1.048D-06 for orbital    215a         
          max. resid. fock norm         =  2.254D-06 for orbital   4898a         
          irrep a   : virtual orbitals shifted by    0.01598

 DENSITY CONVERGED !


 ITERATION  ENERGY          1e-ENERGY        2e-ENERGY     RMS[dD(SAO)]   TOL
  19  -2530.9528001305    -18574.448492     8369.9029504    0.601D-08 0.541D-14
                            Exc = -367.232664018     Coul =  8737.13561446    
                              N = 431.99996640    
                            current damping = 0.100
 
          Norm of current diis error: 0.43147E-04
          max. resid. norm for Fia-block=  3.414D-07 for orbital    163a         
          max. resid. fock norm         =  8.565D-07 for orbital     73a         
          irrep a   : virtual orbitals shifted by    0.01198

 ENERGY & DENSITY CONVERGED !


 ITERATION  ENERGY          1e-ENERGY        2e-ENERGY     RMS[dD(SAO)]   TOL
  20  -2530.9527451405    -18574.448470     8369.9029831    0.287D-08 0.541D-14
                            Exc = -367.232609970     Coul =  8737.13559304    
                              N = 431.99996905    
                            current damping = 0.150
 
          Norm of current diis error: 0.21090E-04
          max. resid. norm for Fia-block=  1.920D-07 for orbital    202a         
          max. resid. fock norm         =  3.518D-07 for orbital   4919a         

 End of SCF iterations

   convergence criteria satisfied after   20 iterations


                  ------------------------------------------ 
                 |  total energy      =  -2530.95274514052  |
                  ------------------------------------------ 
                 :  kinetic energy    =   2518.94118935640  :
                 :  potential energy  =  -5049.89393449692  :
                 :  virial theorem    =      1.99525413669  :
                 :  wavefunction norm =      1.00000000000  :
                  .......................................... 


 orbitals $scfmo  will be written to file mos

    irrep                212a        213a        214a        215a        216a   
 eigenvalues H         -0.51727    -0.51487    -0.51487    -0.49154    -0.49132
            eV         -14.0756    -14.0104    -14.0103    -13.3755    -13.3697
 occupation              2.0000      2.0000      2.0000      2.0000      2.0000 

    irrep                217a        218a        219a        220a        221a   
 eigenvalues H         -0.41130    -0.41065    -0.39911    -0.39821    -0.36979
            eV         -11.1922    -11.1744    -10.8604    -10.8360    -10.0627
 
 
 ! grave: sending quit signal to master process
 
 
 
 
 ==============================================================================
                           electrostatic moments
 ==============================================================================

 reference point for electrostatic moments:    0.00000   0.00000   0.00000

 
              nuc           elec       ->  total
 ------------------------------------------------------------------------------
                          charge      
 ------------------------------------------------------------------------------
         436.000000    -432.000000       4.000000
 
 ------------------------------------------------------------------------------
                       dipole moment  
 ------------------------------------------------------------------------------
   x      -0.001922       0.002367       0.000444
   y       0.004734      -0.004768      -0.000034
   z      -0.016896       0.016767      -0.000129
 
   | dipole moment | =     0.0005 a.u. =     0.0012 debye 
 
 ------------------------------------------------------------------------------
                     quadrupole moment
 ------------------------------------------------------------------------------
  xx    6005.335964   -6174.931851    -169.595887
  yy   22801.649440  -22836.783672     -35.134232
  zz   57231.827216  -56819.745417     412.081799
  xy    8980.336980   -8902.894041      77.442939
  xz   -8054.881182    7958.307118     -96.574065
  yz   -8034.569855    7921.806300    -112.763555
 
     1/3  trace=      69.117227
     anisotropy=     601.942071
 
 ==============================================================================
 

    ridft profiling
  --------------------------------------------------------------------
             module   cpu total (s)       %  wall total (s)       %

               RIDFT          6343.8  100.00          6427.4  100.00
         Ridft_b_scf           420.8    6.63           420.8    6.55
        b_scf_prelim             0.0    0.00             0.0    0.00
        b_scf_molinp             0.0    0.00             0.0    0.00
         b_scf_init0             0.0    0.00             0.0    0.00
        b_scf_auxbas             0.0    0.00             0.0    0.00
      b_scf_symmetry             0.0    0.00             0.0    0.00
         b_scf_cosmo             0.0    0.00             0.0    0.00
        b_scf_params            31.5    0.50            31.5    0.49
          b_scf_ri-j            92.9    1.46            92.9    1.45
    b_scf_ri-j_auxpq            92.8    1.46            92.8    1.44
     ri-j_auxpq_chol             7.2    0.11             7.2    0.11
         b_scf_1elec            11.9    0.19            11.9    0.19
       b_scf_moinput           284.4    4.48           284.4    4.43
     moinput_orthmos           283.1    4.46           283.1    4.41
    b_scf_dft-dstmax             0.0    0.00             0.0    0.00
           Ridft_scf          5919.2   93.31          6002.5   93.39
          Scf_b_loop             0.0    0.00             0.0    0.00
                noga             0.0    0.00             0.0    0.00
            Scf_loop          5902.1   93.04          5981.4   93.06
     scf_loop_mkdmat            64.4    1.02            64.5    1.00
       scf_loop_ri-j          1125.0   17.73          1124.9   17.50
      parlp1.bc.dens             4.9    0.08             4.9    0.08
        parlp1.gs.gp            13.5    0.21            13.5    0.21
        parlp2.bc.gq             0.0    0.00             0.0    0.00
        scf_loop_dft          1577.6   24.87          1579.1   24.57
      pardft.bc.dens             0.0    0.00             0.0    0.00
        dft_grid_con             4.9    0.08             4.9    0.08
           dft_xcrhf          1513.2   23.85          1514.3   23.56
          dft_getval            52.6    0.83            52.6    0.82
          funct2 dst             1.1    0.02             1.1    0.02
      funct2 f2loop1            10.6    0.17            10.6    0.16
      funct2 f2loop2            19.9    0.31            20.0    0.31
          funct2 s+c            20.1    0.32            20.1    0.31
        funct2 cmf_2            18.5    0.29            18.5    0.29
          dft_mkdens           636.5   10.03           637.0    9.91
         dft_gga-fun             0.6    0.01             0.6    0.01
          dft_mkfock           822.6   12.97           823.3   12.81
     pardft.red.fock           159.3    2.51           159.8    2.49
     scf_loop_energy             0.5    0.01             0.5    0.01
     scf_loop_mkfock             0.9    0.01             0.9    0.01
       scf_loop_diis          1864.5   29.39          1864.3   29.01
       scf_loop_diag           711.9   11.22           712.4   11.08
         diag_tritrn           245.5    3.87           245.7    3.82
          diag_rdiag           464.2    7.32           464.6    7.23
     scf_loop_modump           298.6    4.71           376.0    5.85
      scf_loop_ortho           246.5    3.89           246.6    3.84
          Scf_a_loop            17.0    0.27            21.1    0.33
         Ridft_a_scf             3.9    0.06             4.0    0.06
         a_scf_fanal             3.8    0.06             4.0    0.06
 


    ------------------------------------------------------------------------
         total  cpu-time :  1 hours 46 minutes and  5 seconds
         total wall-time :  1 hours 47 minutes and 28 seconds
    ------------------------------------------------------------------------


   ****  ridft : all done  ****


    2017-11-26 16:35:15.494 

