 operating system is UNIX !

 ridft (c-9-371.gp.local) : TURBOMOLE V7.2 ( 21454 ) 4 Oct 2017 at 12:48:15
 Copyright (C) 2017 TURBOMOLE GmbH, Karlsruhe


    2018-05-18 15:36:52.823 



                                  r i d f t

                        DFT program with RI approximation 
                                for coulomb part 




                                                 
                                 References:     
                                                 
          TURBOMOLE:                             
              R. Ahlrichs, M. Baer, M. Haeser, H. Horn, and
              C. Koelmel
              Electronic structure calculations on workstation
              computers: the program system TURBOMOLE
              Chem. Phys. Lett. 162: 165 (1989)
          Density Functional:                              
              O. Treutler and R. Ahlrichs                      
              Efficient Molecular Numerical Integration Schemes
              J. Chem. Phys. 102: 346 (1995)                   
          Parallel Version:                                
              Performance of parallel TURBOMOLE for Density    
              Functional Calculations                          
              M. v. Arnim and R. Ahlrichs                      
              J. Comp. Chem. 19: 1746 (1998)                   
          RI-J Method:                                     
              Auxiliary Basis Sets to approximate Coulomb      
              Potentials                                       
              Chem. Phys. Lett. 240: 283 (1995)                
              K. Eichkorn, O. Treutler, H. Oehm, M. Haeser     
              and R. Ahlrichs                                  
              Chem. Phys. Lett. 242: 652 (1995)                
                                                           
              Auxiliary Basis Sets for Main Row Atoms and their
              Use to approximate Coulomb Potentials            
              K. Eichkorn, F. Weigend, O. Treutler and         
              R. Ahlrichs                                      
              Theo. Chem. Acc. 97: 119 (1997)                   
                                                           
              Accurate Coulomb-fitting basis sets for H to Rn 
              F. Weigend                                        
              Phys. Chem. Chem. Phys. 8: 1057 (2006)            
                                                           
          Multipole accelerated RI-J (MARI-J):             
              Fast evaluation of the Coulomb potential for     
              electron densities using multipole accelerated   
              resolution of identity approximation             
              M. Sierka, A. Hogekamp and R. Ahlrichs           
              J. Chem. Phys. 118: 9136 (2003)                  
          RI-JK Method:                                     
              A fully direct RI-HF algorithm: Implementation,
              optimised auxiliary basis sets, demonstration of
              accuracy and efficiency                         
              F. Weigend                                      
              Phys. Chem. Chem. Phys. 4: 4285 (2002)           
          Two-component HF and DFT with spin-orbit coupling:  
              Self-consistent treatment of spin-orbit         
              interactions with efficient Hartree-Fock and    
              density functional methods                      
              M. K. Armbruster, F. Weigend, C. van Wüllen and 
              W. Klopper                                      
              Phys. Chem. Chem. Phys. 10: 1748 (2008)         
          Relativistic all-electron 2c calculations           
              An efficient implementation of two-component    
              relativistic exact-decoupling methods for large 
              molecules                                       
              D. Peng, N. Middendorf, F. Weigend, M. Reiher   
              J. Chem. Phys. 138, 184105 (2013)               
                                         




              +--------------------------------------------------+
              |      general information about current run       |
              +--------------------------------------------------+

 
 PBE functional
 exchange:    LDA + PBE
 correlation: LDA (PW) + PBE
 A DFT calculation using the RI-J approximation will be carried out.
 Allocatable memory for RI due to $ricore (MB):                   500


              +--------------------------------------------------+
              | Atomic coordinate, charge and isotop information |
              +--------------------------------------------------+

                    atomic coordinates            atom    charge  isotop
          1.58096746    2.10677253    0.43654166    c      6.000     0
          2.80709840    3.74105396    0.40573347    h      1.000     0
          2.61573587   -0.31551874    0.49143629    c      6.000     0
          4.64435004   -0.55990229    0.50278010    h      1.000     0
          1.03458602   -2.42233886    0.54222008    c      6.000     0
          1.83665854   -4.30097733    0.59314100    h      1.000     0
         -1.58107167   -2.10705154    0.53774575    c      6.000     0
         -2.80728932   -3.74084235    0.58524410    h      1.000     0
         -2.61568850    0.31530109    0.48302420    c      6.000     0
         -4.64427540    0.56022683    0.48857084    h      1.000     0
         -1.03462190    2.42215319    0.43270464    c      6.000     0
         -1.83708070    4.30101926    0.39903632    h      1.000     0
 
       center of nuclear mass  :   -0.00002121   -0.00009746    0.48793471
       center of nuclear charge:   -0.00002607   -0.00008371    0.48848908

              +--------------------------------------------------+
              |               basis set information              |
              +--------------------------------------------------+

              we will work with the 1s 3p 5d 7f 9g ... basis set
              ...i.e. with spherical basis functions...

   type   atoms  prim   cont   basis
   ---------------------------------------------------------------------------
    c        6     77     57   def2-QZVP   [7s4p3d2f1g|15s8p3d2f1g]
    h        6     33     30   def2-QZVP   [4s3p2d1f|7s3p2d1f]
   ---------------------------------------------------------------------------
   total:   12    660    522
   ---------------------------------------------------------------------------

   total number of primitive shells          :   42
   total number of contracted shells         :  162
   total number of cartesian basis functions :  642
   total number of SCF-basis functions       :  522


 integral neglect threshold       :  0.52E-13
 integral storage threshold THIZE :  0.10E-04
 integral storage threshold THIME :         5

 RI-J AUXILIARY BASIS SET information:

              we will work with the 1s 3p 5d 7f 9g ... basis set
              ...i.e. with spherical basis functions...

   type   atoms  prim   cont   basis
   ---------------------------------------------------------------------------
    c        6     70     49   def2-QZVP   [6s4p3d1f1g|12s5p4d2f1g]
    h        6     16     11   def2-QZVP   [3s1p1d|5s2p1d]
   ---------------------------------------------------------------------------
   total:   12    516    360
   ---------------------------------------------------------------------------

   total number of primitive shells          :   32
   total number of contracted shells         :  120
   total number of cartesian basis functions :  438
   total number of SCF-basis functions       :  360


 symmetry group of the molecule :   c1 

 the group has the following generators :
   c1(z)

    1 symmetry operations found

 there are 1 real representations :   a   

 maximum number of shells which are related by symmetry :  1


    mo occupation :
   irrep   mo's   occupied
    a      522       21
 
 number of basis functions   :                    522
 number of occupied orbitals :                     21
 
  
           ------------------
           density functional
           ------------------
 PBE functional
 exchange:    LDA + PBE
 correlation: LDA (PW) + PBE

 iterations will be done with small grid
  
 spherical integration : Lebedev's spherical grid
 spherical gridsize    :                     5
    i.e. gridpoints    :                   590
 value for diffuse not defined
 radial integration    : Chebyshev 2nd kind (scaling 3)
 radial gridsize       :                     8
 integration cells     :                    12
 partition function    : becke
 partition sharpness   :                     3
  

 biggest AO integral is expected to be     5.262544080
  
           ------------------------
               RI-J - INFORMATION
           ------------------------
 Contributions to RI integral batches: 
  neglected integral batches:                  1436
  direct contribution:                         2239
  memory contribution:                  9528
 Memory core needed for (P|Q) and Cholesky      1 MByte
 Memory core minimum needed except of (P|Q)     2 MByte
 Total minimum memory core needed (sum)         3 MByte
  
 ****************************************
 Memory allocated for RI-J   432 MByte
 ****************************************
                                            

          ------------------------
          nuclear repulsion energy  :   203.651561686    
          ------------------------


         -----------------
         -S,T+V- integrals
         -----------------

 1e-integrals will be neglected if expon. factor < 0.520555E-14
 
   Difference densities algorithm switched on.
   The maximal number of linear combinations of
   difference densities is                    20 .

 DIIS switched on: error vector is FDS-SDF
 Max. Iterations for DIIS is     :   4
 DIIS matrix (see manual) 
    Scaling factor of diagonals  :  1.200
    threshold for scaling factor :  0.000

 scf convergence criterion : increment of total energy < .1000000D-08
                  and increment of one-electron energy < .1000000D-05

  MOs are in ASCII format !


 automatic virtual orbital shift switched on 
      shift if e(lumo)-e(homo) < 0.10000000    


 reading orbital data $scfmo  from file mos
 orbital characterization : expanded
 mo provided and orthogonalized by Cholesky decomposition

 DSCF restart information will be dumped onto file mos


 Starting SCF iterations

          Overall gridpoints after grid construction =         58202

 ITERATION  ENERGY          1e-ENERGY        2e-ENERGY     NORM[dD(SAO)]  TOL
   1  -231.26028612365    -704.50018074     269.58833293    0.000D+00 0.519D-13
                            Exc = -33.4740865353     Coul =  303.062419467    
                              N = 41.999953406    
                            current damping = 0.700
 
          max. resid. norm for Fia-block=  4.984D-01 for orbital      7a         
          max. resid. fock norm         =  4.683D+01 for orbital    437a         

 ITERATION  ENERGY          1e-ENERGY        2e-ENERGY     NORM[dD(SAO)]  TOL
   2  -231.88033151434    -711.59122507     276.05933187    0.126D+01 0.397D-13
                            Exc = -34.1312341190     Coul =  310.190565989    
                              N = 41.999962873    
                            current damping = 0.650
 
          Norm of current diis error:  2.8760    
          max. resid. norm for Fia-block=  1.154D-01 for orbital      5a         
          max. resid. fock norm         =  1.445D-01 for orbital     61a         

 ITERATION  ENERGY          1e-ENERGY        2e-ENERGY     NORM[dD(SAO)]  TOL
   3  -231.99588662595    -712.89882213     277.25137382    0.498D+00 0.276D-13
                            Exc = -34.3020370745     Coul =  311.553410897    
                              N = 41.999969082    
                            current damping = 0.550
 
          Norm of current diis error:  1.3914    
          max. resid. norm for Fia-block=  5.340D-02 for orbital      7a         
          max. resid. fock norm         =  6.197D-02 for orbital      7a         

 ITERATION  ENERGY          1e-ENERGY        2e-ENERGY     NORM[dD(SAO)]  TOL
   4  -232.02987191275    -714.23272818     278.55129459    0.148D+00 0.227D-13
                            Exc = -34.4287159896     Coul =  312.980010575    
                              N = 41.999972207    
                            current damping = 0.450
 
          Norm of current diis error: 0.50591    
          max. resid. norm for Fia-block=  2.040D-02 for orbital      7a         
          max. resid. fock norm         =  2.297D-02 for orbital      7a         

 ITERATION  ENERGY          1e-ENERGY        2e-ENERGY     NORM[dD(SAO)]  TOL
   5  -232.03526405882    -714.41038633     278.72356058    0.354D-01 0.203D-13
                            Exc = -34.4619175210     Coul =  313.185478103    
                              N = 41.999974201    
                            current damping = 0.300
 
          Norm of current diis error: 0.19142    
          max. resid. norm for Fia-block=  7.334D-03 for orbital      7a         
          max. resid. fock norm         =  8.515D-03 for orbital      7a         
          mo-orthogonalization: Cholesky decomposition

 ITERATION  ENERGY          1e-ENERGY        2e-ENERGY     NORM[dD(SAO)]  TOL
   6  -232.03606776102    -714.74521691     279.05758746    0.133D-01 0.193D-13
                            Exc = -34.4894735185     Coul =  313.547060981    
                              N = 41.999974819    
                            current damping = 0.150
 
          Norm of current diis error: 0.51602E-01
          max. resid. norm for Fia-block=  1.780D-03 for orbital     20a         
          max. resid. fock norm         =  2.928D-03 for orbital     74a         

 ITERATION  ENERGY          1e-ENERGY        2e-ENERGY     NORM[dD(SAO)]  TOL
   7  -232.03611614229    -714.62661567     278.93893784    0.246D-02 0.188D-13
                            Exc = -34.4843252583     Coul =  313.423263102    
                              N = 41.999975143    
                            current damping = 0.200
 
          Norm of current diis error: 0.29382E-01
          max. resid. norm for Fia-block=  6.294D-04 for orbital     12a         
          max. resid. fock norm         =  8.056D-04 for orbital     12a         

 ITERATION  ENERGY          1e-ENERGY        2e-ENERGY     NORM[dD(SAO)]  TOL
   8  -232.03613208168    -714.68540162     278.99770785    0.677D-03 0.186D-13
                            Exc = -34.4880967179     Coul =  313.485804568    
                              N = 41.999975145    
                            current damping = 0.250
 
          Norm of current diis error: 0.12459E-02
          max. resid. norm for Fia-block=  3.933D-05 for orbital      7a         
          max. resid. fock norm         =  4.914D-05 for orbital      7a         

 ITERATION  ENERGY          1e-ENERGY        2e-ENERGY     NORM[dD(SAO)]  TOL
   9  -232.03613211256    -714.68687599     278.99918219    0.696D-04 0.183D-13
                            Exc = -34.4881918582     Coul =  313.487374051    
                              N = 41.999975151    
                            current damping = 0.100
 
          Norm of current diis error: 0.29496E-03
          max. resid. norm for Fia-block=  1.209D-05 for orbital     20a         
          max. resid. fock norm         =  2.822D-05 for orbital    518a         

 ITERATION  ENERGY          1e-ENERGY        2e-ENERGY     NORM[dD(SAO)]  TOL
  10  -232.03613211026    -714.68743212     278.99973832    0.603D-04 0.182D-13
                            Exc = -34.4882417111     Coul =  313.487980035    
                              N = 41.999975153    
                            current damping = 0.150
 
          Norm of current diis error: 0.44200E-03
          max. resid. norm for Fia-block=  7.451D-06 for orbital     20a         
          max. resid. fock norm         =  1.818D-05 for orbital    518a         
          mo-orthogonalization: Cholesky decomposition

 ITERATION  ENERGY          1e-ENERGY        2e-ENERGY     NORM[dD(SAO)]  TOL
  11  -232.03613211465    -714.68736637     278.99967256    0.821D-05 0.181D-13
                            Exc = -34.4882389430     Coul =  313.487911508    
                              N = 41.999975153    
                            current damping = 0.200
 
          Norm of current diis error: 0.68127E-04
          max. resid. norm for Fia-block=  1.756D-06 for orbital     20a         
          max. resid. fock norm         =  2.634D-06 for orbital    518a         

 ITERATION  ENERGY          1e-ENERGY        2e-ENERGY     NORM[dD(SAO)]  TOL
  12  -232.03613211474    -714.68726931     278.99957551    0.310D-05 0.180D-13
                            Exc = -34.4882288375     Coul =  313.487804350    
                              N = 41.999975153    
                            current damping = 0.050
 
          Norm of current diis error: 0.22638E-04
          max. resid. norm for Fia-block=  8.859D-07 for orbital     21a         
          max. resid. fock norm         =  1.815D-06 for orbital    513a         

 ITERATION  ENERGY          1e-ENERGY        2e-ENERGY     NORM[dD(SAO)]  TOL
  13  -232.03613211474    -714.68730343     278.99960963    0.934D-06 0.180D-13
                            Exc = -34.4882310086     Coul =  313.487840641    
                              N = 41.999975153    
                            current damping = 0.100
 
          Norm of current diis error: 0.25495E-04
          max. resid. norm for Fia-block=  4.862D-07 for orbital     21a         
          max. resid. fock norm         =  1.006D-06 for orbital    513a         

 ITERATION  ENERGY          1e-ENERGY        2e-ENERGY     NORM[dD(SAO)]  TOL
  14  -232.03613211475    -714.68729305     278.99959925    0.205D-06 0.179D-13
                            Exc = -34.4882306502     Coul =  313.487829896    
                              N = 41.999975153    
                            current damping = 0.150
 
          Norm of current diis error: 0.17309E-05
          max. resid. norm for Fia-block=  7.912D-08 for orbital     20a         
          max. resid. fock norm         =  1.615D-07 for orbital    518a         

 ITERATION  ENERGY          1e-ENERGY        2e-ENERGY     NORM[dD(SAO)]  TOL
  15  -232.03613211473    -714.68728876     278.99959496    0.963D-07 0.179D-13
                            Exc = -34.4882303270     Coul =  313.487825288    
                              N = 41.999975153    
                            current damping = 0.050
 
          Norm of current diis error: 0.20218E-05
          max. resid. norm for Fia-block=  3.474D-08 for orbital     20a         
          max. resid. fock norm         =  7.145D-08 for orbital    518a         
          mo-orthogonalization: Cholesky decomposition

 ENERGY CONVERGED !

          Overall gridpoints after grid construction =        188438

 ITERATION  ENERGY          1e-ENERGY        2e-ENERGY     NORM[dD(SAO)]  TOL
  16  -232.03612098497    -714.68729064     278.99960797    0.921D-08 0.178D-13
                            Exc = -34.4882193361     Coul =  313.487827302    
                              N = 42.000001532    
                            current damping = 0.100
 
          Norm of current diis error: 0.30713E-06
          max. resid. norm for Fia-block=  6.563D-09 for orbital     21a         
          max. resid. fock norm         =  1.523D-08 for orbital    518a         

 End of SCF iterations

   convergence criteria satisfied after    16 iterations


                  ------------------------------------------ 
                 |  total energy      =   -232.03612098497  |
                  ------------------------------------------ 
                 :  kinetic energy    =    231.02615700734  :
                 :  potential energy  =   -463.06227799231  :
                 :  virial theorem    =      1.99564738467  :
                 :  wavefunction norm =      1.00000000000  :
                  .......................................... 


 <geterg> : there is no data group $energy 


 <skperg> : $end is missing 


 orbitals $scfmo  will be written to file mos

    irrep                 17a         18a         19a         20a         21a   
 eigenvalues H         -0.33320    -0.30203    -0.30200    -0.23256    -0.23256
            eV          -9.0670     -8.2186     -8.2180     -6.3283     -6.3282
 occupation              2.0000      2.0000      2.0000      2.0000      2.0000 

    irrep                 22a         23a         24a         25a         26a   
 eigenvalues H         -0.04403    -0.04401     0.00735     0.03335     0.03336
            eV          -1.1980     -1.1977      0.2000      0.9076      0.9077
 
 
 
 
 ==============================================================================
                           electrostatic moments
 ==============================================================================

 reference point for electrostatic moments:    0.00000   0.00000   0.00000

 
              nuc           elec       ->  total
 ------------------------------------------------------------------------------
                          charge      
 ------------------------------------------------------------------------------
          42.000000     -42.000000       0.000000
 
 ------------------------------------------------------------------------------
                       dipole moment  
 ------------------------------------------------------------------------------
   x      -0.001095       0.001071      -0.000023
   y      -0.003516       0.003669       0.000153
   z      20.516542     -20.510004       0.006537
 
   | dipole moment | =     0.0065 a.u. =     0.0166 debye 
 
 ------------------------------------------------------------------------------
                     quadrupole moment
 ------------------------------------------------------------------------------
  xx     190.591878    -214.544033     -23.952155
  yy     190.483954    -214.439390     -23.955436
  zz      10.124448     -39.593168     -29.468720
  xy      -0.000056       0.000301       0.000245
  xz      -0.230104       0.222966      -0.007138
  yz      -4.402979       4.275801      -0.127178
 
     1/3  trace=     -25.792104
     anisotropy=       5.519337
 
 ==============================================================================
 


    ------------------------------------------------------------------------
         total  cpu-time :  1 minutes and 39 seconds
         total wall-time :  5 minutes and 41 seconds
    ------------------------------------------------------------------------

   ****  ridft : all done  ****


    2018-05-18 15:42:33.525 

