
   OpenMP run-time library returned nthreads = 28
 operating system is UNIX !

 dscf (c-19-411) : TURBOMOLE V7.3 ( 22142 ) 4 Jul 2018 at 18:12:42
 Copyright (C) 2018 TURBOMOLE GmbH, Karlsruhe


    2019-04-02 18:32:50.537 



                             d s c f - program

                   idea & directorship : reinhart ahlrichs
                   program development : marco haeser
                                         michael baer
                           dft version : oliver treutler


                          quantum chemistry group
                          universitaet  karlsruhe
                                  germany




                          References             
                                                 
          TURBOMOLE:                             
              R. Ahlrichs, M. Baer, M. Haeser, H. Horn, and
              C. Koelmel
              Electronic structure calculations on workstation
              computers: the program system TURBOMOLE
              Chem. Phys. Lett. 162: 165 (1989)
          Density Functional:                              
              O. Treutler and R. Ahlrichs                      
              Efficient Molecular Numerical Integration Schemes
              J. Chem. Phys. 102: 346 (1995)                   
          Parallel Version:                                
              Performance of parallel TURBOMOLE for Density    
              Functional Calculations                          
              M. v. Arnim and R. Ahlrichs                      
              J. Comp. Chem. 19: 1746 (1998)                   
                                         




              +--------------------------------------------------+
              | Atomic coordinate, charge and isotop information |
              +--------------------------------------------------+

                    atomic coordinates            atom    charge  isotop
         -1.14553187    0.10558668    1.11305796    c      6.000     0
         -3.15213248    0.10540182    1.11307065    h      1.000     0
          1.14488817    0.10495703    1.11355182    c      6.000     0
          3.15145502    0.10367658    1.11442430    h      1.000     0
         -4.78177039   -0.65659669    7.97183645    c      6.000     0
         -4.79758103   -1.90750758    6.33455772    h      1.000     0
         -4.87988181   -1.84007399    9.65480911    h      1.000     0
         -6.48708688    0.49406522    7.90992595    h      1.000     0
         -2.39970989    0.95836462    7.99275434    c      6.000     0
         -2.43117698    2.23014884    9.61869194    h      1.000     0
         -2.35196220    2.15685919    6.31317310    h      1.000     0
          0.00008851   -0.62585138    8.06920384    c      6.000     0
          0.00009368   -1.79330462    9.77574256    h      1.000     0
          0.00021530   -1.92654828    6.46437057    h      1.000     0
          2.39984900    0.95844979    7.99291851    c      6.000     0
          2.43127104    2.23017333    9.61887913    h      1.000     0
          2.35233200    2.15686179    6.31332767    h      1.000     0
          4.78189130   -0.65657929    7.97223278    c      6.000     0
          4.79772676   -1.90754540    6.33501360    h      1.000     0
          6.48714004    0.49413418    7.91038892    h      1.000     0
          4.87981167   -1.83995364    9.65528627    h      1.000     0
 
       center of nuclear mass  :   -0.00003380    0.01027140    6.17266054
       center of nuclear charge:   -0.00002762   -0.00202907    6.27651778

              +--------------------------------------------------+
              |               basis set information              |
              +--------------------------------------------------+

              we will work with the 1s 3p 5d 7f 9g ... basis set
              ...i.e. with spherical basis functions...

   type   atoms  prim   cont   basis
   ---------------------------------------------------------------------------
    c        7     77     55   cc-pVQZ   [5s4p3d2f1g|21s6p3d2f1g]
    h       14     32     30   cc-pVQZ   [4s3p2d1f|6s3p2d1f]
   ---------------------------------------------------------------------------
   total:   21    987    805
   ---------------------------------------------------------------------------

   total number of primitive shells          :   45
   total number of contracted shells         :  245
   total number of cartesian basis functions :  980
   total number of SCF-basis functions       :  805


 integral neglect threshold       :  0.34E-13
 integral storage threshold THIZE :  0.10E-04
 integral storage threshold THIME :         5


 DENSITY CONVERGENCE CHECK SWITCHED ON !
 SCF CONVERGENCE IF RMS(delta[D]) <     0.1000000000E-06


 symmetry group of the molecule :   c1 

 the group has the following generators :
   c1(z)

    1 symmetry operations found

 there are 1 real representations :   a   

 maximum number of shells which are related by symmetry :  1


    mo occupation :
   irrep   mo's   occupied
    a      805       28
 
 number of basis functions   :                    805
 number of occupied orbitals :                     28
 

 automatic virtual orbital shift switched on 
      shift if e(lumo)-e(homo) < 0.10000000    


          ------------------------
          nuclear repulsion energy  :   285.696973710    
          ------------------------


         -----------------
         -S,T+V- integrals
         -----------------

 1e-integrals will be neglected if expon. factor < 0.341016E-14
 
   Difference densities algorithm switched on.
   The maximal number of linear combinations of
   difference densities is                    20 .

 DIIS switched on: error vector is FDS-SDF
 Max. Iterations for DIIS is     :   5
 DIIS matrix (see manual) 
    Scaling factor of diagonals  :  1.200
    threshold for scaling factor :  0.000

 scf convergence criterion : increment of total energy < .1000000D-08
                  and increment of one-electron energy < .1000000D-05

  MOs are in ASCII format !


 reading orbital data $scfmo  from file mos
 orbital characterization : scfconv=9

 DSCF restart information will be dumped onto file mos

 
                                              current damping :  0.700
 ITERATION  ENERGY          1e-ENERGY        2e-ENERGY     RMS[dD(SAO)]   TOL
   1  -273.20199975833    -934.36132451     375.46235104    0.000D+00 0.340D-13
          max. resid. norm for Fia-block=  1.096D-01 for orbital      2a         
          max. resid. fock norm         =  2.534D-01 for orbital    803a         
          Delta Eig. =    22.7590790649 eV 
 
                                              current damping :  0.650
 ITERATION  ENERGY          1e-ENERGY        2e-ENERGY     RMS[dD(SAO)]   TOL
   2  -273.25366602181    -933.46164948     374.51100975    0.729D-03 0.221D-13
          Norm of current diis error: 0.69041    
          max. resid. norm for Fia-block=  5.234D-02 for orbital      2a         
          max. resid. fock norm         =  9.116D-02 for orbital    804a         
          Delta Eig. =     9.7727191452 eV 
 
                                              current damping :  0.600
 ITERATION  ENERGY          1e-ENERGY        2e-ENERGY     RMS[dD(SAO)]   TOL
   3  -273.26422308879    -933.62061629     374.65941949    0.342D-03 0.166D-13
          Norm of current diis error: 0.30573    
          max. resid. norm for Fia-block=  2.164D-02 for orbital      2a         
          max. resid. fock norm         =  3.797D-02 for orbital    803a         
          Delta Eig. =     3.8444820609 eV 
 
                                              current damping :  0.650
 ITERATION  ENERGY          1e-ENERGY        2e-ENERGY     RMS[dD(SAO)]   TOL
   4  -273.26640483555    -933.53776299     374.57438444    0.144D-03 0.145D-13
          Norm of current diis error: 0.12309    
          max. resid. norm for Fia-block=  8.113D-03 for orbital      2a         
          max. resid. fock norm         =  1.389D-02 for orbital    803a         
          Delta Eig. =     1.3862312588 eV 
 
                                              current damping :  0.500
 ITERATION  ENERGY          1e-ENERGY        2e-ENERGY     RMS[dD(SAO)]   TOL
   5  -273.26676314636    -933.52191657     374.55817972    0.549D-04 0.133D-13
          Norm of current diis error: 0.52291E-01
          max. resid. norm for Fia-block=  3.166D-03 for orbital      2a         
          max. resid. fock norm         =  5.439D-03 for orbital    803a         
 mo-orthogonalization: Cholesky decomposition
          Delta Eig. =     0.6022122205 eV 
 
                                              current damping :  0.350
 ITERATION  ENERGY          1e-ENERGY        2e-ENERGY     RMS[dD(SAO)]   TOL
   6  -273.26683356926    -933.51342809     374.54962081    0.246D-04 0.123D-13
          Norm of current diis error: 0.19410E-01
          max. resid. norm for Fia-block=  1.072D-03 for orbital     19a         
          max. resid. fock norm         =  1.807D-03 for orbital    803a         
          Delta Eig. =     0.2242972002 eV 
 
                                              current damping :  0.200
 ITERATION  ENERGY          1e-ENERGY        2e-ENERGY     RMS[dD(SAO)]   TOL
   7  -273.26684433369    -933.50970524     374.54588720    0.966D-05 0.114D-13
          Norm of current diis error: 0.60021E-02
          max. resid. norm for Fia-block=  3.362D-04 for orbital     19a         
          max. resid. fock norm         =  4.594D-04 for orbital    800a         
          Delta Eig. =     0.0652143474 eV 
 
                                              current damping :  0.050
 ITERATION  ENERGY          1e-ENERGY        2e-ENERGY     RMS[dD(SAO)]   TOL
   8  -273.26684550826    -933.50862334     374.54480412    0.316D-05 0.106D-13
          Norm of current diis error: 0.14623E-02
          max. resid. norm for Fia-block=  8.199D-05 for orbital     19a         
          max. resid. fock norm         =  8.253D-05 for orbital     19a         
          Delta Eig. =     0.0127430203 eV 
 
                                              current damping :  0.050
 ITERATION  ENERGY          1e-ENERGY        2e-ENERGY     RMS[dD(SAO)]   TOL
   9  -273.26684559255    -933.50810473     374.54428543    0.844D-06 0.990D-14
          Norm of current diis error: 0.26793E-03
          max. resid. norm for Fia-block=  1.704D-05 for orbital     24a         
          max. resid. fock norm         =  1.738D-05 for orbital     24a         
          Delta Eig. =     0.0008117385 eV 
 
                                              current damping :  0.050
 ITERATION  ENERGY          1e-ENERGY        2e-ENERGY     RMS[dD(SAO)]   TOL
  10  -273.26684559598    -933.50807945     374.54426014    0.192D-06 0.952D-14
          Norm of current diis error: 0.59836E-04
          max. resid. norm for Fia-block=  4.447D-06 for orbital     24a         
          max. resid. fock norm         =  4.455D-06 for orbital     24a         
 mo-orthogonalization: Cholesky decomposition
          Delta Eig. =     0.0000644822 eV 

 DENSITY CONVERGED !

 
                                              current damping :  0.050
 ITERATION  ENERGY          1e-ENERGY        2e-ENERGY     RMS[dD(SAO)]   TOL
  11  -273.26684559617    -933.50802683     374.54420753    0.562D-07 0.930D-14
          Norm of current diis error: 0.13502E-04
          max. resid. norm for Fia-block=  9.604D-07 for orbital     24a         
          max. resid. fock norm         =  1.019D-06 for orbital     24a         
          Delta Eig. =     0.0000548151 eV 

 DENSITY CONVERGED !

 
                                              current damping :  0.100
 ITERATION  ENERGY          1e-ENERGY        2e-ENERGY     RMS[dD(SAO)]   TOL
  12  -273.26684559618    -933.50804044     374.54422114    0.129D-07 0.918D-14
          Norm of current diis error: 0.34949E-05
          max. resid. norm for Fia-block=  2.091D-07 for orbital     24a         
          max. resid. fock norm         =  2.483D-07 for orbital     24a         
          Delta Eig. =     0.0000183781 eV 

 ENERGY & DENSITY CONVERGED !

 
                                              current damping :  0.150
 ITERATION  ENERGY          1e-ENERGY        2e-ENERGY     RMS[dD(SAO)]   TOL
  13  -273.26684559618    -933.50803379     374.54421449    0.244D-08 0.970D-14
          max. resid. norm for Fia-block=  5.434D-08 for orbital     26a         
          max. resid. fock norm         =  6.600D-08 for orbital     26a         

 convergence criteria satisfied after    13 iterations


                  ------------------------------------------ 
                 |  total energy      =   -273.26684559618  |
                  ------------------------------------------ 
                 :  kinetic energy    =    272.99704803542  :
                 :  potential energy  =   -546.26389363160  :
                 :  virial theorem    =      1.99901269559  :
                 :  wavefunction norm =      1.00000000000  :
                  .......................................... 


 orbitals $scfmo  will be written to file mos

    irrep                 24a         25a         26a         27a         28a   
 eigenvalues H         -0.45944    -0.45689    -0.44399    -0.40963    -0.40909
            eV         -12.5021    -12.4327    -12.0817    -11.1467    -11.1321
 occupation              2.0000      2.0000      2.0000      2.0000      2.0000 

    irrep                 29a         30a         31a         32a         33a   
 eigenvalues H          0.11160     0.11443     0.13688     0.14335     0.14638
            eV           3.0367      3.1138      3.7246      3.9007      3.9833
 
 
 
 
 ==============================================================================
                           electrostatic moments
 ==============================================================================

 reference point for electrostatic moments:    0.00000   0.00000   0.00000

 
              nuc           elec       ->  total
 ------------------------------------------------------------------------------
                          charge      
 ------------------------------------------------------------------------------
          56.000000     -56.000000       0.000000
 
 ------------------------------------------------------------------------------
                       dipole moment  
 ------------------------------------------------------------------------------
   x      -0.001547       0.001523      -0.000024
   y      -0.113628       0.148367       0.034739
   z     351.484996    -351.512799      -0.027804
 
   | dipole moment | =     0.0445 a.u. =     0.1131 debye 
 
 ------------------------------------------------------------------------------
                     quadrupole moment
 ------------------------------------------------------------------------------
  xx     579.816802    -612.366166     -32.549365
  yy      59.416558     -96.428732     -37.012174
  zz    2731.241438   -2767.877448     -36.636009
  xy      -0.007304       0.006057      -0.001247
  xz       0.047632      -0.046480       0.001151
  yz     -11.278777      11.547303       0.268525
 
     1/3  trace=     -35.399183
     anisotropy=       4.312278
 
 ==============================================================================
 


    ------------------------------------------------------------------------
         total  cpu-time :  1 hours 44 minutes and 59 seconds
         total wall-time :  6 minutes and 35 seconds
    ------------------------------------------------------------------------

   ****  dscf : all done  ****


    2019-04-02 18:39:25.680 

