
 eiger (gplogin2.gp.local) : TURBOMOLE V7.3 ( 22118 ) 1 Jul 2018 at 20:38:15
 Copyright (C) 2018 TURBOMOLE GmbH, Karlsruhe


    2019-05-14 12:32:44.305 

                                                                                
  
Total energy =   -273.2668455962 H =     -7435.9734423 eV
 
 HOMO-LUMO Separation
   HOMO:    28.    28 a     -0.40909288 H =    -11.13199 eV
   LUMO:    29.    29 a     +0.11159760 H =     +3.03673 eV
   Gap :                    +0.52069049 H =    +14.16872 eV
 
Number of MOs=    805, Electrons=     56.00, Symmetry: c1   
 
   Nr.   Orbital    Occupation       Energy
   45.    45 a                     +0.256868 H =        +6.990 eV
   44.    44 a                     +0.247271 H =        +6.729 eV
   43.    43 a                     +0.243011 H =        +6.613 eV
   42.    42 a                     +0.231467 H =        +6.299 eV
   41.    41 a                     +0.222514 H =        +6.055 eV
   40.    40 a                     +0.203164 H =        +5.528 eV
   39.    39 a                     +0.197658 H =        +5.379 eV
   38.    38 a                     +0.187400 H =        +5.099 eV
   37.    37 a                     +0.187003 H =        +5.089 eV
   36.    36 a                     +0.170361 H =        +4.636 eV
   35.    35 a                     +0.162999 H =        +4.435 eV
   34.    34 a                     +0.146801 H =        +3.995 eV
   33.    33 a                     +0.146383 H =        +3.983 eV
   32.    32 a                     +0.143347 H =        +3.901 eV
   31.    31 a                     +0.136876 H =        +3.725 eV
   30.    30 a                     +0.114429 H =        +3.114 eV
   29.    29 a                     +0.111598 H =        +3.037 eV
   28.    28 a        2.000        -0.409093 H =       -11.132 eV
   27.    27 a        2.000        -0.409631 H =       -11.147 eV
   26.    26 a        2.000        -0.443989 H =       -12.082 eV
   25.    25 a        2.000        -0.456891 H =       -12.433 eV
   24.    24 a        2.000        -0.459442 H =       -12.502 eV
   23.    23 a        2.000        -0.474107 H =       -12.901 eV
   22.    22 a        2.000        -0.492896 H =       -13.412 eV
   21.    21 a        2.000        -0.524100 H =       -14.261 eV
   20.    20 a        2.000        -0.546891 H =       -14.882 eV
   19.    19 a        2.000        -0.551353 H =       -15.003 eV
   18.    18 a        2.000        -0.591272 H =       -16.089 eV
   17.    17 a        2.000        -0.596594 H =       -16.234 eV
   16.    16 a        2.000        -0.644719 H =       -17.544 eV
   15.    15 a        2.000        -0.683019 H =       -18.586 eV
   14.    14 a        2.000        -0.770928 H =       -20.978 eV
   13.    13 a        2.000        -0.781464 H =       -21.265 eV


    ------------------------------------------------------------------------
         total  cpu-time :   0.32 seconds
         total wall-time :   0.32 seconds
    ------------------------------------------------------------------------

   ****  eiger : all done  ****


    2019-05-14 12:32:44.614 

