
OPTIMIZATION CYCLE 26
Fri Feb 26 19:47:40 PST 2016
 operating system is UNIX !
 hostname is         c-9-373.local

 statpt (c-9-373.local) : TURBOMOLE V7.0.2( ) 8 Jan 2016 at 10:54:38
 Copyright (C) 2016 TURBOMOLE GmbH, Karlsruhe


    2016-02-26 19:47:40.552 



                           this is S T A T P T   


                     hessian and coordinate update for
                          stationary point search 

                     by barbara unterreiner, marek sierka,
                           and reinhart ahlrichs

                          quantum chemistry group
                          universitaet  karlsruhe
                                  germany


  Keyword $statpt not found - using default options
 
        ***************  Stationary point options ******************
        ************************************************************
           Maximum allowed trust radius:           3.000000E-01
           Minimum allowed trust radius:           1.000000E-03
           Initial trust radius:                   1.500000E-01
           GDIIS used if gradient norm <           1.000000E-02
           Number of previous steps for GDIIS:       5
           Hessian update method:                  BFGS
                        *** Convergence criteria ***                
           Threshold for energy change:            1.000000E-07
           Threshold for max displacement element: 1.000000E-03
           Threshold for max gradient element :    1.000000E-04
           Threshold for RMS of displacement:      5.000000E-04
           Threshold for RMS of gradient:          5.000000E-04
        ************************************************************
 
     Number of symmetry restricted degrees of freedom:    69
     Constituted by:     3 translational degrees of freedom
                         3 rotational degrees of freedom
                      63 internal degrees of freedom

  *************************************************************************
   ATOM                      CARTESIAN COORDINATES
    1 c      -6.42397446282804      1.52817700405906     -2.04364769881043
    2 c      -4.57235291593761      2.29829566242078     -0.02651095840159
    3 o      -4.67618831500152      4.21800193229406      1.20413353224683
    4 o      -2.74302630596037      0.54500204114792      0.24603365266802
    5 c      -0.87970015180936      1.13382667588669      2.15138432474050
    6 c       1.05053406336353     -0.98075732087078      2.15485670095907
    7 c       2.41255080605028     -1.39706771060004     -0.36395676699076
    8 c       3.80023754446978      0.97440038225598     -1.25379378716220
    9 c       4.25314124744738     -3.60825590623884     -0.11571173742709
   10 h      -7.85699728998284      2.97677544654884     -2.23825983624972
   11 h      -7.29482148643619     -0.26092724072136     -1.53506624257273
   12 h      -5.43803581913402      1.26564939538372     -3.82598973276182
   13 h      -0.04410428497074      2.95833607180977      1.71537706661283
   14 h      -1.82496452168069      1.29171411537392      3.96945401191584
   15 h       0.11638188218741     -2.72967794072567      2.71902914696348
   16 h       2.44268866897470     -0.54501890019489      3.61717375495795
   17 h       0.99448720813371     -1.88855264012930     -1.77754372325468
   18 h       5.14861442745215      1.60549187512414      0.17277219137354
   19 h       4.84710848910423      0.59125921623198     -2.98326599377516
   20 h       2.50714097483847      2.52556548077658     -1.64127218823916
   21 h       5.71428448184215     -3.18109547189821      1.27406780658203
   22 h       3.28413538347277     -5.32021931733008      0.48936144887334
   23 h       5.18286037640466     -4.00092285060423     -1.90862497224813
  *************************************************************************
   ATOM                      CARTESIAN GRADIENTS  
    1 c      -0.00000205250763      0.00000037042569     -0.00000150378408
    2 c       0.00000132691989      0.00000145785803     -0.00000438632429
    3 o      -0.00000121067450     -0.00000137958449      0.00000162528738
    4 o      -0.00000116247647     -0.00000307941071      0.00000433266157
    5 c       0.00000354460199      0.00000309174289     -0.00000265716103
    6 c       0.00000074798791     -0.00000054243237     -0.00000004746786
    7 c      -0.00000066712550     -0.00000046723201     -0.00000160902255
    8 c       0.00000009900176     -0.00000056828427      0.00000017910856
    9 c       0.00000033226598      0.00000053099711      0.00000167328507
   10 h       0.00000082263225     -0.00000083157646     -0.00000072773549
   11 h       0.00000096600067      0.00000156896069     -0.00000084996112
   12 h      -0.00000074640912      0.00000033160915      0.00000170509020
   13 h      -0.00000045980240     -0.00000089703592      0.00000083489181
   14 h      -0.00000087611702     -0.00000008506920      0.00000007649148
   15 h      -0.00000043597623      0.00000046688819      0.00000005444529
   16 h       0.00000002546416     -0.00000020694344      0.00000064625931
   17 h      -0.00000009287042     -0.00000054309017     -0.00000010574808
   18 h       0.00000020226670      0.00000000325889      0.00000040691825
   19 h      -0.00000034674244      0.00000008279812      0.00000055889332
   20 h       0.00000075430401     -0.00000055021472      0.00000005400094
   21 h      -0.00000067523003     -0.00000036384809     -0.00000047218266
   22 h       0.00000019093485      0.00000076016093     -0.00000010283857
   23 h      -0.00000015829727      0.00000020459763      0.00000023169457
  *************************************************************************

  norm of actual CARTESIAN gradient:  1.08881E-05
  norm of actual INTERNAL  gradient:  1.18579E-05

  ENERGY =    -426.6265493080 a.u.; # of cycle =   26

  Approximate Hessian read from $hessapprox data section

  Hessian updated according to BFGS formula
  Number of zero Hessian eigenvalues:   0

                  #######################################
                   WARNING: HESSIAN HAS WRONG INERTIA!!! 
                      NUMBER OF NEGATIVE EIGENVALUES     
                           1
                  #######################################
  RFO lambda search failed -> using Newton step
 Lambdas:     0.0000000000E+00    0.0000000000E+00    2.2218585016E-06   -6.1697568741E+10
  WARNING: inforrect RFO shift 2
  Number of structures for GDIIS interpolation:    3
  GDIIS step:     0.000296

  Transforming internal coordinate displacements to Cartesian space
      Iteration   1 residual norm     2.960048E-04
      Iteration   2 residual norm     3.040444E-08
      Iteration   3 residual norm     5.525396E-14
      Transformation converged
      Residual norm:    5.525396E-14 after    3 iterations

      ****************************************************************** 
                          CONVERGENCE INFORMATION

                               Converged?     Value      Criterion
             Energy change         yes      0.0000001   0.0000001
             RMS of displacement   yes      0.0000373   0.0005000
             RMS of gradient       yes      0.0000015   0.0005000
             MAX displacement      yes      0.0002728   0.0010000
             MAX gradient          yes      0.0000059   0.0001000
      ****************************************************************** 


    ------------------------------------------------------------------------
         total  cpu-time :   0.06 seconds
         total wall-time :   0.07 seconds
    ------------------------------------------------------------------------


   ****  statpt : all done  ****


    2016-02-26 19:47:40.606 

fine, there is no data group "$actual step"
next step = ridft
 operating system is UNIX !
 hostname is         c-9-373.local

 ridft (c-9-373.local) : TURBOMOLE V7.0( ) 18 Nov 2015 at 09:57:41
 Copyright (C) 2015 TURBOMOLE GmbH, Karlsruhe


    2016-02-26 19:47:40.793 



                                  r i d f t

                        DFT program with RI approximation 
                                for coulomb part 




                                                 
                                 References:     
                                                 
          TURBOMOLE:                             
              R. Ahlrichs, M. Baer, M. Haeser, H. Horn, and
              C. Koelmel
              Electronic structure calculations on workstation
              computers: the program system TURBOMOLE
              Chem. Phys. Lett. 162: 165 (1989)
          Density Functional:                              
              O. Treutler and R. Ahlrichs                      
              Efficient Molecular Numerical Integration Schemes
              J. Chem. Phys. 102: 346 (1995)                   
          Parallel Version:                                
              Performance of parallel TURBOMOLE for Density    
              Functional Calculations                          
              M. v. Arnim and R. Ahlrichs                      
              J. Comp. Chem. 19: 1746 (1998)                   
          RI-J Method:                                     
              Auxiliary Basis Sets to approximate Coulomb      
              Potentials                                       
              Chem. Phys. Lett. 240: 283 (1995)                
              K. Eichkorn, O. Treutler, H. Oehm, M. Haeser     
              and R. Ahlrichs                                  
              Chem. Phys. Lett. 242: 652 (1995)                
                                                           
              Auxiliary Basis Sets for Main Row Atoms and their
              Use to approximate Coulomb Potentials            
              K. Eichkorn, F. Weigend, O. Treutler and         
              R. Ahlrichs                                      
              Theo. Chem. Acc. 97: 119 (1997)                   
                                                           
              Accurate Coulomb-fitting basis sets for H to Rn 
              F. Weigend                                        
              Phys. Chem. Chem. Phys. 8: 1057 (2006)            
                                                           
          Multipole accelerated RI-J (MARI-J):             
              Fast evaluation of the Coulomb potential for     
              electron densities using multipole accelerated   
              resolution of identity approximation             
              M. Sierka, A. Hogekamp and R. Ahlrichs           
              J. Chem. Phys. 118: 9136 (2003)                  
          RI-JK Method:                                     
              A fully direct RI-HF algorithm: Implementation,
              optimised auxiliary basis sets, demonstration of
              accuracy and efficiency                         
              F. Weigend                                      
              Phys. Chem. Chem. Phys. 4: 4285 (2002)           
          Two-component HF and DFT with spin-orbit coupling:  
              Self-consistent treatment of spin-orbit         
              interactions with efficient Hartree-Fock and    
              density functional methods                      
              M. K. Armbruster, F. Weigend, C. van Wüllen and 
              W. Klopper                                      
              Phys. Chem. Chem. Phys. 10: 1748 (2008)         
          Relativistic all-electron 2c calculations           
              An efficient implementation of two-component    
              relativistic exact-decoupling methods for large 
              molecules                                       
              D. Peng, N. Middendorf, F. Weigend, M. Reiher   
              J. Chem. Phys. 138, 184105 (2013)               
                                         


 


              +--------------------------------------------------+
              |      general information about current run       |
              +--------------------------------------------------+

 

 DENSITY CONVERGENCE CHECK SWITCHED ON !
 SCF CONVERGENCE IF RMS(delta[D]) <     0.1000000000E-06

 PBE functional
 exchange:    LDA + PBE
 correlation: LDA (PW) + PBE
 A DFT calculation using the RI-J approximation will be carried out.
 Allocatable memory for RI due to $ricore (MB):       15000


              +--------------------------------------------------+
              | Atomic coordinate, charge and isotop information |
              +--------------------------------------------------+

                    atomic coordinates            atom    charge  isotop
         -6.42396376    1.52818608   -2.04363043    c      6.000     0
         -4.57228066    2.29836310   -0.02657334    c      6.000     0
         -4.67602359    4.21814141    1.20396597    o      8.000     0
         -2.74297865    0.54504879    0.24597516    o      8.000     0
         -0.87970593    1.13380217    2.15139745    c      6.000     0
          1.05051541   -0.98079256    2.15487465    c      6.000     0
          2.41254158   -1.39709177   -0.36393526    c      6.000     0
          3.80017138    0.97440002   -1.25380174    c      6.000     0
          4.25316259   -3.60825745   -0.11569389    c      6.000     0
         -7.85713724    2.97666378   -2.23806103    h      1.000     0
         -7.29460144   -0.26104299   -1.53511688    h      1.000     0
         -5.43810705    1.26588209   -3.82605825    h      1.000     0
         -0.04407116    2.95831173    1.71545404    h      1.000     0
         -1.82501971    1.29165985    3.96944279    h      1.000     0
          0.11636690   -2.72971942    2.71903543    h      1.000     0
          2.44266657   -0.54505665    3.61719440    h      1.000     0
          0.99448079   -1.88860277   -1.77751508    h      1.000     0
          5.14852555    1.60555303    0.17275722    h      1.000     0
          4.84706090    0.59125899   -2.98326440    h      1.000     0
          2.50702814    2.52552135   -1.64130841    h      1.000     0
          5.71431663   -3.18106837    1.27406916    h      1.000     0
          3.28418395   -5.32022962    0.48940513    h      1.000     0
          5.18286879   -4.00093080   -1.90861270    h      1.000     0
 
       center of nuclear mass  :   -0.88470035    0.54414647    0.20944489
       center of nuclear charge:   -0.74626129    0.45951916    0.17587188

              +--------------------------------------------------+
              |               basis set information              |
              +--------------------------------------------------+

              we will work with the 1s 3p 5d 7f 9g ... basis set
              ...i.e. with spherical basis functions...

   type   atoms  prim   cont   basis
   ---------------------------------------------------------------------------
    c        7    118     91   cc-pV5Z   [6s5p4d3f2g1h|24s8p4d3f2g1h]
    o        2    118     91   cc-pV5Z   [6s5p4d3f2g1h|24s8p4d3f2g1h]
    h       14     58     55   cc-pV5Z   [5s4p3d2f1g|8s4p3d2f1g]
   ---------------------------------------------------------------------------
   total:   23   1874   1589
   ---------------------------------------------------------------------------

   total number of primitive shells          :  102
   total number of contracted shells         :  399
   total number of cartesian basis functions : 2114
   total number of SCF-basis functions       : 1589


 integral neglect threshold       :  0.16E-13
 integral storage threshold THIZE :  0.10E-04
 integral storage threshold THIME :         5

 RI-J AUXILIARY BASIS SET information:

              we will work with the 1s 3p 5d 7f 9g ... basis set
              ...i.e. with spherical basis functions...

   type   atoms  prim   cont   basis
   ---------------------------------------------------------------------------
    c        7     70     49   cc-pV5Z   [6s4p3d1f1g|12s5p4d2f1g]
    o        2     70     49   cc-pV5Z   [6s4p3d1f1g|12s5p4d2f1g]
    h       14     16     11   cc-pV5Z   [3s1p1d|5s2p1d]
   ---------------------------------------------------------------------------
   total:   23    854    595
   ---------------------------------------------------------------------------

   total number of primitive shells          :   56
   total number of contracted shells         :  205
   total number of cartesian basis functions :  717
   total number of SCF-basis functions       :  595


 symmetry group of the molecule :   c1 

 the group has the following generators :
   c1(z)

    1 symmetry operations found

 there are 1 real representations :   a   

 maximum number of shells which are related by symmetry :  1


    mo occupation :
   irrep   mo's   occupied
    a     1589       36
 
 number of basis functions   :         1589
 number of occupied orbitals :           36
 
  
           ------------------
           density functional
           ------------------
 PBE functional
 exchange:    LDA + PBE
 correlation: LDA (PW) + PBE
 iterations will be done with small grid
  
 spherical integration : Lebedev's spherical grid
 spherical gridsize    :           5
    i.e. gridpoints    :         590
 value for diffuse not defined
 radial integration    : Chebyshev 2nd kind (scaling 3)
 radial gridsize       :           8
 integration cells     :          23
 partition function    : becke
 partition sharpness   :           3
  

 biggest AO integral is expected to be     4.948106643
  
           ------------------------
               RI-J - INFORMATION
           ------------------------
 Contributions to RI integral batches: 
  neglected integral batches:       24021
  direct contribution:                  0
  memory contribution:       55779
 Memory core needed for (P|Q) and Cholesky      3 MByte
 Memory core minimum needed except of (P|Q)    12 MByte
 Total minimum memory core needed (sum)        15 MByte
  
 ****************************************
 Memory allocated for RI-J  7968 MByte
 ****************************************
                                            

          ------------------------
          nuclear repulsion energy  :   473.468009607    
          ------------------------

 
          -----------------
          -S,T+V- integrals
          -----------------

 1e-integrals will be neglected if expon. factor < 0.158087E-14
 
   Difference densities algorithm switched on.
   The maximal number of linear combinations of
   difference densities is          20 .

 automatic virtual orbital shift switched on 
      shift if e(lumo)-e(homo) < 0.10000000    


 DIIS switched on: error vector is FDS-SDF
 Max. Iterations for DIIS is     :   4
 DIIS matrix (see manual) 
    Scaling factor of diagonals  :  1.200
    threshold for scaling factor :  0.000

 scf convergence criterion : increment of total energy < .1000000D-08
                  and increment of one-electron energy < .1000000D-05

  MOs are in ASCII format !


 reading orbital data $scfmo  from file mos . 

 orbital characterization : scfconv=9
 

 DSCF restart information will be dumped onto file mos


 Starting SCF iterations

          Overall gridpoints after grid construction =        104050

 ITERATION  ENERGY          1e-ENERGY        2e-ENERGY     RMS[dD(SAO)]   TOL
   1  -425.30262008926    -1515.8606138     617.08998409    0.000D+00 0.158D-13
                            Exc = -59.9334434552     Coul =  677.023427549    
                              N = 71.999885816    
                            current damping = 0.700
 
          max. resid. norm for Fia-block=  7.498D-05 for orbital      5a         
          max. resid. fock norm         =  3.646D-03 for orbital   1585a         

 ITERATION  ENERGY          1e-ENERGY        2e-ENERGY     RMS[dD(SAO)]   TOL
   2  -425.30262009692    -1515.8605797     617.08995002    0.674D-07 0.100D-13
                            Exc = -59.9334409124     Coul =  677.023390936    
                              N = 71.999885816    
                            current damping = 0.650
 
          Norm of current diis error: 0.34186E-03
          max. resid. norm for Fia-block=  3.088D-05 for orbital      5a         
          max. resid. fock norm         =  1.501D-03 for orbital   1585a         

 DENSITY CONVERGED !


 ITERATION  ENERGY          1e-ENERGY        2e-ENERGY     RMS[dD(SAO)]   TOL
   3  -425.30262009815    -1515.8606271     617.08999741    0.291D-07 0.777D-14
                            Exc = -59.9334432548     Coul =  677.023440662    
                              N = 71.999885816    
                            current damping = 0.600
 
          Norm of current diis error: 0.14179E-03
          max. resid. norm for Fia-block=  1.217D-05 for orbital      5a         
          max. resid. fock norm         =  5.914D-04 for orbital   1585a         

 DENSITY CONVERGED !


 ITERATION  ENERGY          1e-ENERGY        2e-ENERGY     RMS[dD(SAO)]   TOL
   4  -425.30262009834    -1515.8605420     617.08991232    0.192D-07 0.739D-14
                            Exc = -59.9334396263     Coul =  677.023351949    
                              N = 71.999885816    
                            current damping = 0.650
 
          Norm of current diis error: 0.96492E-04
          max. resid. norm for Fia-block=  4.561D-06 for orbital      5a         
          max. resid. fock norm         =  2.218D-04 for orbital   1585a         

 DENSITY CONVERGED !


 ITERATION  ENERGY          1e-ENERGY        2e-ENERGY     RMS[dD(SAO)]   TOL
   5  -425.30262009843    -1515.8605960     617.08996634    0.135D-07 0.706D-14
                            Exc = -59.9334407150     Coul =  677.023407057    
                              N = 71.999885816    
                            current damping = 0.700
 
          Norm of current diis error: 0.31199E-04
          max. resid. norm for Fia-block=  1.800D-06 for orbital      5a         
          max. resid. fock norm         =  8.735D-05 for orbital   1585a         
          mo-orthogonalization: Cholesky decomposition

 ENERGY & DENSITY CONVERGED !

          Overall gridpoints after grid construction =        342613

 ITERATION  ENERGY          1e-ENERGY        2e-ENERGY     RMS[dD(SAO)]   TOL
   6  -425.30264885318    -1515.8606008     617.08994232    0.448D-08 0.701D-14
                            Exc = -59.9334712272     Coul =  677.023413547    
                              N = 71.999989228    
                            current damping = 0.750
 
          Norm of current diis error: 0.13274E-04
          max. resid. norm for Fia-block=  7.400D-07 for orbital      5a         
          max. resid. fock norm         =  3.597D-05 for orbital   1585a         

 End of SCF iterations

   convergence criteria satisfied after    6 iterations


                  ------------------------------------------ 
                 |  total energy      =   -425.30264885318  |
                  ------------------------------------------ 
                 :  kinetic energy    =    423.65785433227  :
                 :  potential energy  =   -848.96050318545  :
                 :  virial theorem    =      1.99613264924  :
                 :  wavefunction norm =      1.00000000000  :
                  .......................................... 


 orbitals $scfmo  will be written to file mos

    irrep                 32a         33a         34a         35a         36a   
 eigenvalues H         -0.29085    -0.28962    -0.28394    -0.26289    -0.22955
            eV          -7.9146     -7.8811     -7.7264     -7.1535     -6.2464
 occupation              2.0000      2.0000      2.0000      2.0000      2.0000 

    irrep                 37a         38a         39a         40a         41a   
 eigenvalues H         -0.03043    -0.01002     0.00545     0.01450     0.01939
            eV          -0.8281     -0.2727      0.1482      0.3947      0.5275
 
 
 
 
 ==============================================================================
                           electrostatic moments
 ==============================================================================

 reference point for electrostatic moments:    0.00000   0.00000   0.00000

 
              nuc           elec       ->  total
 ------------------------------------------------------------------------------
                          charge      
 ------------------------------------------------------------------------------
          72.000000     -72.000000       0.000000
 
 ------------------------------------------------------------------------------
                       dipole moment  
 ------------------------------------------------------------------------------
   x     -53.730813      54.001543       0.270730
   y      33.085379     -33.805345      -0.719966
   z      12.662775     -12.972049      -0.309274
 
   | dipole moment | =     0.8290 a.u. =     2.1072 debye 
 
 ------------------------------------------------------------------------------
                     quadrupole moment
 ------------------------------------------------------------------------------
  xx    1130.931021   -1173.035594     -42.104573
  yy     395.438669    -443.440508     -48.001839
  zz     184.551650    -225.765843     -41.214193
  xy    -467.265237     471.343571       4.078335
  xz      25.444745     -22.227760       3.216984
  yz      11.184248     -13.338690      -2.154442
 
     1/3  trace=     -43.773535
     anisotropy=      11.648673
 
 ==============================================================================
 
 


    ------------------------------------------------------------------------
         total  cpu-time :  5 minutes and  0 seconds
         total wall-time :  5 minutes and 11 seconds
    ------------------------------------------------------------------------


   ****  ridft : all done  ****


    2016-02-26 19:52:51.836 

fine, there is no data group "$actual step"
next step = rirpa
 
 
    *************************************************************************
    *************************** PROGRAM RIRPA *******************************
    ******                                                             ******
    ******              H. Eshuis, J. E. Bates and F. Furche           ******
    ******                                                             ******
    ****** Nov 2011                                                    ******
    ****** Copyright TURBOMOLE GmbH                                    ******
    *************************************************************************
    
    
                                References:                                  
    
                   RIRPA:                                                    
                     H. Eshuis, J. Yarkony and F. Furche                     
                     Fast computation of molecular random phase              
                     approximation correlation energies using resolution     
                     of the identity imaginary frequency integration         
                     J. Chem. Phys. 132: 234114 (2010)                       
    
                     H. Eshuis, J. E. Bates and F. Furche                    
                     Electron correlation methods based on                   
                     the random phase approximation                          
                     Theor. Chem. Acc.  131: 1084 (2012)                     
    
                   TWO-COMPONENT RIRPA:                                      
                     M. Kuehn                                                
                     Correlation energies from the                           
                     two-component random-phase approximation                
                     J. Chem. Theory Comput. 10: 623 (2014)                  
    
                   RIRPA GRADIENTS:                                          
                     Asbjoern M. Burow, Jefferson E. Bates, Filipp Furche*,  
                     and Henk Eshuis                                         
                     Analytical First-Order Molecular Properties and Forces  
                     within the Adiabatic Connection Random Phase            
                     Approximation                                           
                     J. Chem. Theory Comput. (2013, ASAP),                   
                     DOI: 10.1021/ct4008553                                  
    
    
    
 hostname is         c-9-373.local

 rirpa (c-9-373.local) : TURBOMOLE V7.0( ) 18 Nov 2015 at 09:57:41
 Copyright (C) 2015 TURBOMOLE GmbH, Karlsruhe


    2016-02-26 19:52:51.955 

 number of mkl threads =          10
 
                FOUND RI-J FLAG
 
  HF exact exchange energy will be computed using RI-J.


              +--------------------------------------------------+
              | Atomic coordinate, charge and isotop information |
              +--------------------------------------------------+

                    atomic coordinates            atom    charge  isotop
         -6.42396376    1.52818608   -2.04363043    c      6.000     0
         -4.57228066    2.29836310   -0.02657334    c      6.000     0
         -4.67602359    4.21814141    1.20396597    o      8.000     0
         -2.74297865    0.54504879    0.24597516    o      8.000     0
         -0.87970593    1.13380217    2.15139745    c      6.000     0
          1.05051541   -0.98079256    2.15487465    c      6.000     0
          2.41254158   -1.39709177   -0.36393526    c      6.000     0
          3.80017138    0.97440002   -1.25380174    c      6.000     0
          4.25316259   -3.60825745   -0.11569389    c      6.000     0
         -7.85713724    2.97666378   -2.23806103    h      1.000     0
         -7.29460144   -0.26104299   -1.53511688    h      1.000     0
         -5.43810705    1.26588209   -3.82605825    h      1.000     0
         -0.04407116    2.95831173    1.71545404    h      1.000     0
         -1.82501971    1.29165985    3.96944279    h      1.000     0
          0.11636690   -2.72971942    2.71903543    h      1.000     0
          2.44266657   -0.54505665    3.61719440    h      1.000     0
          0.99448079   -1.88860277   -1.77751508    h      1.000     0
          5.14852555    1.60555303    0.17275722    h      1.000     0
          4.84706090    0.59125899   -2.98326440    h      1.000     0
          2.50702814    2.52552135   -1.64130841    h      1.000     0
          5.71431663   -3.18106837    1.27406916    h      1.000     0
          3.28418395   -5.32022962    0.48940513    h      1.000     0
          5.18286879   -4.00093080   -1.90861270    h      1.000     0
 
       center of nuclear mass  :   -0.88470035    0.54414647    0.20944489
       center of nuclear charge:   -0.74626129    0.45951916    0.17587188
              +-------------------------------------------------+
              |        Rotational Constants Section             |
              +-------------------------------------------------+
                                   Center of Mass [a.u]:
              -0.88470034824172         0.54414646945914         0.20944488822608
                     Principal Moments of Inertia [a.u.]
             544.84250868188224      2511.64192115664719      2587.57650219985908
                       Rotational constants A,B,C [a.u.]
               0.00091769638388         0.00019907296330         0.00019323100189
                     Rotational constants A,B,C [cm**-1]
               0.11049006928141         0.02396825997553         0.02326489148457
                        Rotational constants A,B,C [MHz]
            3312.40894544627190       718.55035720463911       697.46390032639908

   * BASIS SET information:

              +--------------------------------------------------+
              |               basis set information              |
              +--------------------------------------------------+

              we will work with the 1s 3p 5d 7f 9g ... basis set
              ...i.e. with spherical basis functions...

   type   atoms  prim   cont   basis
   ---------------------------------------------------------------------------
    c        7    118     91   cc-pV5Z   [6s5p4d3f2g1h|24s8p4d3f2g1h]
    o        2    118     91   cc-pV5Z   [6s5p4d3f2g1h|24s8p4d3f2g1h]
    h       14     58     55   cc-pV5Z   [5s4p3d2f1g|8s4p3d2f1g]
   ---------------------------------------------------------------------------
   total:   23   1874   1589
   ---------------------------------------------------------------------------

   total number of primitive shells          :  102
   total number of contracted shells         :  399
   total number of cartesian basis functions : 2114
   total number of SCF-basis functions       : 1589


   * AUXILIARY BASIS SET information:

              +--------------------------------------------------+
              |               basis set information              |
              +--------------------------------------------------+

              we will work with the 1s 3p 5d 7f 9g ... basis set
              ...i.e. with spherical basis functions...

   type   atoms  prim   cont   basis
   ---------------------------------------------------------------------------
    c        7    193    193   cc-pV5Z   [10s8p7d6f4g3h1i|10s8p7d6f4g3h1i]
    o        2    193    193   cc-pV5Z   [10s8p7d6f4g3h1i|10s8p7d6f4g3h1i]
    h       14     91     91   cc-pV5Z   [6s5p4d3f2g1h|6s5p4d3f2g1h]
   ---------------------------------------------------------------------------
   total:   23   3011   3011
   ---------------------------------------------------------------------------

   total number of primitive shells          :   99
   total number of contracted shells         :  645
   total number of cartesian basis functions : 4347
   total number of SCF-basis functions       : 3011


   * RIJ AUXILIARY BASIS SET information:

              +--------------------------------------------------+
              |               basis set information              |
              +--------------------------------------------------+

              we will work with the 1s 3p 5d 7f 9g ... basis set
              ...i.e. with spherical basis functions...

   type   atoms  prim   cont   basis
   ---------------------------------------------------------------------------
    c        7     70     49   cc-pV5Z   [6s4p3d1f1g|12s5p4d2f1g]
    o        2     70     49   cc-pV5Z   [6s4p3d1f1g|12s5p4d2f1g]
    h       14     16     11   cc-pV5Z   [3s1p1d|5s2p1d]
   ---------------------------------------------------------------------------
   total:   23    854    595
   ---------------------------------------------------------------------------

   total number of primitive shells          :   56
   total number of contracted shells         :  205
   total number of cartesian basis functions :  717
   total number of SCF-basis functions       :  595


 reading orbital data $scfmo  from file mos . 

 orbital characterization : scfconv=9
 

 integral neglect threshold       :  0.33E+02

 scfconv           9

 MAXIMUM CORE MEMORY WHICH CAN BE ALLOCATED DYNAMICALLY = 20000 MiB
              ( or 2621440000 double words )


 there are 1 real representations :   a   

 maximum number of shells which are related by symmetry :  1


         --------------------------------------------------------------
                   checking mo's by calculating trace(D*S)

              number of electrons : 
                 from trace(D*S)         :   71.999999999996
                 from occupation numbers :   72.000000000000

              molecular charge           :    0.000000000000
         --------------------------------------------------------------

 time elapsed for calculating density matrices :   1.037 sec
 all orbitals will be active in the correlation treatment

     total memory allocated for calculation of (Q|P)**(-1/2) : 104 MiB


     calculation of (P|Q) ...
     time in lp2sym        cpu:  1.43 sec    wall:  0.28 sec    ratio:  5.1


     calculation of the Cholesky decomposition of (P|Q)**(-1) ...
     time in invmetri      cpu:  9.12 sec    wall:  1.19 sec    ratio:  7.7

   threshold for RMS(d[D]) in SCF was     :  0.10E-06
   integral neglect threshold             :  0.77E-14
   derivative integral neglect threshold  :  0.10E-06


 setting up bound for integral derivative estimation

 increment for numerical differentiation : 0.00050000
 total memory allocated for calculation of (Q|P)**(-1/2) : 104 MiB
 Dividing biap into          279  block chunks,
 using                    35 MB per block
 Reserved                   9953 MB for BLAS routines
 Estimated total memory usage:                  19977 MB
 number of passes:            1
 
 Number of eigenvalues < 6e-3:            0
 
 
            -----------------------------
            Complex frequency integration
            -----------------------------
 
 Number of Clenshaw-Curtis nodes:          200
 Optimized scaling parameter    :    2.63120738226359     
 Sensitivity measure            :  -4.207360848607067E-011
 
 Allocatable memory for RI due to $ricore (MB):       15000

 there are 1 real representations :   a   

 maximum number of shells which are related by symmetry :  1

  
           ------------------------
               RI-J - INFORMATION
           ------------------------
 Contributions to RI integral batches: 
  neglected integral batches:       16852
  direct contribution:                  0
  memory contribution:       62948
 
          -----------------
          -S,T+V- integrals
          -----------------

 1e-integrals will be neglected if expon. factor < 0.766812E-14

          ------------------------
          nuclear repulsion energy  :   473.468009607    
          ------------------------


                  -------------------------------------------- 
                 |  HXX+RIRPA total energy     =   -426.62654934008  |
                  --------------------------------------------- 
                 :  RIRPA correlation energy   =     -3.56479127714  :
                 :  HXX total energy           =   -423.06175806294  :
                 :  Hartree energy             =    677.02341354676  :
                 :  Exact Exchange energy      =    -57.69258043701  :
                  ............................................. 


    ------------------------------------------------------------------------
    Rirpa Energy profiling         cpu                    wall         ratio
    ------------------------------------------------------------------------
    module                         sec     %               sec     %
    ------------------------------------------------------------------------
    RIRPA_energy              21497.2  100.00        11486.1  100.00   1.9
    riccbound                    38.0    0.18           35.6    0.31   1.1
    ccmkbaoi                   1702.7    7.92          171.5    1.49   9.9
    ecrpa                      9718.5   45.21         1278.5   11.13   7.6
    tread                       671.4    3.12          180.3    1.57   3.7
    tqbuild                    8370.4   38.94          972.7    8.47   8.6
    trpaln                      556.8    2.59           58.8    0.51   9.5
    ehxx                      10008.6   46.56         9994.8   87.02   1.0
    ------------------------------------------------------------------------
    sum                       52592.5  244.65        24184.0  210.55   2.2
    ------------------------------------------------------------------------

 residuum convergence criterium   :  0.10E-04


 integral neglect threshold       :  0.16E-11
 integral storage threshold THIZE :  0.10E-04
 integral storage threshold THIME :         5


 WARNING : cannot change filename for statistics 
  
           ------------------
           density functional
           ------------------
 PBE functional
 exchange:    LDA + PBE
 correlation: LDA (PW) + PBE
 iterations will be done with small grid
  
 spherical integration : Lebedev's spherical grid
 spherical gridsize    :           5
    i.e. gridpoints    :         590
 value for diffuse not defined
 radial integration    : Chebyshev 2nd kind (scaling 3)
 radial gridsize       :           8
 integration cells     :          23
 partition function    : becke
 partition sharpness   :           3
  
 preparing numerical integration ....
          Overall gridpoints after grid construction =        104050

 Calculating ground state density on molecular grid

 Integral of ground state density: N =   71.99988581568584    



          IRREP   tensor space dimension   number of roots

           a             55908                   1
 number of passes:    1
 
 Number of eigenvalues < 6e-3:            0
 
 
            -----------------------------
            Complex frequency integration
            -----------------------------
 
 Number of Clenshaw-Curtis nodes:          200
 Optimized scaling parameter    :    2.63120738226359     
 Sensitivity measure            :  -4.207360848607067E-011
 
 Contributions to RI integral batches: 
  neglected integral batches:       17934
  direct contribution:              61866
  memory contribution:           0

 maximum number of Davidson iterations set to   25


 logfile dipl_a    exists already

 found      1 converged vectors on dipl_a   
 read       1 vectors from logfile dipl_a   


                    ------------------

                     CPKS equations   

                    ------------------


                       Block Davidson iteration


 total number of roots to be determined:   1


 maximum core memory set to 20000 MB,
 corresponding to      583 vectors in CAO basis


 maximum number of simultaneously treated vectors (including degeneracy):        1


 Iteration IRREP Converged      Max. Euclidean
                 roots          residual norm

    1       a        0        8.533858011787026D-04
 
    2       a        0        2.372750753626727D-05
 
    3       a        1        8.821748198446169D-06
 

 converged!


 Switching to fine grid

 preparing numerical integration ....
          Overall gridpoints after grid construction =        342613

 Calculating ground state density on molecular grid

 Integral of ground state density: N =   71.99998922843844    



 Iteration IRREP Converged      Max. Euclidean
                 roots          residual norm

    4       a        0        1.257164785041580D-04
 

 NOTE: Residual norms are larger than 1.00D-05 due to mgrid option!

 Eigenpairs written on logfile dipl_a   



 IRREP   Vector     Frequency            Euclidean residual norm

  a         1    0.000000000000000D+00    1.257164785041580D-04
 

                    -------------------

                     relaxed densities 

                    -------------------

    ----------------------------------------
     S+T+V CONTRIBUTIONS TO ENERGY GRADIENT 
    ----------------------------------------

 1e-integral 1st. derivatives will be neglected if expon. factor < 0.100000E-10


    -----------------------------------------------
     TWO ELECTRON CONTRIBUTIONS TO ENERGY GRADIENT 
    -----------------------------------------------

 setting up bound for integral derivative estimation

 increment for numerical differentiation : 0.00050000

 biggest AO integral is expected to be     4.948106643
 biggest cartesian 1st derivative AO integral is expected to be    13.473850899

 biggest 1-particle AO density matrix element is expected to be    1.9668010567

 core memory to be involved in 2e-gradient :
   symmetry shell pair data              :         1
   two particle density+dens. estimates  :    694456
   derivative integrals                  :   3753794
   ij-primitive data                     :       900
   derivative integral bound             :    239400
   totally                               :   3994092


 setting up bound for integral derivative estimation

 increment for numerical differentiation : 0.00050000

 biggest AO integral is expected to be     4.948106643
 biggest cartesian 1st derivative AO integral is expected to be    13.473850899

 2e-integral 1st. derivatives will be neglected if expon. factor < 0.935762E-20
 outer boundary for 2e-integral derivative neglection is 0.403175E-21

 Integrated ground state density     :   71.99998922843845    


          ------------------------------------------------
           cartesian gradient of the energy (hartree/bohr)
          ------------------------------------------------

  ATOM      1 c           2 c           3 o           4 o           5 c 
dE/dx -0.2763738D-06  0.5149907D-06 -0.3014766D-06 -0.1931237D-06  0.2512331D-06
dE/dy  0.1429555D-06 -0.2974230D-06  0.1099051D-06 -0.3134998D-06  0.6281214D-06
dE/dz -0.3100157D-06 -0.1081704D-05  0.3411449D-06  0.5272894D-06 -0.4736464D-06

  ATOM      6 c           7 c           8 c           9 c          10 h 
dE/dx  0.2329082D-06 -0.1555378D-06  0.3151948D-07 -0.7393308D-08  0.1461853D-06
dE/dy -0.1596221D-06 -0.2702149D-06 -0.2028740D-06  0.1335571D-06 -0.8850148D-07
dE/dz  0.9364136D-07 -0.9750734D-07 -0.1837608D-08  0.2690287D-06 -0.4062023D-06

  ATOM     11 h          12 h          13 h          14 h          15 h 
dE/dx  0.2243607D-06  0.1103185D-06 -0.1321008D-06 -0.2591606D-06 -0.1476112D-06
dE/dy  0.2999731D-06  0.7390202D-07 -0.1643399D-06  0.1663499D-07  0.1319987D-06
dE/dz -0.3000044D-06  0.1109623D-06  0.1092375D-06 -0.1003919D-06  0.8807845D-07

  ATOM     16 h          17 h          18 h          19 h          20 h 
dE/dx -0.1305716D-06  0.1138882D-06  0.1455589D-06 -0.9604533D-08  0.2013414D-06
dE/dy -0.1651959D-06 -0.9324030D-07 -0.3449099D-07 -0.4676872D-07 -0.1297399D-06
dE/dz  0.4033318D-07  0.8620476D-07  0.2152458D-06  0.2907797D-06  0.2182869D-08

  ATOM     21 h          22 h          23 h 
dE/dx -0.1784986D-06 -0.3184819D-07 -0.2122490D-07
dE/dy -0.1721294D-06  0.2535121D-08 -0.4708080D-07
dE/dz  0.9703468D-07  0.1504066D-06  0.2669152D-06
 
 resulting FORCE  (fx,fy,fz) = (0.128D-06,-.646D-06,-.828D-07)
 resulting MOMENT (mx,my,mz) = (-.607D-05,-.181D-04,-.646D-05)


 **********************************************************************
  |maximum component of gradient| : 0.10817039E-05  (atom  2 c )       
   gradient norm                  : 0.21097549E-05
 **********************************************************************

 exx =      -0.000002 eyy =      -0.000000 ezz =       0.000000
 eyz =      -0.000003 exz =       0.000006 exy =      -0.000002

   ***  cartesian gradients written onto <gradient>  ***
 
 
 
 ==============================================================================
                           electrostatic moments
 ==============================================================================

 reference point for electrostatic moments:    0.00000   0.00000   0.00000

 
              nuc           gs,e       ->  gs,tot          rpa       ->  total
 ------------------------------------------------------------------------------
                          charge      
 ------------------------------------------------------------------------------
          72.000000     -72.000000       0.000000      -0.000000       0.000000
 
 ------------------------------------------------------------------------------
                       dipole moment  
 ------------------------------------------------------------------------------
   x     -53.730813      54.001543       0.270730      -0.000572       0.270158
   y      33.085379     -33.805345      -0.719966       0.028703      -0.691262
   z      12.662775     -12.972049      -0.309274       0.018938      -0.290336
 
   | dipole moment | =     0.7969 a.u. =     2.0256 debye 
 
 ------------------------------------------------------------------------------
                     quadrupole moment
 ------------------------------------------------------------------------------
  xx    1130.931021   -1173.035594     -42.104573       0.487873     -41.616701
  yy     395.438669    -443.440508     -48.001839       0.459150     -47.542689
  zz     184.551650    -225.765843     -41.214193       0.380282     -40.833911
  xy    -467.265237     471.343571       4.078335      -0.113560       3.964774
  xz      25.444745     -22.227760       3.216984       0.022793       3.239777
  yz      11.184248     -13.338690      -2.154442       0.031258      -2.123183
 
     1/3  trace=     -43.331100
     anisotropy=      11.512575
 
 ==============================================================================
 

    ------------------------------------------------------------------------
    Rirpa profiling                cpu                    wall         ratio
    ------------------------------------------------------------------------
    module                         sec     %               sec     %
    ------------------------------------------------------------------------
    RIRPA                    155646.0  100.00        88576.0  100.00   1.8
    RIRPA_energy              21497.2   13.81        11486.1   12.97   1.9
    ccmkbaoi                   1702.7    1.09          171.5    0.19   9.9
    ecrpa                      9718.5    6.24         1278.5    1.44   7.6
    tread                       671.4    0.43          180.3    0.20   3.7
    tqbuild                    8370.4    5.38          972.7    1.10   8.6
    trpaln                      556.8    0.36           58.8    0.07   9.5
    ehxx                      10008.6    6.43         9994.8   11.28   1.0
    RIRPA_grad               134148.8   86.19        77089.8   87.03   1.7
    rirhs                     59728.9   38.37         6918.5    7.81   8.6
    respon                     2169.9    1.39          313.7    0.35   6.9
    rparelax                   1116.7    0.72          141.0    0.16   7.9
    egdfin                    70652.6   45.39        69665.8   78.65   1.0
    ------------------------------------------------------------------------
    sum                      476176.7  305.94       266902.1  301.33   1.8
    ------------------------------------------------------------------------


    ------------------------------------------------------------------------
         total  cpu-time :   1 days 19 hours 14 minutes and  6 seconds
         total wall-time :   1 days  0 hours 36 minutes and 16 seconds
    ------------------------------------------------------------------------


   ****  rirpa : all done  ****


    2016-02-27 20:29:08.174 

                                 ****   rirpa : all done  ****
fine, there is no data group "$actual step"
script actual: unknown actual step rirpa
next step = unknown
 energy change  : actual value =   0.9170E-07 threshold =   0.1000E-06
 geom. gradient : actual value =   0.5929E-05 threshold =   0.1000E-03

CONVERGENCY CRITERIA FULFILLED IN CYCLE 26

