 operating system is UNIX !

 ridft (c-12-17.gp.local) : TURBOMOLE V7.2 ( 21285 ) 30 Jun 2017 at 11:51:10
 Copyright (C) 2017 TURBOMOLE GmbH, Karlsruhe


    2018-02-07 23:04:20.608 



                                  r i d f t

                        DFT program with RI approximation 
                                for coulomb part 




                                                 
                                 References:     
                                                 
          TURBOMOLE:                             
              R. Ahlrichs, M. Baer, M. Haeser, H. Horn, and
              C. Koelmel
              Electronic structure calculations on workstation
              computers: the program system TURBOMOLE
              Chem. Phys. Lett. 162: 165 (1989)
          Density Functional:                              
              O. Treutler and R. Ahlrichs                      
              Efficient Molecular Numerical Integration Schemes
              J. Chem. Phys. 102: 346 (1995)                   
          Parallel Version:                                
              Performance of parallel TURBOMOLE for Density    
              Functional Calculations                          
              M. v. Arnim and R. Ahlrichs                      
              J. Comp. Chem. 19: 1746 (1998)                   
          RI-J Method:                                     
              Auxiliary Basis Sets to approximate Coulomb      
              Potentials                                       
              Chem. Phys. Lett. 240: 283 (1995)                
              K. Eichkorn, O. Treutler, H. Oehm, M. Haeser     
              and R. Ahlrichs                                  
              Chem. Phys. Lett. 242: 652 (1995)                
                                                           
              Auxiliary Basis Sets for Main Row Atoms and their
              Use to approximate Coulomb Potentials            
              K. Eichkorn, F. Weigend, O. Treutler and         
              R. Ahlrichs                                      
              Theo. Chem. Acc. 97: 119 (1997)                   
                                                           
              Accurate Coulomb-fitting basis sets for H to Rn 
              F. Weigend                                        
              Phys. Chem. Chem. Phys. 8: 1057 (2006)            
                                                           
          Multipole accelerated RI-J (MARI-J):             
              Fast evaluation of the Coulomb potential for     
              electron densities using multipole accelerated   
              resolution of identity approximation             
              M. Sierka, A. Hogekamp and R. Ahlrichs           
              J. Chem. Phys. 118: 9136 (2003)                  
          RI-JK Method:                                     
              A fully direct RI-HF algorithm: Implementation,
              optimised auxiliary basis sets, demonstration of
              accuracy and efficiency                         
              F. Weigend                                      
              Phys. Chem. Chem. Phys. 4: 4285 (2002)           
          Two-component HF and DFT with spin-orbit coupling:  
              Self-consistent treatment of spin-orbit         
              interactions with efficient Hartree-Fock and    
              density functional methods                      
              M. K. Armbruster, F. Weigend, C. van Wüllen and 
              W. Klopper                                      
              Phys. Chem. Chem. Phys. 10: 1748 (2008)         
          Relativistic all-electron 2c calculations           
              An efficient implementation of two-component    
              relativistic exact-decoupling methods for large 
              molecules                                       
              D. Peng, N. Middendorf, F. Weigend, M. Reiher   
              J. Chem. Phys. 138, 184105 (2013)               
                                         




              +--------------------------------------------------+
              |      general information about current run       |
              +--------------------------------------------------+

 

 DENSITY CONVERGENCE CHECK SWITCHED ON !
 SCF CONVERGENCE IF RMS(delta[D]) <     0.1000000000E-06

 PBE functional
 exchange:    LDA + PBE
 correlation: LDA (PW) + PBE
 A DFT calculation using the RI-J approximation will be carried out.
 Allocatable memory for RI due to $ricore (MB):                  5000


              +--------------------------------------------------+
              | Atomic coordinate, charge and isotop information |
              +--------------------------------------------------+

                    atomic coordinates            atom    charge  isotop
         -5.66350922    4.31235504   -2.49632822    c      0.000     0
         -9.61114711    3.98543241   -0.17007535    c      0.000     0
         -8.35258951    4.12149270    2.06169121    c      0.000     0
         -5.64650169    4.31424476    1.95208710    c      0.000     0
          2.20908985    4.48809957    1.92374120    c      0.000     0
          2.21853848    4.55990916   -2.76466933    c      0.000     0
          5.90728389    4.46920230   -0.76722881    c      0.000     0
          4.89061123    4.48620984    1.67807681    c      0.000     0
          8.87793337    4.32180367    2.18641314    c      0.000     0
         -8.32046416    4.09314680   -2.39239328    n      0.000     0
         -4.40306189    4.42573860   -0.26456166    n      0.000     0
         -4.26511188    4.38605435    4.06858036    n      0.000     0
          1.01478293    4.53723245   -0.45731372    n      0.000     0
          4.72053588    4.51266601   -3.01789263    n      0.000     0
          6.77844764    4.39550299    3.49410362    n      0.000     0
          8.47920116    4.38416463   -0.40440139    n      0.000     0
          0.74833155    4.66951327   -4.84903726    n      0.000     0
         -4.63738793    4.36715709   -4.60337286    o      0.000     0
          0.91084800    4.42195915    3.89094611    o      0.000     0
         -9.20485599    3.85315158   -4.07424954    h      0.000     0
        -11.64071298    3.75488583   -0.29857673    h      0.000     0
         -9.35414436    4.00243995    3.83992350    h      0.000     0
         -5.11926809    4.10259543    5.75232635    h      0.000     0
         -2.29034807    4.40495162    3.99110159    h      0.000     0
         -0.96187060    4.51644546   -0.41951920    h      0.000     0
         10.76199033    4.20275092    2.96498030    h      0.000     0
          9.78689164    4.18385366   -1.78579120    h      0.000     0
          1.64406174    4.40306189   -6.51388598    h      0.000     0
         -1.19052746    4.50321737   -4.77911739    h      0.000     0
         11.64638216   -1.85382134    1.95586655    c      6.000     0
         10.94340404   -1.85382134    4.43896669    c      6.000     0
          8.33747170   -1.79335010    5.17029070    c      6.000     0
          6.45908392   -1.78012202    3.22954196    c      6.000     0
          7.18851821   -1.80279873    0.64439661    c      6.000     0
          9.80578890   -1.78957065   -0.03212534    c      6.000     0
          5.31768934   -1.71776105   -1.27556514    c      6.000     0
         10.48042113   -1.68752544   -2.59081453    c      6.000     0
          8.66061487   -1.57603159   -4.51455573    c      6.000     0
          6.03956472   -1.61193639   -3.85504131    c      6.000     0
          9.32579847   -1.42296378   -7.13749560    c      6.000     0
          7.52299974   -1.31524939   -8.97808886    c      6.000     0
          4.88116260   -1.37572062   -8.37715595    c      6.000     0
          4.16306667   -1.54579598   -5.77689279    c      6.000     0
          1.56280351   -1.60626721   -5.11926809    c      6.000     0
          0.83714868   -1.73287886   -2.53034329    c      6.000     0
          2.70608782   -1.72343023   -0.61227127    c      6.000     0
          3.86071049   -1.76122476    3.89472556    c      6.000     0
          1.98232271   -1.75555558    1.96909463    c      6.000     0
         -0.61416099   -1.78957065    2.62860905    c      6.000     0
         -2.48498986   -1.83870353    0.71242675    c      6.000     0
         -1.76122476   -1.77445284   -1.86704942    c      6.000     0
         -0.31369454   -1.56280351   -7.03545039    c      6.000     0
         -2.91584742   -1.66484872   -6.37404625    c      6.000     0
         -3.63961253   -1.80657818   -3.79645980    c      6.000     0
          3.00088510   -1.29257267  -10.23853619    c      6.000     0
          0.42329865   -1.39461789   -9.63004437    c      6.000     0
         -4.81124273   -1.63461310   -8.29967718    c      6.000     0
         -7.36237301   -1.76878366   -7.60803741    c      6.000     0
         -8.11637374   -1.92185148   -5.07580439    c      6.000     0
         -6.23798596   -1.90862339   -3.13127620    c      6.000     0
         -5.09470165   -1.94830764    1.37572062    c      6.000     0
         -6.96364080   -2.03145559   -0.54613085    c      6.000     0
         -1.51933981   -1.35304391  -11.51977051    c      6.000     0
         -4.01566803   -1.47398638  -10.88482253    c      6.000     0
         -9.57902177   -2.15995697    0.13228083    c      6.000     0
        -11.41772529   -2.19775149   -1.85571106    c      6.000     0
        -10.72041635   -2.06925012   -4.34070093    c      6.000     0
        -10.25365400   -2.19208231    2.69285974    c      6.000     0
         -8.43951691   -2.05224258    4.61849067    c      6.000     0
         -5.81846676   -1.93507956    3.95897625    c      6.000     0
         -3.94196871   -1.82358572    5.88082773    c      6.000     0
         -1.34359528   -1.73665832    5.21942358    c      6.000     0
          0.53101304   -1.67240763    7.13560588    c      6.000     0
          3.13316593   -1.67618708    6.47231201    c      6.000     0
          5.02667151   -1.64217201    8.39794293    c      6.000     0
          7.58158125   -1.71587133    7.70441344    c      6.000     0
          4.22920709   -1.54201652   10.98497801    c      6.000     0
         -0.20975960   -1.58925968    9.73397931    c      6.000     0
          1.73098914   -1.50989118   11.62370544    c      6.000     0
         -4.66573382   -1.73665832    8.48487034    c      6.000     0
         -2.78734605   -1.60626721   10.34814030    c      6.000     0
         -9.10847996   -1.97476381    7.24332027    c      6.000     0
         -7.30757096   -1.81035764    9.08580325    c      6.000     0
         13.63626377   -1.88783641    1.44186104    h      1.000     0
         12.37203699   -1.88405695    5.91673252    h      1.000     0
         12.47408220   -1.68185626   -3.10104058    h      1.000     0
         11.31756981   -1.39272816   -7.63638330    h      1.000     0
          8.06913059   -1.19052746  -10.95663212    h      1.000     0
          3.55457486   -1.16407130  -12.21518972    h      1.000     0
         -8.79856487   -1.76311448   -9.08013407    h      1.000     0
         -0.95809115   -1.22832199  -13.49264459    h      1.000     0
         -5.45752907   -1.44564049  -12.34936028    h      1.000     0
        -13.40571719   -2.32436314   -1.34548501    h      1.000     0
        -12.15093903   -2.10137546   -5.81657704    h      1.000     0
        -12.24542534   -2.28656862    3.19930634    h      1.000     0
          9.01588338   -1.69508434    9.17651010    h      1.000     0
          5.67295785   -1.48910419   12.44762604    h      1.000     0
          1.16785075   -1.43241241   13.59846925    h      1.000     0
         -3.34292553   -1.54012680   12.32668356    h      1.000     0
        -11.09836158   -2.05413231    7.74598742    h      1.000     0
         -7.85748126   -1.74988640   11.06623623    h      1.000     0
 
       center of nuclear mass  :    0.00041850   -0.00628277    0.01160794
       center of nuclear charge:    0.10984724   -1.72920992    0.05068002

              +--------------------------------------------------+
              |               basis set information              |
              +--------------------------------------------------+

              we will work with the 1s 3p 5d 7f 9g ... basis set
              ...i.e. with spherical basis functions...

   type   atoms  prim   cont   basis
   ---------------------------------------------------------------------------
    c       63     77     55   cc-pVQZ   [5s4p3d2f1g|21s6p3d2f1g]
    n        8     77     55   cc-pVQZ   [5s4p3d2f1g|21s6p3d2f1g]
    o        2     77     55   cc-pVQZ   [5s4p3d2f1g|21s6p3d2f1g]
    h       28     32     30   cc-pVQZ   [4s3p2d1f|6s3p2d1f]
   ---------------------------------------------------------------------------
   total:  101   6517   4855
   ---------------------------------------------------------------------------

   total number of primitive shells          :  111
   total number of contracted shells         : 1375
   total number of cartesian basis functions : 6090
   total number of SCF-basis functions       : 4855


 integral neglect threshold       :  0.55E-14
 integral storage threshold THIZE :  0.10E-04
 integral storage threshold THIME :         5

 RI-J AUXILIARY BASIS SET information:

              we will work with the 1s 3p 5d 7f 9g ... basis set
              ...i.e. with spherical basis functions...

   type   atoms  prim   cont   basis
   ---------------------------------------------------------------------------
    c       63     70     49   cc-pVQZ   [6s4p3d1f1g|12s5p4d2f1g]
    n        8     70     49   cc-pVQZ   [6s4p3d1f1g|12s5p4d2f1g]
    o        2     70     49   cc-pVQZ   [6s4p3d1f1g|12s5p4d2f1g]
    h       28     16     11   cc-pVQZ   [3s1p1d|5s2p1d]
   ---------------------------------------------------------------------------
   total:  101   5558   3885
   ---------------------------------------------------------------------------

   total number of primitive shells          :   80
   total number of contracted shells         : 1235
   total number of cartesian basis functions : 4789
   total number of SCF-basis functions       : 3885


 symmetry group of the molecule :   c1 

 the group has the following generators :
   c1(z)

    1 symmetry operations found

 there are 1 real representations :   a   

 maximum number of shells which are related by symmetry :  1


    mo occupation :
   irrep   mo's   occupied
    a     4855      171
 
 number of basis functions   :                   4855
 number of occupied orbitals :                    171
 
  
           ------------------
           density functional
           ------------------
 Dummy atoms with grid-point found.
 DFT quadrature threshold dgrenze tightened by factor 1/10.

 PBE functional
 exchange:    LDA + PBE
 correlation: LDA (PW) + PBE
 Dummy atoms with grid-point found.
 DFT quadrature threshold dgrenze tightened by factor 1/10.

 Dummy atoms with grid-point found.
 DFT quadrature threshold dgrenze tightened by factor 1/10.


 iterations will be done with small grid
  
 spherical integration : Lebedev's spherical grid
 spherical gridsize    :                     5
    i.e. gridpoints    :                   590
 value for diffuse not defined
 radial integration    : Chebyshev 2nd kind (scaling 3)
 radial gridsize       :                     8
 integration cells     :                   101
 partition function    : becke
 partition sharpness   :                     3
  
 found dummy atom(s) with basis: included in dft

 biggest AO integral is expected to be     4.785886462
  
           ------------------------
               RI-J - INFORMATION
           ------------------------
 Contributions to RI integral batches: 
  neglected integral batches:                579069
  direct contribution:                       329062
  memory contribution:                 37869
 Memory core needed for (P|Q) and Cholesky    116 MByte
 Memory core minimum needed except of (P|Q)     9 MByte
 Total minimum memory core needed (sum)       125 MByte
  
 ****************************************
 Memory allocated for RI-J  4547 MByte
 ****************************************
                                            

          ------------------------
          nuclear repulsion energy  :   6437.58245189    
          ------------------------


         -----------------
         -S,T+V- integrals
         -----------------

 1e-integrals will be neglected if expon. factor < 0.548762E-15
 
   Difference densities algorithm switched on.
   The maximal number of linear combinations of
   difference densities is                    20 .

 DIIS switched on: error vector is FDS-SDF
 Max. Iterations for DIIS is     :   4
 DIIS matrix (see manual) 
    Scaling factor of diagonals  :  1.200
    threshold for scaling factor :  0.000

 scf convergence criterion : increment of total energy < .1000000D-08
                  and increment of one-electron energy < .1000000D-05

  MOs are in ASCII format !


 automatic virtual orbital shift switched on 
      shift if e(lumo)-e(homo) < 0.10000000    


 reading orbital data $scfmo  from file mos
 orbital characterization : expanded
 mo provided and orthogonalized by Cholesky decomposition

 DSCF restart information will be dumped onto file mos


 Starting SCF iterations

          Overall gridpoints after grid construction =        589526

 ITERATION  ENERGY          1e-ENERGY        2e-ENERGY     RMS[dD(SAO)]   TOL
   1  -2061.7205997035    -15532.679664     7033.3766124    0.000D+00 0.547D-14
                            Exc = -291.397135751     Coul =  7324.77374817    
                              N = 342.00752253    
                            current damping = 0.700
 
          max. resid. norm for Fia-block=  2.721D-01 for orbital     36a         
          max. resid. fock norm         =  1.882D+01 for orbital   4468a         

 ITERATION  ENERGY          1e-ENERGY        2e-ENERGY     RMS[dD(SAO)]   TOL
   2  -2065.9843341147    -15588.602542     7085.0357564    0.840D-01 0.544D-14
                            Exc = -295.741515660     Coul =  7380.77727208    
                              N = 342.00609023    
                            current damping = 0.650
 
          Norm of current diis error:  8.1248    
          max. resid. norm for Fia-block=  1.242D-01 for orbital     58a         
          max. resid. fock norm         =  1.439D-01 for orbital     58a         

 ITERATION  ENERGY          1e-ENERGY        2e-ENERGY     RMS[dD(SAO)]   TOL
   3  -2066.8827274056    -15602.902459     7098.4372799    0.179D-01 0.339D-14
                            Exc = -296.884932275     Coul =  7395.32221222    
                              N = 342.00538995    
                            current damping = 0.550
 
          Norm of current diis error:  3.8451    
          max. resid. norm for Fia-block=  6.112D-02 for orbital     58a         
          max. resid. fock norm         =  6.857D-02 for orbital     58a         

 ITERATION  ENERGY          1e-ENERGY        2e-ENERGY     RMS[dD(SAO)]   TOL
   4  -2067.1237130283    -15613.256720     7108.5505548    0.273D-02 0.276D-14
                            Exc = -297.571887582     Coul =  7406.12244233    
                              N = 342.00502054    
                            current damping = 0.450
 
          Norm of current diis error:  1.4915    
          max. resid. norm for Fia-block=  2.434D-02 for orbital     60a         
          max. resid. fock norm         =  2.794D-02 for orbital     60a         

 ITERATION  ENERGY          1e-ENERGY        2e-ENERGY     RMS[dD(SAO)]   TOL
   5  -2067.1619468165    -15616.035560     7111.2911611    0.168D-02 0.231D-14
                            Exc = -297.833911403     Coul =  7409.12507247    
                              N = 342.00485259    
                            current damping = 0.350
 
          Norm of current diis error: 0.63970    
          max. resid. norm for Fia-block=  8.528D-03 for orbital     62a         
          max. resid. fock norm         =  1.726D-02 for orbital   4834a         
          mo-orthogonalization: Cholesky decomposition

 ITERATION  ENERGY          1e-ENERGY        2e-ENERGY     RMS[dD(SAO)]   TOL
   6  -2067.1656030786    -15617.879566     7113.1315107    0.894D-03 0.210D-14
                            Exc = -297.967494154     Coul =  7411.09900484    
                              N = 342.00479572    
                            current damping = 0.250
 
          Norm of current diis error: 0.48134    
          max. resid. norm for Fia-block=  5.048D-03 for orbital    164a         
          max. resid. fock norm         =  1.136D-02 for orbital   4834a         
          irrep a   : virtual orbitals shifted by    0.00929

 ITERATION  ENERGY          1e-ENERGY        2e-ENERGY     RMS[dD(SAO)]   TOL
   7  -2067.1698070005    -15618.792641     7114.0403825    0.330D-03 0.204D-14
                            Exc = -297.981620597     Coul =  7412.02200306    
                              N = 342.00477790    
                            current damping = 0.150
 
          Norm of current diis error: 0.16141    
          max. resid. norm for Fia-block=  2.259D-03 for orbital    163a         
          max. resid. fock norm         =  5.376D-03 for orbital   4826a         
          irrep a   : virtual orbitals shifted by    0.01885

 ITERATION  ENERGY          1e-ENERGY        2e-ENERGY     RMS[dD(SAO)]   TOL
   8  -2067.1697554305    -15617.376437     7112.6242297    0.283D-03 0.199D-14
                            Exc = -297.977977431     Coul =  7410.60220710    
                              N = 342.00477511    
                            current damping = 0.200
 
          Norm of current diis error: 0.16788    
          max. resid. norm for Fia-block=  9.414D-04 for orbital    171a         
          max. resid. fock norm         =  2.544D-03 for orbital   4833a         
          irrep a   : virtual orbitals shifted by    0.01568

 ITERATION  ENERGY          1e-ENERGY        2e-ENERGY     RMS[dD(SAO)]   TOL
   9  -2067.1703432791    -15617.980903     7113.2281080    0.732D-04 0.199D-14
                            Exc = -297.979564063     Coul =  7411.20767206    
                              N = 342.00477470    
                            current damping = 0.250
 
          Norm of current diis error: 0.54898E-01
          max. resid. norm for Fia-block=  4.732D-04 for orbital    164a         
          max. resid. fock norm         =  9.855D-04 for orbital   4794a         
          irrep a   : virtual orbitals shifted by    0.01223

 ITERATION  ENERGY          1e-ENERGY        2e-ENERGY     RMS[dD(SAO)]   TOL
  10  -2067.1704007956    -15618.140027     7113.3871741    0.234D-04 0.199D-14
                            Exc = -297.982821749     Coul =  7411.36999585    
                              N = 342.00477451    
                            current damping = 0.100
 
          Norm of current diis error: 0.21955E-01
          max. resid. norm for Fia-block=  2.523D-04 for orbital    169a         
          max. resid. fock norm         =  5.484D-04 for orbital     22a         
          irrep a   : virtual orbitals shifted by    0.02277
          mo-orthogonalization: Cholesky decomposition

 ITERATION  ENERGY          1e-ENERGY        2e-ENERGY     RMS[dD(SAO)]   TOL
  11  -2067.1704070617    -15618.244150     7113.4912908    0.139D-04 0.198D-14
                            Exc = -297.981793201     Coul =  7411.47308398    
                              N = 342.00477454    
                            current damping = 0.050
 
          Norm of current diis error: 0.13674E-01
          max. resid. norm for Fia-block=  1.002D-04 for orbital    169a         
          max. resid. fock norm         =  2.380D-04 for orbital   4825a         
          irrep a   : virtual orbitals shifted by    0.02628

 ITERATION  ENERGY          1e-ENERGY        2e-ENERGY     RMS[dD(SAO)]   TOL
  12  -2067.1704110253    -15618.179665     7113.4268025    0.123D-04 0.197D-14
                            Exc = -297.981535258     Coul =  7411.40833772    
                              N = 342.00477465    
                            current damping = 0.100
 
          Norm of current diis error: 0.34332E-02
          max. resid. norm for Fia-block=  4.879D-05 for orbital    167a         
          max. resid. fock norm         =  1.320D-04 for orbital     50a         
          irrep a   : virtual orbitals shifted by    0.02277

 ITERATION  ENERGY          1e-ENERGY        2e-ENERGY     RMS[dD(SAO)]   TOL
  13  -2067.1704110828    -15618.185992     7113.4331290    0.242D-05 0.196D-14
                            Exc = -297.981778165     Coul =  7411.41490721    
                              N = 342.00477455    
                            current damping = 0.150
 
          Norm of current diis error: 0.30146E-02
          max. resid. norm for Fia-block=  2.340D-05 for orbital    167a         
          max. resid. fock norm         =  5.104D-05 for orbital   4819a         
          irrep a   : virtual orbitals shifted by    0.01926

 ITERATION  ENERGY          1e-ENERGY        2e-ENERGY     RMS[dD(SAO)]   TOL
  14  -2067.1704112601    -15618.187805     7113.4349419    0.586D-06 0.196D-14
                            Exc = -297.981832818     Coul =  7411.41677468    
                              N = 342.00477454    
                            current damping = 0.050
 
          Norm of current diis error: 0.73187E-03
          max. resid. norm for Fia-block=  1.022D-05 for orbital    171a         
          max. resid. fock norm         =  2.277D-05 for orbital     13a         
          irrep a   : virtual orbitals shifted by    0.02628

 ITERATION  ENERGY          1e-ENERGY        2e-ENERGY     RMS[dD(SAO)]   TOL
  15  -2067.1704112563    -15618.185355     7113.4324922    0.646D-06 0.194D-14
                            Exc = -297.981739215     Coul =  7411.41423140    
                              N = 342.00477456    
                            current damping = 0.100
 
          Norm of current diis error: 0.85468E-03
          max. resid. norm for Fia-block=  4.723D-06 for orbital    171a         
          max. resid. fock norm         =  1.165D-05 for orbital   4819a         
          irrep a   : virtual orbitals shifted by    0.02277
          mo-orthogonalization: Cholesky decomposition

 ITERATION  ENERGY          1e-ENERGY        2e-ENERGY     RMS[dD(SAO)]   TOL
  16  -2067.1704112703    -15618.185986     7113.4331229    0.230D-06 0.195D-14
                            Exc = -297.981726527     Coul =  7411.41484939    
                              N = 342.00477456    
                            current damping = 0.150
 
          Norm of current diis error: 0.28068E-03
          max. resid. norm for Fia-block=  2.890D-06 for orbital    168a         
          max. resid. fock norm         =  7.283D-06 for orbital   4795a         
          irrep a   : virtual orbitals shifted by    0.01926

 ITERATION  ENERGY          1e-ENERGY        2e-ENERGY     RMS[dD(SAO)]   TOL
  17  -2067.1704112715    -15618.185301     7113.4324382    0.124D-06 0.195D-14
                            Exc = -297.981752493     Coul =  7411.41419070    
                              N = 342.00477456    
                            current damping = 0.200
 
          Norm of current diis error: 0.19515E-03
          max. resid. norm for Fia-block=  1.797D-06 for orbital    169a         
          max. resid. fock norm         =  4.393D-06 for orbital   4816a         
          irrep a   : virtual orbitals shifted by    0.01575

 ITERATION  ENERGY          1e-ENERGY        2e-ENERGY     RMS[dD(SAO)]   TOL
  18  -2067.1704112721    -15618.186515     7113.4336521    0.190D-06 0.193D-14
                            Exc = -297.981762038     Coul =  7411.41541416    
                              N = 342.00477456    
                            current damping = 0.250
 
          Norm of current diis error: 0.60559E-04
          max. resid. norm for Fia-block=  7.705D-07 for orbital    167a         
          max. resid. fock norm         =  1.916D-06 for orbital   4832a         
          irrep a   : virtual orbitals shifted by    0.01224

 DENSITY CONVERGED !


 ITERATION  ENERGY          1e-ENERGY        2e-ENERGY     RMS[dD(SAO)]   TOL
  19  -2067.1704112720    -15618.186060     7113.4331967    0.682D-07 0.189D-14
                            Exc = -297.981756367     Coul =  7411.41495302    
                              N = 342.00477456    
                            current damping = 0.300
 
          Norm of current diis error: 0.41016E-04
          max. resid. norm for Fia-block=  3.441D-07 for orbital    167a         
          max. resid. fock norm         =  6.998D-07 for orbital   4819a         
          irrep a   : virtual orbitals shifted by    0.00873

 ENERGY & DENSITY CONVERGED !

          Overall gridpoints after grid construction =       1596582

 ITERATION  ENERGY          1e-ENERGY        2e-ENERGY     RMS[dD(SAO)]   TOL
  20  -2067.1696434031    -15618.186072     7113.4339767    0.102D-07 0.188D-14
                            Exc = -297.980987752     Coul =  7411.41496444    
                              N = 342.00028548    
                            current damping = 0.350
 
          Norm of current diis error: 0.13025E-04
          max. resid. norm for Fia-block=  9.124D-08 for orbital    163a         
          max. resid. fock norm         =  2.963D-07 for orbital    812a         

 End of SCF iterations

   convergence criteria satisfied after   20 iterations


                  ------------------------------------------ 
                 |  total energy      =  -2067.16964340310  |
                  ------------------------------------------ 
                 :  kinetic energy    =   2057.38803744647  :
                 :  potential energy  =  -4124.55768084957  :
                 :  virial theorem    =      1.99526811649  :
                 :  wavefunction norm =      1.00000000000  :
                  .......................................... 


 <geterg> : there is no data group $energy 


 orbitals $scfmo  will be written to file mos

    irrep                167a        168a        169a        170a        171a   
 eigenvalues H         -0.20924    -0.20505    -0.20499    -0.17662    -0.17653
            eV          -5.6937     -5.5799     -5.5782     -4.8061     -4.8038
 occupation              2.0000      2.0000      2.0000      2.0000      2.0000 

    irrep                172a        173a        174a        175a        176a   
 eigenvalues H         -0.10632    -0.10626    -0.08093    -0.08090    -0.07175
            eV          -2.8933     -2.8916     -2.2022     -2.2015     -1.9523
 
 
 
 
 ==============================================================================
                           electrostatic moments
 ==============================================================================

 reference point for electrostatic moments:    0.00000   0.00000   0.00000

 
              nuc           elec       ->  total
 ------------------------------------------------------------------------------
                          charge      
 ------------------------------------------------------------------------------
         342.000000    -342.000000      -0.000000
 
 ------------------------------------------------------------------------------
                       dipole moment  
 ------------------------------------------------------------------------------
   x      37.567756     -37.561745       0.006010
   y    -591.389793     591.405227       0.015434
   z      17.332568     -17.332048       0.000520
 
   | dipole moment | =     0.0166 a.u. =     0.0421 debye 
 
 ------------------------------------------------------------------------------
                     quadrupole moment
 ------------------------------------------------------------------------------
  xx   14425.264811  -14618.333074    -193.068263
  yy    1039.233718   -1271.474441    -232.240723
  zz   14413.076038  -14605.917176    -192.841138
  xy     197.378415    -196.612175       0.766239
  xz       6.175775      -6.145425       0.030349
  yz    -194.092885     193.645672      -0.447213
 
     1/3  trace=    -206.050042
     anisotropy=      39.316592
 
 ==============================================================================
 


    ------------------------------------------------------------------------
         total  cpu-time :  6 hours 26 minutes and  2 seconds
         total wall-time :  7 hours  8 minutes and 12 seconds
    ------------------------------------------------------------------------

   ****  ridft : all done  ****


    2018-02-08 06:12:32.330 

