 this is node-proc. number 0 running on node c-17-9.gp.local
 the total number of node-proc. spawned is  33

 dscfserver (c-17-9.gp.local) : TURBOMOLE V7.2 ( 21471 ) 7 Nov 2017 at 16:15:16
 Copyright (C) 2017 TURBOMOLE GmbH, Karlsruhe


    2018-02-20 08:22:09.742 

 
    0:01:35 ---- Start global counter...
    0:48:43 ---- ... finished.
 
    0:50:14 ---- Start global counter...
    1:33:38 ---- ... finished.
 
    1:35:08 ---- Start global counter...
    2:17:39 ---- ... finished.
 
    2:19:09 ---- Start global counter...
    2:59:33 ---- ... finished.
 
    3:01:04 ---- Start global counter...
    3:37:17 ---- ... finished.
 
    3:39:14 ---- Start global counter...
    4:12:11 ---- ... finished.
 
    4:13:43 ---- Start global counter...
    4:43:48 ---- ... finished.
 
    4:45:19 ---- Start global counter...
    5:12:53 ---- ... finished.
 
    5:14:24 ---- Start global counter...
    5:39:31 ---- ... finished.
 
    5:41:02 ---- Start global counter...
    6:03:47 ---- ... finished.
 
    6:05:46 ---- Start global counter...
    6:25:50 ---- ... finished.
 
    6:27:24 ---- Start global counter...
    6:44:56 ---- ... finished.
 
    6:46:30 ---- Start global counter...
    7:01:36 ---- ... finished.
 
    7:03:13 ---- Start global counter...
    7:16:37 ---- ... finished.
 
    7:18:11 ---- Start global counter...
    7:29:56 ---- ... finished.
 
    7:32:00 ---- Start global counter...
    7:44:18 ---- ... finished.
 
    7:45:38 ---- ByeBye Tag received


 ! Total wall-clock time in seconds  :    27938.4
 ! Time (sec) spent in global counter:    26299.1
 ! So-called SERIAL wall-clock time  :     1639.3

  *** Regular termination of server ***
 total turnaround time of dscfserver 27939.44 sec
 cpu elapsed by dscfserver process   26292.42 sec 

   ***  dscf server : all done  ***


    2018-02-20 16:07:49.187 

