Using OpenMPI from /sopt/mpi/openmpi-1.8.6/intel_15.0.3/bin/mpiexec
STARTING ridft ON 8 PROCESSORS!
RUNNING PROGRAM /modfac/apps/TURBOMOLE/7.0_intel/bin/em64t-unknown-linux-gnu_mpi/ridft_mpi.
PLEASE WAIT UNTIL ridft HAS FINISHED.
Look for the output in slave1.output.
  this is node-proc. number 1 running on node c-9-331.local
  the total number of node-proc. spawned is            8
  parallel platform: MPP, or cluster with fast interconnect

 ridft (c-9-331.local) : TURBOMOLE V7.0( ) 6 Jul 2015 at 19:34:44
 Copyright (C) 2015 TURBOMOLE GmbH, Karlsruhe


    2015-10-19 08:37:30.545 



                                  r i d f t

                        DFT program with RI approximation 
                                for coulomb part 




                                                 
                                 References:     
                                                 
          TURBOMOLE:                             
              R. Ahlrichs, M. Baer, M. Haeser, H. Horn, and
              C. Koelmel
              Electronic structure calculations on workstation
              computers: the program system TURBOMOLE
              Chem. Phys. Lett. 162: 165 (1989)
          Density Functional:                              
              O. Treutler and R. Ahlrichs                      
              Efficient Molecular Numerical Integration Schemes
              J. Chem. Phys. 102: 346 (1995)                   
          Parallel Version:                                
              Performance of parallel TURBOMOLE for Density    
              Functional Calculations                          
              M. v. Arnim and R. Ahlrichs                      
              J. Comp. Chem. 19: 1746 (1998)                   
          RI-J Method:                                     
              Auxiliary Basis Sets to approximate Coulomb      
              Potentials                                       
              Chem. Phys. Lett. 240: 283 (1995)                
              K. Eichkorn, O. Treutler, H. Oehm, M. Haeser     
              and R. Ahlrichs                                  
              Chem. Phys. Lett. 242: 652 (1995)                
                                                           
              Auxiliary Basis Sets for Main Row Atoms and their
              Use to approximate Coulomb Potentials            
              K. Eichkorn, F. Weigend, O. Treutler and         
              R. Ahlrichs                                      
              Theo. Chem. Acc. 97: 119 (1997)                   
                                                           
              Accurate Coulomb-fitting basis sets for H to Rn 
              F. Weigend                                        
              Phys. Chem. Chem. Phys. 8: 1057 (2006)            
                                                           
          Multipole accelerated RI-J (MARI-J):             
              Fast evaluation of the Coulomb potential for     
              electron densities using multipole accelerated   
              resolution of identity approximation             
              M. Sierka, A. Hogekamp and R. Ahlrichs           
              J. Chem. Phys. 118: 9136 (2003)                  
          RI-JK Method:                                     
              A fully direct RI-HF algorithm: Implementation,
              optimised auxiliary basis sets, demonstration of
              accuracy and efficiency                         
              F. Weigend                                      
              Phys. Chem. Chem. Phys. 4: 4285 (2002)           
          Two-component HF and DFT with spin-orbit coupling:  
              Self-consistent treatment of spin-orbit         
              interactions with efficient Hartree-Fock and    
              density functional methods                      
              M. K. Armbruster, F. Weigend, C. van Wüllen and 
              W. Klopper                                      
              Phys. Chem. Chem. Phys. 10: 1748 (2008)         
          Relativistic all-electron 2c calculations           
              An efficient implementation of two-component    
              relativistic exact-decoupling methods for large 
              molecules                                       
              D. Peng, N. Middendorf, F. Weigend, M. Reiher   
              J. Chem. Phys. 138, 184105 (2013)               
                                         


 


              +--------------------------------------------------+
              |      general information about current run       |
              +--------------------------------------------------+

 

 SCF run will be profiled !


 DENSITY CONVERGENCE CHECK SWITCHED ON !
 SCF CONVERGENCE IF RMS(delta[D]) <     0.1000000000E-06

 PBE functional
 exchange:    LDA + PBE
 correlation: LDA (PW) + PBE
 A DFT calculation using the RI-J approximation will be carried out.
 Allocatable memory for RI due to $ricore (MB):        5000


              +--------------------------------------------------+
              | Atomic coordinate, charge and isotop information |
              +--------------------------------------------------+

                    atomic coordinates            atom    charge  isotop
         -8.24559321    0.09512881   -5.82330446    o      8.000     0
         -5.11261626    6.43920400   -5.83658924    o      8.000     0
          2.10725251    8.07260768   -5.77211178    o      8.000     0
          7.74273709    3.79555273   -5.86986731    o      8.000     0
          6.95555277   -3.28462748   -5.64599146    o      8.000     0
          1.65982205   -8.12844909   -5.96845433    o      8.000     0
         -5.24121212   -6.39929299   -5.86038089    o      8.000     0
         -8.26503850    0.02827030    5.94468157    o      8.000     0
         -5.13151352    6.53008093    6.00600318    o      8.000     0
          1.73839686    7.89916862    6.04105760    o      8.000     0
          7.39990297    3.23220647    5.95817422    o      8.000     0
          7.64963028   -3.77195005    5.99487270    o      8.000     0
          1.80047437   -7.93490334    5.87026416    o      8.000     0
         -5.20698918   -6.28925423    5.90305090    o      8.000     0
         -9.74781211   -2.01395673   -2.26491236    n      7.000     0
         -9.72670386    2.21485351   -2.26188880    n      7.000     0
         -7.70235364    6.35675525   -2.28072937    n      7.000     0
         -4.25061768    8.79733655   -2.21919988    n      7.000     0
          0.24328334    9.74265315   -2.14708793    n      7.000     0
          4.41545849    9.03262635   -2.15016819    n      7.000     0
          8.04318465    6.18157764   -2.18140536    n      7.000     0
          9.73139039    2.30899967   -2.23656647    n      7.000     0
          9.57397620   -2.29369289   -2.25750463    n      7.000     0
          7.61667346   -6.04375991   -2.28564265    n      7.000     0
          4.06402612   -8.97670936   -2.38294465    n      7.000     0
         -0.05451860   -9.91146239   -2.32678199    n      7.000     0
         -4.54310949   -8.88910165   -2.30070377    n      7.000     0
         -7.78771257   -6.18033042   -2.27632631    n      7.000     0
         -9.82075553   -2.04260498    2.38746110    n      7.000     0
         -9.70421612    2.18085734    2.38693198    n      7.000     0
         -7.60452252    6.27253016    2.37291021    n      7.000     0
         -4.35047081    8.97138033    2.42971538    n      7.000     0
          0.15255759    9.97898230    2.50269660    n      7.000     0
          4.19562665    8.74771234    2.48652054    n      7.000     0
          7.77943557    5.87838998    2.46059350    n      7.000     0
          9.76642591    2.14695565    2.41297240    n      7.000     0
          9.78974513   -2.45868488    2.37984550    n      7.000     0
          7.87683206   -6.22360515    2.34772016    n      7.000     0
          4.13445622   -8.90767766    2.26629186    n      7.000     0
          0.00504557   -9.83052542    2.32772686    n      7.000     0
         -4.47872652   -8.77688972    2.34596271    n      7.000     0
         -7.83576831   -6.20724012    2.37512119    n      7.000     0
        -11.06251347   -1.37653321    0.04644947    c      6.000     0
        -11.01591283    1.58359050    0.06364598    c      6.000     0
         -5.77379364   -7.05313823   -3.72710685    c      6.000     0
         -2.53448179  -10.40037233   -3.36853132    c      6.000     0
         -7.93490334    7.72015486    0.07209305    c      6.000     0
         -5.58646509    9.51957098    0.05797680    c      6.000     0
          1.85635357   -8.88377263   -3.81170989    c      6.000     0
          6.45974533   -8.23731621   -3.45275641    c      6.000     0
          1.10771966   10.96842401    0.14635929    c      6.000     0
          3.98405291   10.28908636    0.23160483    c      6.000     0
          7.91715881   -3.80237464   -3.61886334    c      6.000     0
         10.63859121   -0.01201866   -3.34010984    c      6.000     0
          9.34136981    6.01754941    0.21463509    c      6.000     0
         10.63286534    3.35617251    0.12288889    c      6.000     0
          8.39244383    4.05393499   -3.68780055    c      6.000     0
         10.54344350   -3.52974385   -0.01721541    c      6.000     0
          9.18843427   -6.16175441   -0.04643057    c      6.000     0
         -9.67456632   -4.51967689   -3.35186393    c      6.000     0
         -9.10470051    0.09909724   -3.69666336    c      6.000     0
          3.76231245  -10.33880506   -0.03382610    c      6.000     0
          0.87496210  -10.98664097    0.00857936    c      6.000     0
         -9.62511219    4.72892626   -3.33572567    c      6.000     0
         -5.60968982    7.09359727   -3.69602086    c      6.000     0
         -5.81219287   -9.44496460    0.05245880    c      6.000     0
         -8.12336573   -7.59564081    0.04089367    c      6.000     0
         -2.19064612   10.23615513   -3.29245094    c      6.000     0
          2.23569719    8.82645723   -3.61175797    c      6.000     0
         -9.73995085   -4.56160991    3.44211725    c      6.000     0
         -9.12773627    0.05209975    3.81779481    c      6.000     0
          6.88175897    8.44862539   -3.17576036    c      6.000     0
         -5.75674831   -6.98121525    3.78574505    c      6.000     0
         -2.45826914  -10.26266799    3.43219619    c      6.000     0
         -9.54538464    4.68587830    3.46358454    c      6.000     0
         -5.61568025    7.15892510    3.85305710    c      6.000     0
          1.95306975   -8.76209316    3.73638541    c      6.000     0
          6.59128916   -8.40930019    3.36201176    c      6.000     0
         -2.33793138   10.47282443    3.51111115    c      6.000     0
          1.98870999    8.74340377    3.92241005    c      6.000     0
          8.32785299   -4.09660500    3.82767808    c      6.000     0
         10.81242712   -0.15690396    3.44258969    c      6.000     0
          6.58172715    8.04605703    3.61551852    c      6.000     0
          8.19264309    3.68608090    3.85266026    c      6.000     0
        -12.98408149   -2.17363859    0.01135725    h      1.000     0
         10.34103493   -0.18458845    5.45484566    h      1.000     0
          6.18641534    7.53807975    5.57977546    h      1.000     0
          7.88457993    9.66780110    3.52853443    h      1.000     0
         12.87341913   -0.13791221    3.17205649    h      1.000     0
          7.79396757  -10.08682897    3.10601056    h      1.000     0
         -2.78050524   12.48542056    3.24242989    h      1.000     0
         -2.26735011   10.00315190    5.52217660    h      1.000     0
          6.28889519   -8.03056128    5.37130087    h      1.000     0
         -2.93138097  -12.28074432    3.25724535    h      1.000     0
        -11.38947389    5.62779340    3.26019332    h      1.000     0
         -9.06618789    4.44852870    5.46009910    h      1.000     0
         -2.32084825   -9.71750090    5.42105736    h      1.000     0
          6.62369797    8.13510093   -5.20235935    h      1.000     0
         -9.28284499   -4.34718269    5.44611513    h      1.000     0
        -11.60339089   -5.45233232    3.20597708    h      1.000     0
          8.14702510   10.06243261   -2.83783953    h      1.000     0
         -9.96208815   -8.56909543    0.01717761    h      1.000     0
         -2.62205170   12.26710050   -3.13479109    h      1.000     0
         -6.35866388  -11.45196713    0.10797895    h      1.000     0
         -2.04045069    9.67957410   -5.27758935    h      1.000     0
          0.48811626  -13.03104119    0.04839589    h      1.000     0
        -11.48142796    5.63522002   -3.10264685    h      1.000     0
          4.98630696  -12.02228648   -0.02205310    h      1.000     0
         -9.17108659    4.50070404   -5.33908104    h      1.000     0
         10.50039554   -7.76913656   -0.19042770    h      1.000     0
        -11.54792743   -5.40062942   -3.14905853    h      1.000     0
         12.61609512   -3.66060739   -0.12477862    h      1.000     0
         -9.19062636   -4.28835551   -5.34813283    h      1.000     0
         12.71201762    3.44706834    0.11629375    h      1.000     0
         10.08312511    0.03441191   -5.33038830    h      1.000     0
         10.69705934    7.58613549    0.39470710    h      1.000     0
         12.70837045   -0.11032221   -3.16154961    h      1.000     0
          5.22256052   11.95406737    0.39153236    h      1.000     0
          7.79538486   -9.82665148   -3.32786441    h      1.000     0
          0.74358834   13.01458167    0.03856931    h      1.000     0
          6.08975585   -7.75254477   -5.42752022    h      1.000     0
         -6.09183455   11.53677804   -0.02656955    h      1.000     0
         -2.43474205   -9.92654240   -5.37782042    h      1.000     0
         -9.75217737    8.73282130    0.12916278    h      1.000     0
         -2.99478128  -12.41185352   -3.11158526    h      1.000     0
        -12.91183726    2.44039233    0.07834805    h      1.000     0
         -1.38581176    1.46807154   -2.82759721    c      6.000     0
          2.89485257    1.29342305   -0.81267672    c      6.000     0
          0.62595288   -2.70999956   -1.91491618    c      6.000     0
         -0.84191079    2.73180699    1.71808231    c      6.000     0
         -3.11413639   -1.28771608    0.63795265    c      6.000     0
          1.17752615   -1.47135966    2.64043874    c      6.000     0
          1.12533191    0.02772228   -2.74518626    c      6.000     0
         -2.61914152    1.45421985   -0.19428274    c      6.000     0
          1.67357926    1.27720920    1.82934938    c      6.000     0
         -0.59926995   -2.74278630    0.72348165    c      6.000     0
          2.13935896    0.14352470   -5.25207805    o      8.000     0
          3.63243157   -0.92976415   -5.35489805    h      1.000     0
         -4.41627108    2.48430956   -0.26913480    h      1.000     0
          2.93158884    2.18089514    3.20391727    h      1.000     0
         -0.95646598   -4.70141185    1.29673007    h      1.000     0
         -1.01977181    3.40426604   -3.46645693    h      1.000     0
         -2.62159817    0.58265926   -4.23402589    h      1.000     0
         -0.58857410   -3.62092314   -3.32455739    h      1.000     0
          3.27733314    3.23337811   -1.43252579    h      1.000     0
         -1.71031553    2.79027512    3.59835981    h      1.000     0
         -3.99501333   -1.31560844    2.51429952    h      1.000     0
          0.33873341   -1.52213661    4.53362307    h      1.000     0
         -4.41948361   -2.20145536   -0.68797370    h      1.000     0
         -0.49361536    4.69128292    1.13062315    h      1.000     0
          4.70658970    0.27714723   -0.76813588    h      1.000     0
          2.42612490   -3.74488917   -1.86731398    h      1.000     0
          2.96979910   -2.50948072    2.74584766    h      1.000     0
 
       center of nuclear mass  :    0.00856826    0.00754288   -0.01425163
       center of nuclear charge:    0.00797960    0.00669597   -0.01333598

              +--------------------------------------------------+
              |               basis set information              |
              +--------------------------------------------------+

              we will work with the 1s 3p 5d 7f 9g ... basis set
              ...i.e. with spherical basis functions...

   type   atoms  prim   cont   basis
   ---------------------------------------------------------------------------
    o       15     77     57   def2-QZVP   [7s4p3d2f1g|15s8p3d2f1g]
    n       28     77     57   def2-QZVP   [7s4p3d2f1g|15s8p3d2f1g]
    c       52     77     57   def2-QZVP   [7s4p3d2f1g|15s8p3d2f1g]
    h       58     33     30   def2-QZVP   [4s3p2d1f|7s3p2d1f]
   ---------------------------------------------------------------------------
   total:  153   9229   7155
   ---------------------------------------------------------------------------

   total number of primitive shells          :  100
   total number of contracted shells         : 2195
   total number of cartesian basis functions : 8870
   total number of SCF-basis functions       : 7155


 integral neglect threshold       :  0.38E-14
 integral storage threshold THIZE :  0.10E-04
 integral storage threshold THIME :         5

 RI-J AUXILIARY BASIS SET information:

              we will work with the 1s 3p 5d 7f 9g ... basis set
              ...i.e. with spherical basis functions...

   type   atoms  prim   cont   basis
   ---------------------------------------------------------------------------
    o       15     70     49   def2-QZVP   [6s4p3d1f1g|12s5p4d2f1g]
    n       28     70     49   def2-QZVP   [6s4p3d1f1g|12s5p4d2f1g]
    c       52     70     49   def2-QZVP   [6s4p3d1f1g|12s5p4d2f1g]
    h       58     16     11   def2-QZVP   [3s1p1d|5s2p1d]
   ---------------------------------------------------------------------------
   total:  153   7578   5293
   ---------------------------------------------------------------------------

   total number of primitive shells          :   80
   total number of contracted shells         : 1715
   total number of cartesian basis functions : 6491
   total number of SCF-basis functions       : 5293


 symmetry group of the molecule :   c1 

 the group has the following generators :
   c1(z)

    1 symmetry operations found

 there are 1 real representations :   a   

 maximum number of shells which are related by symmetry :  1


    mo occupation :
   irrep   mo's   occupied
    a     7155      343
 
 number of basis functions   :         7155
 number of occupied orbitals :          343
 
  
           ------------------
           density functional
           ------------------
 PBE functional
 exchange:    LDA + PBE
 correlation: LDA (PW) + PBE
 grinp -> nfun, dfgga, dfhybrid 
           6 T F
 iterations will be done with small grid
  
 spherical integration : Lebedev's spherical grid
 spherical gridsize    :           5
    i.e. gridpoints    :         590
 value for diffuse not defined
 radial integration    : Chebyshev 2nd kind (scaling 3)
 radial gridsize       :           8
 integration cells     :         153
 partition function    : becke
 partition sharpness   :           3
  

 <rddim> : input of entry tasksize
           from data group '$pardft' failed !

               Default values taken

 <rddim> : input of entry memdiv
           from data group '$pardft' failed !

               Default values taken
  RIDFT: memory allocation for DFT gridpoints
  MEMORY is divided by 1 as DEFAULT
 Each node can hold at most  the            1 -th part
 of the gridpoints    

 biggest AO integral is expected to be     6.990327543
  
           ------------------------
               RI-J - INFORMATION
           ------------------------
 
 
 **************************************************
 *      MEMORY ALLOCATION FOR PARALLEL RI-DFT     *
 **************************************************
 
 
MEMORY FOR (MU NU/ ALPHA), SEQUENTIAL RUN               4763 MByte
 
            DIFFERENCE IN MEMORY NEED:       DIAG./SLAVE  
 
      TOTAL DIFFERENCE :                   2314 MByte
 
      difference in xcore:                  238 MByte
      difference in fatmat:                 695 MByte
      getcor calls skipped by slaves:      1382 MByte
 
 
           Integral memory available for diagonal.      4763 MByte
 
           Integral memory available for slave             0 MByte
 
         MEMORY FOR (MU NU/ ALPHA) ON DIAGONALIZER      4763 MByte
 
         MEMORY FOR (MU NU/ ALPHA) ON ONE SLAVE            0 MByte
 
         TOTAL MEMORY FOR (MU NU/ ALPHA),ALL NODES      4763 MByte
 
 Contributions to RI integral batches: 
  neglected integral batches:     1657872
  direct contribution:             719096
  memory contribution:       33142
 Memory core needed for (P|Q) and Cholesky    214 MByte
 Memory core minimum needed except of (P|Q)    24 MByte
 Total minimum memory core needed (sum)       238 MByte
     number of direct tasks:         160
  
 ****************************************
 Memory allocated for RI-J  5001 MByte
 ****************************************
                                            

          ------------------------
          nuclear repulsion energy  :   22038.8148781    
          ------------------------

 
          -----------------
          -S integrals
          -----------------

 1e-integrals will be neglected if expon. factor < 0.376771E-15
 
          -----------------
          -T+V integrals
          -----------------

 1e-integrals will be neglected if expon. factor < 0.376771E-15
 Difference densities >>NOT<< switched on in parallel ridft!

 automatic virtual orbital shift switched on 
      shift if e(lumo)-e(homo) < 0.10000000    


 DIIS switched on: error vector is FDS-SDF
 Max. Iterations for DIIS is     :   4
 DIIS matrix (see manual) 
    Scaling factor of diagonals  :  1.200
    threshold for scaling factor :  0.000

 scf convergence criterion : increment of total energy < .1000000D-08
                  and increment of one-electron energy < .1000000D-05


 <geterg> : there is no data group $energy 

  MOs are in ASCII format !


 reading orbital data $scfmo  from file mos . 

 orbital characterization : expanded
 
 mo provided and orthogonalized by Cholesky decomposition

 DSCF restart information will be dumped onto file mos


 Starting SCF iterations


 ITERATION  ENERGY          1e-ENERGY        2e-ENERGY     RMS[dD(SAO)]   TOL
   1  -4655.8383398841    -50207.521177     23512.867959    0.000D+00 0.376D-14
                            Exc = -618.400552925     Coul =  24131.2685121    
                              N = 686.00008535    
                            current damping = 0.700
 
          max. resid. norm for Fia-block=  7.879D-01 for orbital    109a         
          max. resid. fock norm         =  5.245D+01 for orbital   6100a         

 ITERATION  ENERGY          1e-ENERGY        2e-ENERGY     RMS[dD(SAO)]   TOL
   2  -4671.9567661500    -50308.167450     23597.395805    0.800D-02 0.376D-14
                            Exc = -619.519886464     Coul =  24216.9156918    
                              N = 686.00003128    
                            current damping = 0.650
 
          Norm of current diis error:  11.473    
          max. resid. norm for Fia-block=  1.671D-01 for orbital     11a         
          max. resid. fock norm         =  3.597D-01 for orbital   6856a         

 ITERATION  ENERGY          1e-ENERGY        2e-ENERGY     RMS[dD(SAO)]   TOL
   3  -4674.1307991363    -50333.652906     23620.707228    0.263D-02 0.376D-14
                            Exc = -622.348216763     Coul =  24243.0554452    
                              N = 685.99999656    
                            current damping = 0.550
 
          Norm of current diis error:  5.6100    
          max. resid. norm for Fia-block=  6.674D-02 for orbital      6a         
          max. resid. fock norm         =  7.095D-02 for orbital      6a         

 ITERATION  ENERGY          1e-ENERGY        2e-ENERGY     RMS[dD(SAO)]   TOL
   4  -4674.8079295515    -50349.634929     23636.012121    0.921D-03 0.376D-14
                            Exc = -621.667125294     Coul =  24257.6792463    
                              N = 685.99991029    
                            current damping = 0.450
 
          Norm of current diis error:  2.6283    
          max. resid. norm for Fia-block=  3.805D-02 for orbital    117a         
          max. resid. fock norm         =  8.791D-02 for orbital   6821a         

 ITERATION  ENERGY          1e-ENERGY        2e-ENERGY     RMS[dD(SAO)]   TOL
   5  -4674.8975658681    -50341.983094     23628.270650    0.510D-03 0.376D-14
                            Exc = -622.627369551     Coul =  24250.8980196    
                              N = 685.99985112    
                            current damping = 0.500
 
          Norm of current diis error:  1.9418    
          max. resid. norm for Fia-block=  1.474D-02 for orbital    310a         
          max. resid. fock norm         =  1.834D-02 for orbital    309a         
          mo-orthogonalization: Cholesky decomposition

 ITERATION  ENERGY          1e-ENERGY        2e-ENERGY     RMS[dD(SAO)]   TOL
   6  -4674.9929305110    -50352.349649     23638.541840    0.228D-03 0.376D-14
                            Exc = -622.656706162     Coul =  24261.1985463    
                              N = 685.99984419    
                            current damping = 0.550
 
          Norm of current diis error: 0.43762    
          max. resid. norm for Fia-block=  9.851D-03 for orbital    343a         
          max. resid. fock norm         =  1.328D-02 for orbital    343a         

 ITERATION  ENERGY          1e-ENERGY        2e-ENERGY     RMS[dD(SAO)]   TOL
   7  -4674.9967439418    -50350.575957     23636.764335    0.121D-03 0.376D-14
                            Exc = -622.496709463     Coul =  24259.2610446    
                              N = 685.99983038    
                            current damping = 0.600
 
          Norm of current diis error: 0.19827    
          max. resid. norm for Fia-block=  4.578D-03 for orbital    343a         
          max. resid. fock norm         =  7.248D-03 for orbital    343a         

 ITERATION  ENERGY          1e-ENERGY        2e-ENERGY     RMS[dD(SAO)]   TOL
   8  -4674.9974715952    -50350.587101     23636.774751    0.278D-04 0.376D-14
                            Exc = -622.503995952     Coul =  24259.2787472    
                              N = 685.99982613    
                            current damping = 0.650
 
          Norm of current diis error: 0.63990E-01
          max. resid. norm for Fia-block=  1.198D-03 for orbital    343a         
          max. resid. fock norm         =  2.329D-03 for orbital   6785a         

 ITERATION  ENERGY          1e-ENERGY        2e-ENERGY     RMS[dD(SAO)]   TOL
   9  -4674.9975292627    -50351.039689     23637.227281    0.129D-04 0.376D-14
                            Exc = -622.550881780     Coul =  24259.7781632    
                              N = 685.99982604    
                            current damping = 0.500
 
          Norm of current diis error: 0.41085E-01
          max. resid. norm for Fia-block=  4.586D-04 for orbital    128a         
          max. resid. fock norm         =  8.630D-04 for orbital   6785a         

 ITERATION  ENERGY          1e-ENERGY        2e-ENERGY     RMS[dD(SAO)]   TOL
  10  -4674.9975597589    -50351.137792     23637.325354    0.584D-05 0.376D-14
                            Exc = -622.543066643     Coul =  24259.8684208    
                              N = 685.99982549    
                            current damping = 0.350
 
          Norm of current diis error: 0.22826E-01
          max. resid. norm for Fia-block=  2.419D-04 for orbital    343a         
          max. resid. fock norm         =  5.166D-04 for orbital   6794a         
          mo-orthogonalization: Cholesky decomposition

 ITERATION  ENERGY          1e-ENERGY        2e-ENERGY     RMS[dD(SAO)]   TOL
  11  -4674.9975704117    -50350.925600     23637.113151    0.281D-05 0.376D-14
                            Exc = -622.539745049     Coul =  24259.6528961    
                              N = 685.99982497    
                            current damping = 0.400
 
          Norm of current diis error: 0.95625E-02
          max. resid. norm for Fia-block=  1.095D-04 for orbital    343a         
          max. resid. fock norm         =  1.499D-04 for orbital    343a         

 ITERATION  ENERGY          1e-ENERGY        2e-ENERGY     RMS[dD(SAO)]   TOL
  12  -4674.9975722495    -50350.971913     23637.159463    0.103D-05 0.376D-14
                            Exc = -622.538505198     Coul =  24259.6979682    
                              N = 685.99982477    
                            current damping = 0.450
 
          Norm of current diis error: 0.22526E-02
          max. resid. norm for Fia-block=  3.672D-05 for orbital    302a         
          max. resid. fock norm         =  8.217D-05 for orbital   6909a         

 ITERATION  ENERGY          1e-ENERGY        2e-ENERGY     RMS[dD(SAO)]   TOL
  13  -4674.9975723228    -50350.983482     23637.171031    0.220D-06 0.376D-14
                            Exc = -622.540077313     Coul =  24259.7111084    
                              N = 685.99982478    
                            current damping = 0.300
 
          Norm of current diis error: 0.14174E-02
          max. resid. norm for Fia-block=  2.310D-05 for orbital    302a         
          max. resid. fock norm         =  5.462D-05 for orbital   7154a         

 ITERATION  ENERGY          1e-ENERGY        2e-ENERGY     RMS[dD(SAO)]   TOL
  14  -4674.9975723548    -50350.984395     23637.171944    0.138D-06 0.376D-14
                            Exc = -622.539952229     Coul =  24259.7118966    
                              N = 685.99982481    
                            current damping = 0.150
 
          Norm of current diis error: 0.86089E-03
          max. resid. norm for Fia-block=  9.418D-06 for orbital    302a         
          max. resid. fock norm         =  2.463D-05 for orbital   7154a         

 DENSITY CONVERGED !


 ITERATION  ENERGY          1e-ENERGY        2e-ENERGY     RMS[dD(SAO)]   TOL
  15  -4674.9975723690    -50350.981040     23637.168589    0.660D-07 0.376D-14
                            Exc = -622.539708942     Coul =  24259.7082982    
                              N = 685.99982478    
                            current damping = 0.200
 
          Norm of current diis error: 0.38208E-03
          max. resid. norm for Fia-block=  4.839D-06 for orbital    268a         
          max. resid. fock norm         =  8.961D-06 for orbital   7150a         
          mo-orthogonalization: Cholesky decomposition

 DENSITY CONVERGED !


 ITERATION  ENERGY          1e-ENERGY        2e-ENERGY     RMS[dD(SAO)]   TOL
  16  -4674.9975723714    -50350.980885     23637.168434    0.341D-07 0.376D-14
                            Exc = -622.539805585     Coul =  24259.7082398    
                              N = 685.99982478    
                            current damping = 0.050
 
          Norm of current diis error: 0.26144E-03
          max. resid. norm for Fia-block=  2.685D-06 for orbital    316a         
          max. resid. fock norm         =  4.821D-06 for orbital   6621a         

 DENSITY CONVERGED !


 ITERATION  ENERGY          1e-ENERGY        2e-ENERGY     RMS[dD(SAO)]   TOL
  17  -4674.9975723723    -50350.982747     23637.170297    0.200D-07 0.376D-14
                            Exc = -622.539771099     Coul =  24259.7100676    
                              N = 685.99982478    
                            current damping = 0.100
 
          Norm of current diis error: 0.18801E-03
          max. resid. norm for Fia-block=  1.342D-06 for orbital    343a         
          max. resid. fock norm         =  2.093D-06 for orbital    343a         

 DENSITY CONVERGED !


 ITERATION  ENERGY          1e-ENERGY        2e-ENERGY     RMS[dD(SAO)]   TOL
  18  -4674.9975723725    -50350.981507     23637.169057    0.124D-07 0.376D-14
                            Exc = -622.539785791     Coul =  24259.7088424    
                              N = 685.99982478    
                            current damping = 0.150
 
          Norm of current diis error: 0.33678E-04
          max. resid. norm for Fia-block=  5.460D-07 for orbital    343a         
          max. resid. fock norm         =  8.478D-07 for orbital    343a         

 DENSITY CONVERGED !


 ITERATION  ENERGY          1e-ENERGY        2e-ENERGY     RMS[dD(SAO)]   TOL
  19  -4674.9975723733    -50350.981717     23637.169266    0.366D-08 0.376D-14
                            Exc = -622.539777287     Coul =  24259.7090434    
                              N = 685.99982478    
                            current damping = 0.200
 
          Norm of current diis error: 0.28677E-04
          max. resid. norm for Fia-block=  2.679D-07 for orbital    260a         
          max. resid. fock norm         =  7.598D-07 for orbital   7152a         

 ENERGY & DENSITY CONVERGED !


 ITERATION  ENERGY          1e-ENERGY        2e-ENERGY     RMS[dD(SAO)]   TOL
  20  -4674.9976281598    -50350.981706     23637.169200    0.196D-08 0.376D-14
                            Exc = -622.539838386     Coul =  24259.7090384    
                              N = 685.99981683    
                            current damping = 0.250
 
          Norm of current diis error: 0.86150E-05
          max. resid. norm for Fia-block=  9.856D-08 for orbital    343a         
          max. resid. fock norm         =  2.849D-07 for orbital   7152a         

 End of SCF iterations

   convergence criteria satisfied after   20 iterations


                  ------------------------------------------ 
                 |  total energy      =  -4674.99762815978  |
                  ------------------------------------------ 
                 :  kinetic energy    =   4655.75715238298  :
                 :  potential energy  =  -9330.75478054276  :
                 :  virial theorem    =      1.99588438812  :
                 :  wavefunction norm =      1.00000000000  :
                  .......................................... 


 <geterg> : there is no data group $energy 


 <skperg> : $end is missing 


 orbitals $scfmo  will be written to file mos

    irrep                339a        340a        341a        342a        343a   
 eigenvalues H         -0.21335    -0.20791    -0.20764    -0.19666    -0.16343
            eV          -5.8056     -5.6577     -5.6501     -5.3514     -4.4473
 occupation              2.0000      2.0000      2.0000      2.0000      2.0000 

    irrep                344a        345a        346a        347a        348a   
 eigenvalues H         -0.04022    -0.03672    -0.03594    -0.02826    -0.02800
            eV          -1.0944     -0.9992     -0.9780     -0.7691     -0.7619
 
 
 ! grave: sending quit signal to master process
 
 
 
 
 ==============================================================================
                           electrostatic moments
 ==============================================================================

 reference point for electrostatic moments:    0.00000   0.00000   0.00000

 
              nuc           elec       ->  total
 ------------------------------------------------------------------------------
                          charge      
 ------------------------------------------------------------------------------
         686.000000    -686.000000      -0.000000
 
 ------------------------------------------------------------------------------
                       dipole moment  
 ------------------------------------------------------------------------------
   x       5.474007      -5.263427       0.210580
   y       4.593433      -4.964324      -0.370891
   z      -9.148485       9.551983       0.403497
 
   | dipole moment | =     0.5871 a.u. =     1.4923 debye 
 
 ------------------------------------------------------------------------------
                     quadrupole moment
 ------------------------------------------------------------------------------
  xx   30496.419276  -30786.933287    -290.514011
  yy   29964.112616  -30257.684152    -293.571537
  zz    8223.301836   -8729.525988    -506.224152
  xy     129.500061    -130.969719      -1.469658
  xz     -52.129466      51.376044      -0.753422
  yz     141.719898    -138.315348       3.404550
 
     1/3  trace=    -363.436567
     anisotropy=     214.297992
 
 ==============================================================================
 

    ridft profiling
  --------------------------------------------------------------------
             module   cpu total (s)       %  wall total (s)       %

               RIDFT         16990.1  100.00         17060.7  100.00
         Ridft_b_scf          5382.1   31.68          5397.2   31.64
        b_scf_prelim             0.0    0.00             0.0    0.00
        b_scf_molinp             0.0    0.00             0.0    0.00
         b_scf_init0             0.0    0.00             0.0    0.00
        b_scf_auxbas             0.0    0.00             0.0    0.00
      b_scf_symmetry             0.0    0.00             0.0    0.00
         b_scf_cosmo             0.0    0.00             0.0    0.00
        b_scf_params          5032.6   29.62          5047.7   29.59
          b_scf_ri-j            34.6    0.20            34.5    0.20
    b_scf_ri-j_auxpq            34.4    0.20            34.3    0.20
     ri-j_auxpq_chol             9.3    0.05             9.2    0.05
         b_scf_1elec            18.9    0.11            18.9    0.11
       b_scf_moinput           296.0    1.74           296.0    1.73
     moinput_orthmos           294.3    1.73           294.2    1.72
    b_scf_dft-dstmax             0.0    0.00             0.0    0.00
           Ridft_scf         11602.1   68.29         11657.6   68.33
          Scf_b_loop             0.0    0.00             0.1    0.00
                noga             0.0    0.00             0.0    0.00
            Scf_loop         11584.0   68.18         11635.5   68.20
     scf_loop_mkdmat            99.5    0.59           105.2    0.62
       scf_loop_ri-j          3679.0   21.65          3677.9   21.56
      parlp1.bc.dens             4.8    0.03             4.8    0.03
        parlp1.gs.gp            30.1    0.18            30.1    0.18
        parlp2.bc.gq             0.0    0.00             0.0    0.00
        scf_loop_dft          4519.6   26.60          4519.3   26.49
      pardft.bc.dens             0.0    0.00             0.0    0.00
        dft_grid_con             8.6    0.05             8.6    0.05
           dft_xcrhf          4360.3   25.66          4360.0   25.56
          dft_getval           171.3    1.01           171.7    1.01
          funct2 dst             4.5    0.03             4.5    0.03
      funct2 f2loop1            29.2    0.17            29.3    0.17
      funct2 f2loop2            76.9    0.45            77.1    0.45
          funct2 s+c            54.7    0.32            54.6    0.32
        funct2 cmf_2            50.2    0.30            50.1    0.29
          dft_mkdens          1851.5   10.90          1851.2   10.85
         dft_gga-fun             0.8    0.00             0.9    0.01
          dft_mkfock          2330.8   13.72          2330.5   13.66
     pardft.red.fock           420.2    2.47           420.1    2.46
     scf_loop_energy             0.8    0.00             0.8    0.00
     scf_loop_mkfock             1.4    0.01             1.4    0.01
       scf_loop_diis          1648.1    9.70          1659.9    9.73
       scf_loop_diag          1000.4    5.89           999.4    5.86
         diag_tritrn           309.6    1.82           309.2    1.81
          diag_rdiag           688.6    4.05           688.0    4.03
     scf_loop_modump           312.1    1.84           348.6    2.04
      scf_loop_ortho           308.9    1.82           308.8    1.81
          Scf_a_loop            18.1    0.11            22.0    0.13
         Ridft_a_scf             5.9    0.03             5.9    0.03
         a_scf_fanal             5.9    0.03             5.9    0.03
 


    ------------------------------------------------------------------------
         total  cpu-time :  4 hours 43 minutes and 31 seconds
         total wall-time :  4 hours 44 minutes and 42 seconds
    ------------------------------------------------------------------------


   ****  ridft : all done  ****


    2015-10-19 13:22:12.648 

