
   OpenMP run-time library returned nthreads = 24

 rirpa (c-9-29) : TURBOMOLE V7.3 ( 22142 ) 4 Jul 2018 at 18:12:42
 Copyright (C) 2018 TURBOMOLE GmbH, Karlsruhe


    2019-02-24 18:05:55.766 

 
 
    *************************************************************************
    *************************** PROGRAM RIRPA *******************************
    ******                                                             ******
    ******              H. Eshuis, J. E. Bates and F. Furche           ******
    ******                                                             ******
    ****** Nov 2011                                                    ******
    ****** Copyright TURBOMOLE GmbH                                    ******
    *************************************************************************
    
    
                                References:                                  
    
                   RIRPA:                                                    
                     H. Eshuis, J. Yarkony and F. Furche                     
                     Fast computation of molecular random phase              
                     approximation correlation energies using resolution     
                     of the identity imaginary frequency integration         
                     J. Chem. Phys. 132: 234114 (2010)                       
    
                     H. Eshuis, J. E. Bates and F. Furche                    
                     Electron correlation methods based on                   
                     the random phase approximation                          
                     Theor. Chem. Acc.  131: 1084 (2012)                     
    
                   TWO-COMPONENT RIRPA:                                      
                     M. Kuehn                                                
                     Correlation energies from the                           
                     two-component random-phase approximation                
                     J. Chem. Theory Comput. 10: 623 (2014)                  
    
                   RIRPA GRADIENTS:                                          
                     Asbjoern M. Burow, Jefferson E. Bates, Filipp Furche*,  
                     and Henk Eshuis                                         
                     Analytical First-Order Molecular Properties and Forces  
                     within the Adiabatic Connection Random Phase            
                     Approximation                                           
                     J. Chem. Theory Comput. 10: 180 (2014)                  
    
    
    
      ... OpenMP parallelization enabled, threads:   24

   *-----------------------------------------------------------------------*
   |                     program will use 24 thread(s)                     |
   *-----------------------------------------------------------------------*
 
                FOUND RI-J FLAG
 
  HF exact exchange energy will be computed using RI-J.
 
  The HXX energy will NOT be computed due to nohxx option. 
 


              +--------------------------------------------------+
              | Atomic coordinate, charge and isotop information |
              +--------------------------------------------------+

                    atomic coordinates            atom    charge  isotop
          0.03087599   -2.73416033   -0.43315891    c      6.000     0
         -2.32492522    1.34882738   -0.49239404    c      6.000     0
          0.05509231    2.73389290    0.43154703    c      6.000     0
          2.40615525   -1.34276488    0.50452142    c      6.000     0
          2.38288229    1.33884600   -0.61353517    c      6.000     0
         -2.30234052   -1.34527729    0.59815730    c      6.000     0
          0.13077801    0.12974653    4.37881871    c      6.000     0
         -0.06895955   -0.12999672   -4.37989499    c      6.000     0
          2.31134358    1.27276831   -3.51941694    c      6.000     0
         -2.25663040   -1.24308822    3.49676876    c      6.000     0
          0.01744015   -2.82753678   -3.33677486    c      6.000     0
          0.17384500    2.82719859    3.33278816    c      6.000     0
         -2.41176526    1.24611914   -3.39006169    c      6.000     0
          2.46763028   -1.27591944    3.41054115    c      6.000     0
         -2.76648499   -0.99879609   -8.28419171    c      6.000     0
          2.09969971    2.07070760    8.33242655    c      6.000     0
          1.71125477   -2.07841833   -8.41806727    c      6.000     0
         -2.38316153    1.00730487    8.40255703    c      6.000     0
          0.40457876    2.33887917   -8.49432431    c      6.000     0
          0.78209354   -2.34158961    8.46740403    c      6.000     0
          0.15846524    0.21627394    7.37103786    n      7.000     0
         -0.17756290   -0.21675733   -7.37023349    n      7.000     0
          0.03944332   -4.67918434    0.28364704    h      1.000     0
          0.03424120    4.67902700   -0.28479133    h      1.000     0
          4.09656009    2.34492829   -0.02738462    h      1.000     0
         -4.02292896   -2.33841597    0.00250677    h      1.000     0
         -4.01505366    2.34487119    0.18070508    h      1.000     0
          4.08965300   -2.35195463   -0.15890532    h      1.000     0
         -1.59127142   -3.93649316   -4.00939424    h      1.000     0
          1.92668216    3.76470230    3.88863655    h      1.000     0
         -2.50236861    3.15916908   -4.16225813    h      1.000     0
          2.49909600   -3.21403409    4.11908977    h      1.000     0
          4.00258750    0.32962736   -4.24092116    h      1.000     0
         -3.94374409   -0.25336198    4.15179363    h      1.000     0
         -2.31430020   -3.15606282    4.27172999    h      1.000     0
          2.31193354    3.21108954   -4.22799837    h      1.000     0
         -1.40078436    3.93882100    4.07767023    h      1.000     0
          1.74156187   -3.76803455   -3.97181178    h      1.000     0
          4.19121906   -0.33407120    4.05313634    h      1.000     0
         -4.12863223    0.25872649   -3.96675018    h      1.000     0
         -3.34795518   -2.72578207   -7.32711784    h      1.000     0
          1.49873380    3.98680389    7.88520287    h      1.000     0
         -0.80277393    3.76407304   -7.63368526    h      1.000     0
          2.74739340   -2.79602628    8.06643844    h      1.000     0
          3.57312072   -1.68618719   -7.63956305    h      1.000     0
         -3.74598081   -0.50262171    8.10447346    h      1.000     0
          3.92313974    1.67081588    7.47160244    h      1.000     0
         -4.10856705    0.51629285   -7.92480513    h      1.000     0
         -3.00141281    2.73700380    7.47412373    h      1.000     0
          1.12317483   -3.99229021   -7.94488751    h      1.000     0
         -0.46864082   -3.76220345    7.66308087    h      1.000     0
          2.38785423    2.78613151   -8.18372631    h      1.000     0
         -2.60841766   -1.33897680  -10.31152828    h      1.000     0
          2.21048654    1.82031208   10.37602475    h      1.000     0
          1.73169441   -1.82762116  -10.46447360    h      1.000     0
         -2.13129758    1.34529221   10.42080075    h      1.000     0
          0.01258724    2.21192085  -10.51445861    h      1.000     0
          0.48347917   -2.21336169   10.50339038    h      1.000     0
 
       center of nuclear mass  :    0.01886514   -0.00017412   -0.00021244
       center of nuclear charge:    0.01831319   -0.00017648   -0.00019127
              +-------------------------------------------------+
              |        Rotational Constants Section             |
              +-------------------------------------------------+
                                   Center of Mass [a.u]:
               0.01886513913820        -0.00017412333838        -0.00021243504509
                     Principal Moments of Inertia [a.u.]
            2147.60949946078745     10606.39131053920937     10607.38189294975018
                       Rotational constants A,B,C [a.u.]
               0.00023281699961         0.00004714138724         0.00004713698489
                     Rotational constants A,B,C [cm**-1]
               0.02803102077522         0.00567579346584         0.00567526342541
                        Rotational constants A,B,C [MHz]
             840.34886184531524       170.15600742231243       170.14011721022226

   * BASIS SET information:

              +--------------------------------------------------+
              |               basis set information              |
              +--------------------------------------------------+

              we will work with the 1s 3p 5d 7f 9g ... basis set
              ...i.e. with spherical basis functions...

   type   atoms  prim   cont   basis
   ---------------------------------------------------------------------------
    c       20     50     30   cc-pVTZ   [4s3p2d1f|18s5p2d1f]
    n        2     50     30   cc-pVTZ   [4s3p2d1f|18s5p2d1f]
    h       36     16     14   cc-pVTZ   [3s2p1d|5s2p1d]
   ---------------------------------------------------------------------------
   total:   58   1676   1164
   ---------------------------------------------------------------------------

   total number of primitive shells          :   60
   total number of contracted shells         :  436
   total number of cartesian basis functions : 1310
   total number of SCF-basis functions       : 1164


   * AUXILIARY BASIS SET information:

              +--------------------------------------------------+
              |               basis set information              |
              +--------------------------------------------------+

              we will work with the 1s 3p 5d 7f 9g ... basis set
              ...i.e. with spherical basis functions...

   type   atoms  prim   cont   basis
   ---------------------------------------------------------------------------
    c       20     81     81   cc-pVTZ   [8s6p5d3f1g|8s6p5d3f1g]
    n        2     81     81   cc-pVTZ   [8s6p5d3f1g|8s6p5d3f1g]
    h       36     30     30   cc-pVTZ   [4s3p2d1f|4s3p2d1f]
   ---------------------------------------------------------------------------
   total:   58   2862   2862
   ---------------------------------------------------------------------------

   total number of primitive shells          :   56
   total number of contracted shells         :  866
   total number of cartesian basis functions : 3482
   total number of SCF-basis functions       : 2862


   * RIJ AUXILIARY BASIS SET information:

              +--------------------------------------------------+
              |               basis set information              |
              +--------------------------------------------------+

              we will work with the 1s 3p 5d 7f 9g ... basis set
              ...i.e. with spherical basis functions...

   type   atoms  prim   cont   basis
   ---------------------------------------------------------------------------
    c       20     70     49   cc-pVTZ   [6s4p3d1f1g|12s5p4d2f1g]
    n        2     70     49   cc-pVTZ   [6s4p3d1f1g|12s5p4d2f1g]
    h       36     16     11   cc-pVTZ   [3s1p1d|5s2p1d]
   ---------------------------------------------------------------------------
   total:   58   2116   1474
   ---------------------------------------------------------------------------

   total number of primitive shells          :   56
   total number of contracted shells         :  510
   total number of cartesian basis functions : 1774
   total number of SCF-basis functions       : 1474

  No keyword $dft found! - HARTREE FOCK CALCULATION

 reading orbital data $scfmo  from file mos
 orbital characterization : scfconv=7

 integral neglect threshold       :  0.28E+02

 scfconv                     7

 MAXIMUM CORE MEMORY WHICH CAN BE ALLOCATED DYNAMICALLY = 72000 MiB
              ( or 9437184000 double words per process)


 there are 1 real representations :   a   

 maximum number of shells which are related by symmetry :  1

 entered riccmos at 2019-02-24 18:06:00.383
  MOs are in ASCII format !


 reading orbital data $scfmo  from file mos
 orbital characterization : scfconv=7
 time elapsed for calculating density matrices :   0.245 sec



              +--------------------------------------------+
              | list of orbitals that will be kept frozen: |
              +--------------------------------------------+
              |   irrep   index      energy     occ/vir    |
              +--------------------------------------------+
              |   a         1      -15.9160     occupied   |
              |   a         2      -15.9160     occupied   |
              |   a         3      -11.5264     occupied   |
              |   a         4      -11.5264     occupied   |
              |   a         5      -11.5031     occupied   |
              |   a         6      -11.5031     occupied   |
              |   a         7      -11.5028     occupied   |
              |   a         8      -11.5028     occupied   |
              |   a         9      -11.5028     occupied   |
              |   a        10      -11.5027     occupied   |
              |   a        11      -11.4562     occupied   |
              |   a       ...        ...        occupied   |
              |   a        22      -11.4518     occupied   |
              +--------------------------------------------+



   Molecular Orbital Statistic:
   ============================

   -----------------------------
   orbitals in total:
   -----------------------------
    frozen occupied :     22
    active occupied :     62
    active virtual  :   1080
    frozen virtual  :      0
    all together    :   1164
   -----------------------------


     time in riccmoinp     cpu:  5.81 sec    wall:  5.23 sec    ratio:  1.1
     time in scfdens       cpu:  0.25 sec    wall:  0.24 sec    ratio:  1.0
     time in mkiao         cpu:  0.00 sec    wall:  0.00 sec    ratio:  0.0
     time in rir12loc      cpu:  0.00 sec    wall:  0.00 sec    ratio:  0.0
     time in riccmos       cpu: 12.47 sec    wall:  5.88 sec    ratio:  2.1
 leave riccmos at 2019-02-24 18:06:06.266

     total memory allocated for calculation of (Q|P)**(-1/2) : 94 MiB


     calculation of (P|Q) ...
     time in lp2sym        cpu: 12.71 sec    wall:  0.58 sec    ratio: 21.9


     calculation of the Cholesky decomposition of (P|Q)**(-1) ...
     time in invmetri      cpu:  1 min  6 s  wall:  0 min  3 s  ratio: 20.4

   threshold for RMS(d[D]) in SCF was     :  0.10E-06
   integral neglect threshold             :  0.96E-12
   derivative integral neglect threshold  :  0.10E-06


 setting up bound for integral derivative estimation

 increment for numerical differentiation : 0.00050000
 total memory allocated for calculation of (Q|P)**(-1/2) : 94 MiB
 Dividing biap into                   1525  block chunks,
 using                    23 MiB per block
 Reserved                  35962 MiB for BLAS routines
 Estimated total memory usage:                  71989 MiB
 number of passes for ispin    1
 =    1
 
 Number of eigenvalues < 6e-3:                      0
 
 
            -----------------------------
            Complex frequency integration
            -----------------------------
 
 Number of Clenshaw-Curtis nodes:                    100
 Optimized scaling parameter    :    1.00000000000000     
 Sensitivity measure            :  -4.778122342230517E-013
 
 Done with rirpa frequency point #                     1
 Done with rirpa frequency point #                     2
 Done with rirpa frequency point #                     3
 Done with rirpa frequency point #                     4
 Done with rirpa frequency point #                     5
 Done with rirpa frequency point #                     6
 Done with rirpa frequency point #                     7
 Done with rirpa frequency point #                     8
 Done with rirpa frequency point #                     9
 Done with rirpa frequency point #                    10
 Done with rirpa frequency point #                    11
 Done with rirpa frequency point #                    12
 Done with rirpa frequency point #                    13
 Done with rirpa frequency point #                    14
 Done with rirpa frequency point #                    15
 Done with rirpa frequency point #                    16
 Done with rirpa frequency point #                    17
 Done with rirpa frequency point #                    18
 Done with rirpa frequency point #                    19
 Done with rirpa frequency point #                    20
 Done with rirpa frequency point #                    21
 Done with rirpa frequency point #                    22
 Done with rirpa frequency point #                    23
 Done with rirpa frequency point #                    24
 Done with rirpa frequency point #                    25
 Done with rirpa frequency point #                    26
 Done with rirpa frequency point #                    27
 Done with rirpa frequency point #                    28
 Done with rirpa frequency point #                    29
 Done with rirpa frequency point #                    30
 Done with rirpa frequency point #                    31
 Done with rirpa frequency point #                    32
 Done with rirpa frequency point #                    33
 Done with rirpa frequency point #                    34
 Done with rirpa frequency point #                    35
 Done with rirpa frequency point #                    36
 Done with rirpa frequency point #                    37
 Done with rirpa frequency point #                    38
 Done with rirpa frequency point #                    39
 Done with rirpa frequency point #                    40
 Done with rirpa frequency point #                    41
 Done with rirpa frequency point #                    42
 Done with rirpa frequency point #                    43
 Done with rirpa frequency point #                    44
 Done with rirpa frequency point #                    45
 Done with rirpa frequency point #                    46
 Done with rirpa frequency point #                    47
 Done with rirpa frequency point #                    48
 Done with rirpa frequency point #                    49
 Done with rirpa frequency point #                    50
 Done with rirpa frequency point #                    51
 Done with rirpa frequency point #                    52
 Done with rirpa frequency point #                    53
 Done with rirpa frequency point #                    54
 Done with rirpa frequency point #                    55
 Done with rirpa frequency point #                    56
 Done with rirpa frequency point #                    57
 Done with rirpa frequency point #                    58
 Done with rirpa frequency point #                    59
 Done with rirpa frequency point #                    60
 Done with rirpa frequency point #                    61
 Done with rirpa frequency point #                    62
 Done with rirpa frequency point #                    63
 Done with rirpa frequency point #                    64
 Done with rirpa frequency point #                    65
 Done with rirpa frequency point #                    66
 Done with rirpa frequency point #                    67
 Done with rirpa frequency point #                    68
 Done with rirpa frequency point #                    69
 Done with rirpa frequency point #                    70
 Done with rirpa frequency point #                    71
 Done with rirpa frequency point #                    72
 Done with rirpa frequency point #                    73
 Done with rirpa frequency point #                    74
 Done with rirpa frequency point #                    75
 Done with rirpa frequency point #                    76
 Done with rirpa frequency point #                    77
 Done with rirpa frequency point #                    78
 Done with rirpa frequency point #                    79
 Done with rirpa frequency point #                    80
 Done with rirpa frequency point #                    81
 Done with rirpa frequency point #                    82
 Done with rirpa frequency point #                    83
 Done with rirpa frequency point #                    84
 Done with rirpa frequency point #                    85
 Done with rirpa frequency point #                    86
 Done with rirpa frequency point #                    87
 Done with rirpa frequency point #                    88
 Done with rirpa frequency point #                    89
 Done with rirpa frequency point #                    90
 Done with rirpa frequency point #                    91
 Done with rirpa frequency point #                    92
 Done with rirpa frequency point #                    93
 Done with rirpa frequency point #                    94
 Done with rirpa frequency point #                    95
 Done with rirpa frequency point #                    96
 Done with rirpa frequency point #                    97
 Done with rirpa frequency point #                    98
 Done with rirpa frequency point #                    99
 Done with rirpa frequency point #                   100
 


 RI-RPA correlation energy: -0.4610073186390689E+01
 
 
 HXX Energy calculation skipped due to nohxx option
 

                  --------------------------------------------------- 
                 |  HXX+RIRPA total energy     =     -4.61007318639  |
                  ---------------------------------------------------- 
                 :  RIRPA correlation energy   =     -4.61007318639  :
                 :  HXX total energy           =      0.00000000000  :
                 :  Hartree energy             =      0.00000000000  :
                 :  Exact Exchange energy      =      0.00000000000  :
                  .................................................... 


    ------------------------------------------------------------------------
    Rirpa profiling                cpu                    wall         ratio
    ------------------------------------------------------------------------
    module                         sec     %               sec     %
    ------------------------------------------------------------------------
    RIRPA                     31244.0  100.00         2550.0  100.00  12.3
    STARTUP                       5.2    0.02            4.6    0.18   1.1
    riccmos                      12.5    0.04            5.9    0.23   2.1
    riccaux                      78.5    0.25            3.8    0.15  20.6
    riccbound                    11.0    0.04            6.7    0.26   1.6
    ccmkbaoi                    456.6    1.46           22.2    0.87  20.5
    cc3idxnrm                   302.0    0.97           14.1    0.55  21.5
    ecrpa                     30372.7   97.21         2492.0   97.72  12.2
    tread                       563.5    1.80         1072.4   42.05   0.5
    tqbuild                   27594.0   88.32         1268.9   49.76  21.7
    trpaln                      960.5    3.07           40.2    1.58  23.9
    ------------------------------------------------------------------------
    sum                       91600.9  293.18         7480.7  293.36  12.2
    ------------------------------------------------------------------------


    ------------------------------------------------------------------------
         total  cpu-time :  8 hours 40 minutes and 45 seconds
         total wall-time : 42 minutes and 30 seconds
    ------------------------------------------------------------------------

   ****  rirpa : all done  ****


    2019-02-24 18:48:25.788 

