STARTING ridft ON 16 PROCESSORS!
RUNNING PROGRAM /sopt/TURBOMOLE/7.3-official/bin/em64t-unknown-linux-gnu_smp/ridft_mpi.
           SMPCPUS    set: Shared-memory Parallelization with  16 CPUs.

           SMP Parallelization Reference:
           C. van Wullen, J. Comput. Chem. 32 (2011) 1195--1201
 operating system is UNIX !

 ridft (c-16-28) : TURBOMOLE V7.3 ( 22118 ) 1 Jul 2018 at 20:38:15
 Copyright (C) 2018 TURBOMOLE GmbH, Karlsruhe


    2019-03-12 22:52:30.617 



                                  r i d f t

                        DFT program with RI approximation 
                                for coulomb part 




                                                 
                                 References:     
                                                 
          TURBOMOLE:                             
              R. Ahlrichs, M. Baer, M. Haeser, H. Horn, and
              C. Koelmel
              Electronic structure calculations on workstation
              computers: the program system TURBOMOLE
              Chem. Phys. Lett. 162: 165 (1989)
          Density Functional:                              
              O. Treutler and R. Ahlrichs                      
              Efficient Molecular Numerical Integration Schemes
              J. Chem. Phys. 102: 346 (1995)                   
          Parallel Version:                                
              Performance of parallel TURBOMOLE for Density    
              Functional Calculations                          
              M. v. Arnim and R. Ahlrichs                      
              J. Comp. Chem. 19: 1746 (1998)                   
          RI-J Method:                                     
              Auxiliary Basis Sets to approximate Coulomb      
              Potentials                                       
              Chem. Phys. Lett. 240: 283 (1995)                
              K. Eichkorn, O. Treutler, H. Oehm, M. Haeser     
              and R. Ahlrichs                                  
              Chem. Phys. Lett. 242: 652 (1995)                
                                                           
              Auxiliary Basis Sets for Main Row Atoms and their
              Use to approximate Coulomb Potentials            
              K. Eichkorn, F. Weigend, O. Treutler and         
              R. Ahlrichs                                      
              Theo. Chem. Acc. 97: 119 (1997)                   
                                                           
              Accurate Coulomb-fitting basis sets for H to Rn 
              F. Weigend                                        
              Phys. Chem. Chem. Phys. 8: 1057 (2006)            
                                                           
          Multipole accelerated RI-J (MARI-J):             
              Fast evaluation of the Coulomb potential for     
              electron densities using multipole accelerated   
              resolution of identity approximation             
              M. Sierka, A. Hogekamp and R. Ahlrichs           
              J. Chem. Phys. 118: 9136 (2003)                  
          RI-JK Method:                                     
              A fully direct RI-HF algorithm: Implementation,
              optimised auxiliary basis sets, demonstration of
              accuracy and efficiency                         
              F. Weigend                                      
              Phys. Chem. Chem. Phys. 4: 4285 (2002)           
          Two-component HF and DFT with spin-orbit coupling:  
              Self-consistent treatment of spin-orbit         
              interactions with efficient Hartree-Fock and    
              density functional methods                      
              M. K. Armbruster, F. Weigend, C. van Wüllen and 
              W. Klopper                                      
              Phys. Chem. Chem. Phys. 10: 1748 (2008)         
          Two-component difference density and DIIS algorithm 
              Efficient two-component self-consistent field   
              procedures and gradients: implementation in     
              TURBOMOLE and application to Au20-              
              A. Baldes, F. Weigend                           
              Mol. Phys. 111: 2617 (2013)                     
          Relativistic all-electron 2c calculations           
              An efficient implementation of two-component    
              relativistic exact-decoupling methods for large 
              molecules                                       
              D. Peng, N. Middendorf, F. Weigend, M. Reiher   
              J. Chem. Phys. 138: 184105 (2013)               
          Finite nucleus model and SNSO approximation         
              Efficient implementation of one- and two-       
              component analytical energy gradients in exact  
              two-component theory                            
              Y. J. Franzke, N. Middendorf, F. Weigend        
              J. Chem. Phys. 148: 104110 (2018)               
                                         




              +--------------------------------------------------+
              |      general information about current run       |
              +--------------------------------------------------+

 
 PBE functional
 exchange:    LDA + PBE
 correlation: LDA (PW) + PBE
 A DFT calculation using the RI-J approximation will be carried out.
 Allocatable memory for RI due to $ricore (MB):                  8000


              +--------------------------------------------------+
              | Atomic coordinate, charge and isotop information |
              +--------------------------------------------------+

                    atomic coordinates            atom    charge  isotop
         -0.00098493    0.12088822    9.90463354    c      6.000     0
          0.00104037   -0.14392119   12.77651262    c      6.000     0
         -1.67521479    0.73305544   13.59546212    h      1.000     0
          0.01852317   -2.12960808   13.33022103    h      1.000     0
          1.66146755    0.76251347   13.59597926    h      1.000     0
         -2.34321607   -1.16724743    8.82012253    c      6.000     0
         -2.38724521   -0.99914283    6.76631301    h      1.000     0
         -2.36605460   -3.17276917    9.29824818    h      1.000     0
         -4.06465023   -0.31254082    9.56672520    h      1.000     0
          2.36609568   -1.12168382    8.82093166    c      6.000     0
          2.40639747   -0.95484809    6.76685423    h      1.000     0
          2.42870332   -3.12585336    9.30109655    h      1.000     0
          4.07027383   -0.23229686    9.56627956    h      1.000     0
         -0.02790951    2.91729077    9.19670193    c      6.000     0
          1.63082783    3.88216040    9.95061786    h      1.000     0
         -0.02890011    3.15625594    7.14889701    h      1.000     0
         -1.70618654    3.84955637    9.94841257    h      1.000     0
 
       center of nuclear mass  :   -0.00099656    0.12111698    9.90363714
       center of nuclear charge:   -0.00099774    0.12115337    9.90353619

              +--------------------------------------------------+
              |               basis set information              |
              +--------------------------------------------------+

              we will work with the 1s 3p 5d 7f 9g ... basis set
              ...i.e. with spherical basis functions...

   type   atoms  prim   cont   basis
   ---------------------------------------------------------------------------
    c        5     68     48   def2-QZVP   [7s4p3d2f|15s8p3d2f]
    h       12     26     23   def2-QZVP   [4s3p2d|7s3p2d]
   ---------------------------------------------------------------------------
   total:   17    652    516
   ---------------------------------------------------------------------------

   total number of primitive shells          :   40
   total number of contracted shells         :  188
   total number of cartesian basis functions :  585
   total number of SCF-basis functions       :  516


 integral neglect threshold       :  0.57E-11
 integral storage threshold THIZE :  0.10E-04
 integral storage threshold THIME :         5

 RI-J AUXILIARY BASIS SET information:

              we will work with the 1s 3p 5d 7f 9g ... basis set
              ...i.e. with spherical basis functions...

   type   atoms  prim   cont   basis
   ---------------------------------------------------------------------------
    c        5     70     49   def2-QZVP   [6s4p3d1f1g|12s5p4d2f1g]
    h       12     16     11   def2-QZVP   [3s1p1d|5s2p1d]
   ---------------------------------------------------------------------------
   total:   17    542    377
   ---------------------------------------------------------------------------

   total number of primitive shells          :   32
   total number of contracted shells         :  135
   total number of cartesian basis functions :  449
   total number of SCF-basis functions       :  377


 symmetry group of the molecule :   c1 

 the group has the following generators :
   c1(z)

    1 symmetry operations found

 there are 1 real representations :   a   

 maximum number of shells which are related by symmetry :  1


    mo occupation :
   irrep   mo's   occupied
    a      516       21
 
 number of basis functions   :                    516
 number of occupied orbitals :                     21
 
  
           ------------------
           density functional
           ------------------
 PBE functional
 exchange:    LDA + PBE
 correlation: LDA (PW) + PBE

 iterations will be done with small grid
  
 spherical integration : Lebedev's spherical grid
 spherical gridsize    :                     4
    i.e. gridpoints    :                   434
 value for diffuse not defined
 radial integration    : Chebyshev 2nd kind (scaling 3)
 radial gridsize       :                     6
 integration cells     :                    17
 partition function    : becke
 partition sharpness   :                     3
  

 biggest AO integral is expected to be     5.262544080
  
           ------------------------
               RI-J - INFORMATION
           ------------------------
 Contributions to RI integral batches: 
  neglected integral batches:                  1556
  direct contribution:                            0
  memory contribution:                 16210
 Memory core needed for (P|Q) and Cholesky      2 MByte
 Memory core minimum needed except of (P|Q)     2 MByte
 Total minimum memory core needed (sum)         3 MByte
  
 ****************************************
 Memory allocated for RI-J   550 MByte
 ****************************************
                                            

          ------------------------
          nuclear repulsion energy  :   199.368957381    
          ------------------------

  _________________________________
 |                                 |
 |         DFTD3 V3.1 Rev 0        |
 | S.Grimme, University Bonn       |
 |            June  2014           |
 |   see standalone version        |
 |       dftd3 -h for options      |
 |_________________________________|
 
 Please cite DFT-D3 work done with this code as:
 S. Grimme, J. Antony, S. Ehrlich and H. Krieg,
 J. Chem. Phys, 132 (2010), 154104.
 If used with BJ-damping cite also
 S. Grimme, S. Ehrlich and L. Goerigk,
 J. Comput. Chem. 32 (2011), 1456-1465
 For DFT-D2 the reference is
 S. Grimme, J. Comput. Chem., 27 (2006), 1787-1799
 
C6 coefficients used:
                     2  C6 for element                      1
Z=  1 CN= 0.912     C6(AA)=    3.03
Z=  1 CN= 0.000     C6(AA)=    7.59
                     5  C6 for element                      6
Z=  6 CN= 0.000     C6(AA)=   49.11
Z=  6 CN= 0.987     C6(AA)=   43.25
Z=  6 CN= 1.998     C6(AA)=   29.36
Z=  6 CN= 2.999     C6(AA)=   25.78
Z=  6 CN= 3.984     C6(AA)=   18.21

#           XYZ [au]              R0(AA) [Ang.]  CN          C6(AA)     C8(AA)   C10(AA) [au]
  1  -0.00098   0.12089   9.90463   c   0.610  4.022        18.3       529.5     18758.5
  2   0.00104  -0.14392  12.77651   c   0.610  4.096        18.3       528.2     18713.5
  3  -1.67521   0.73306  13.59546   h   0.395  0.999         3.1        37.4       553.3
  4   0.01852  -2.12961  13.33022   h   0.395  0.999         3.1        37.4       553.4
  5   1.66147   0.76251  13.59598   h   0.395  0.999         3.1        37.4       553.4
  6  -2.34322  -1.16725   8.82012   c   0.610  4.096        18.3       528.2     18713.4
  7  -2.38725  -0.99914   6.76631   h   0.395  0.999         3.1        37.4       553.3
  8  -2.36605  -3.17277   9.29825   h   0.395  0.999         3.1        37.4       553.4
  9  -4.06465  -0.31254   9.56673   h   0.395  0.999         3.1        37.4       553.4
 10   2.36610  -1.12168   8.82093   c   0.610  4.096        18.3       528.2     18713.4
 11   2.40640  -0.95485   6.76685   h   0.395  0.999         3.1        37.4       553.3
 12   2.42870  -3.12585   9.30110   h   0.395  0.999         3.1        37.4       553.4
 13   4.07027  -0.23230   9.56628   h   0.395  0.999         3.1        37.4       553.4
 14  -0.02791   2.91729   9.19670   c   0.610  4.096        18.3       528.2     18713.4
 15   1.63083   3.88216   9.95062   h   0.395  0.999         3.1        37.4       553.4
 16  -0.02890   3.15626   7.14890   h   0.395  0.999         3.1        37.4       553.4
 17  -1.70619   3.84956   9.94841   h   0.395  0.999         3.1        37.4       553.4

molecular C6(AA) [au] =      1796.51

           DFT-D V3(BJ)
 DF pbe                                               
 parameters
 s6       :    1.0000
 s8       :    0.7875
 a1       :    0.4289
 a2       :    4.4407
 k1-k3    :   16.0000    1.3333   -4.0000
 
 Edisp /kcal,au:    -8.5268 -0.01358832

 E6    /kcal :    -6.1780
 E8    /kcal :    -2.3488
 % E8        : 27.55
 nuclear repulsion energy                  =     199.368957381
 empirical dispersive energy correction    =      -0.013588324
 nuclear repulsion + dispersion correction =     199.355369057


         -----------------
         -S,T+V- integrals
         -----------------

 1e-integrals will be neglected if expon. factor < 0.571275E-12
 Difference densities >>NOT<< switched on in parallel ridft!

 DIIS switched on: error vector is FDS-SDF
 Max. Iterations for DIIS is     :   4
 DIIS matrix (see manual) 
    Scaling factor of diagonals  :  1.200
    threshold for scaling factor :  0.000

 scf convergence criterion : increment of total energy < .1000000D-06
                  and increment of one-electron energy < .1000000D-03

  MOs are in ASCII format !


 automatic virtual orbital shift switched on 
      shift if e(lumo)-e(homo) < 0.10000000    


 reading orbital data $scfmo  from file mos
 orbital characterization : expanded
 mo provided and orthogonalized by Cholesky decomposition

 DSCF restart information will be dumped onto file mos


 Starting SCF iterations

          Overall gridpoints after grid construction =         38676

 ITERATION  ENERGY          1e-ENERGY        2e-ENERGY     NORM[dD(SAO)]  TOL
   1  -196.89181856457    -650.69674736     254.44955974    0.000D+00 0.570D-11
                            Exc = -30.3322335244     Coul =  284.781793263    
                              N = 42.000183270    
                            current damping = 0.700
 
          max. resid. norm for Fia-block=  4.486D-01 for orbital      6a         
          max. resid. fock norm         =  3.912D+01 for orbital    467a         

 ITERATION  ENERGY          1e-ENERGY        2e-ENERGY     NORM[dD(SAO)]  TOL
   2  -197.43275698585    -656.55802110     259.76989506    0.000D+00 0.570D-11
                            Exc = -30.9611236904     Coul =  290.731018749    
                              N = 42.000138364    
                            current damping = 0.650
 
          Norm of current diis error:  2.5410    
          max. resid. norm for Fia-block=  1.016D-01 for orbital      6a         
          max. resid. fock norm         =  1.244D-01 for orbital     46a         

 ITERATION  ENERGY          1e-ENERGY        2e-ENERGY     NORM[dD(SAO)]  TOL
   3  -197.53802083950    -657.47970532     260.58631542    0.000D+00 0.570D-11
                            Exc = -31.1460185503     Coul =  291.732333975    
                              N = 42.000112698    
                            current damping = 0.550
 
          Norm of current diis error:  1.2244    
          max. resid. norm for Fia-block=  4.573D-02 for orbital      6a         
          max. resid. fock norm         =  5.244D-02 for orbital      6a         

 ITERATION  ENERGY          1e-ENERGY        2e-ENERGY     NORM[dD(SAO)]  TOL
   4  -197.56858498876    -658.83295421     261.90900017    0.000D+00 0.570D-11
                            Exc = -31.3013768343     Coul =  293.210377000    
                              N = 42.000097100    
                            current damping = 0.450
 
          Norm of current diis error: 0.43806    
          max. resid. norm for Fia-block=  1.890D-02 for orbital      6a         
          max. resid. fock norm         =  2.213D-02 for orbital      6a         

 ITERATION  ENERGY          1e-ENERGY        2e-ENERGY     NORM[dD(SAO)]  TOL
   5  -197.57295351410    -658.80901554     261.88069297    0.000D+00 0.570D-11
                            Exc = -31.3355130912     Coul =  293.216206059    
                              N = 42.000089870    
                            current damping = 0.500
 
          Norm of current diis error: 0.19205    
          max. resid. norm for Fia-block=  7.153D-03 for orbital     10a         
          max. resid. fock norm         =  8.152D-03 for orbital     10a         
          mo-orthogonalization: Cholesky decomposition

 ITERATION  ENERGY          1e-ENERGY        2e-ENERGY     NORM[dD(SAO)]  TOL
   6  -197.57375128817    -659.15219966     262.22307931    0.000D+00 0.570D-11
                            Exc = -31.3637660995     Coul =  293.586845414    
                              N = 42.000087161    
                            current damping = 0.550
 
          Norm of current diis error: 0.61332E-01
          max. resid. norm for Fia-block=  2.434D-03 for orbital      6a         
          max. resid. fock norm         =  3.408D-03 for orbital    507a         

 ITERATION  ENERGY          1e-ENERGY        2e-ENERGY     NORM[dD(SAO)]  TOL
   7  -197.57383855280    -659.10924301     262.18003540    0.000D+00 0.570D-11
                            Exc = -31.3653536135     Coul =  293.545389011    
                              N = 42.000086318    
                            current damping = 0.600
 
          Norm of current diis error: 0.16978E-01
          max. resid. norm for Fia-block=  6.718D-04 for orbital      6a         
          max. resid. fock norm         =  7.557D-04 for orbital      6a         

 ITERATION  ENERGY          1e-ENERGY        2e-ENERGY     NORM[dD(SAO)]  TOL
   8  -197.57384595726    -659.11467248     262.18545747    0.000D+00 0.570D-11
                            Exc = -31.3665304210     Coul =  293.551987889    
                              N = 42.000085964    
                            current damping = 0.650
 
          Norm of current diis error: 0.68363E-02
          max. resid. norm for Fia-block=  2.763D-04 for orbital      6a         
          max. resid. fock norm         =  3.054D-04 for orbital      6a         

 ITERATION  ENERGY          1e-ENERGY        2e-ENERGY     NORM[dD(SAO)]  TOL
   9  -197.57384715643    -659.12254824     262.19333203    0.000D+00 0.570D-11
                            Exc = -31.3675135442     Coul =  293.560845575    
                              N = 42.000085858    
                            current damping = 0.500
 
          Norm of current diis error: 0.24670E-02
          max. resid. norm for Fia-block=  1.008D-04 for orbital      6a         
          max. resid. fock norm         =  1.134D-04 for orbital      6a         

 ITERATION  ENERGY          1e-ENERGY        2e-ENERGY     NORM[dD(SAO)]  TOL
  10  -197.57384731939    -659.12203904     262.19282266    0.000D+00 0.570D-11
                            Exc = -31.3675798255     Coul =  293.560402488    
                              N = 42.000085795    
                            current damping = 0.550
 
          Norm of current diis error: 0.92981E-03
          max. resid. norm for Fia-block=  4.130D-05 for orbital      6a         
          max. resid. fock norm         =  5.331D-05 for orbital    508a         
          mo-orthogonalization: Cholesky decomposition

 ITERATION  ENERGY          1e-ENERGY        2e-ENERGY     NORM[dD(SAO)]  TOL
  11  -197.57384734117    -659.12248741     262.19327101    0.000D+00 0.570D-11
                            Exc = -31.3676838337     Coul =  293.560954846    
                              N = 42.000085781    
                            current damping = 0.600
 
          Norm of current diis error: 0.37465E-03
          max. resid. norm for Fia-block=  1.488D-05 for orbital     10a         
          max. resid. fock norm         =  1.784D-05 for orbital    513a         

 ITERATION  ENERGY          1e-ENERGY        2e-ENERGY     NORM[dD(SAO)]  TOL
  12  -197.57384734430    -659.12305798     262.19384158    0.000D+00 0.570D-11
                            Exc = -31.3677282587     Coul =  293.561569839    
                              N = 42.000085774    
                            current damping = 0.450
 
          Norm of current diis error: 0.13116E-03
          max. resid. norm for Fia-block=  5.138D-06 for orbital      6a         
          max. resid. fock norm         =  7.408D-06 for orbital     52a         

 ENERGY CONVERGED !

          Overall gridpoints after grid construction =        149386

 ITERATION  ENERGY          1e-ENERGY        2e-ENERGY     NORM[dD(SAO)]  TOL
  13  -197.57372573244    -659.12288125     262.19378646    0.000D+00 0.570D-11
                            Exc = -31.3676025801     Coul =  293.561389040    
                              N = 41.999972126    
                            current damping = 0.500
 
          Norm of current diis error: 0.36996E-04
          max. resid. norm for Fia-block=  1.409D-06 for orbital      6a         
          max. resid. fock norm         =  1.569D-06 for orbital      6a         

 End of SCF iterations

   convergence criteria satisfied after    13 iterations


                  ------------------------------------------ 
                 |  total energy      =   -197.57372573244  |
                  ------------------------------------------ 
                 :  kinetic energy    =    196.68051517548  :
                 :  potential energy  =   -394.25424090792  :
                 :  virial theorem    =      1.99547910253  :
                 :  wavefunction norm =      1.00000000000  :
                  .......................................... 


 orbitals $scfmo  will be written to file mos

    irrep                 17a         18a         19a         20a         21a   
 eigenvalues H         -0.31779    -0.31774    -0.28094    -0.28085    -0.28084
            eV          -8.6475     -8.6463     -7.6447     -7.6423     -7.6422
 occupation              2.0000      2.0000      2.0000      2.0000      2.0000 

    irrep                 22a         23a         24a         25a         26a   
 eigenvalues H         -0.00470     0.03986     0.03987     0.03988     0.05122
            eV          -0.1280      1.0847      1.0849      1.0851      1.3937
 
 
 
 
 ==============================================================================
                           electrostatic moments
 ==============================================================================

 reference point for electrostatic moments:    0.00000   0.00000   0.00000

 
              nuc           elec       ->  total
 ------------------------------------------------------------------------------
                          charge      
 ------------------------------------------------------------------------------
          42.000000     -42.000000      -0.000000
 
 ------------------------------------------------------------------------------
                       dipole moment  
 ------------------------------------------------------------------------------
   x      -0.041905       0.041950       0.000044
   y       5.088442      -5.088105       0.000336
   z     415.948520    -415.948456       0.000064
 
   | dipole moment | =     0.0003 a.u. =     0.0009 debye 
 
 ------------------------------------------------------------------------------
                     quadrupole moment
 ------------------------------------------------------------------------------
  xx     133.752790    -160.445952     -26.693162
  yy     134.404644    -161.096632     -26.691987
  zz    4253.194111   -4279.886595     -26.692484
  xy      -0.004760       0.004692      -0.000068
  xz      -0.416050       0.416438       0.000388
  yz      50.417325     -50.415268       0.002057
 
     1/3  trace=     -26.692544
     anisotropy=       0.003768
 
 ==============================================================================
 


    ------------------------------------------------------------------------
         total  cpu-time :  2 minutes and 15 seconds
         total wall-time :  34.38 seconds
    ------------------------------------------------------------------------

   ****  ridft : all done  ****


    2019-03-12 22:53:04.966 

