STARTING dscf ON 32 PROCESSORS!
RUNNING PROGRAM /beegfs/modfac/apps/TURBOMOLE/7.2.1-official/bin/em64t-unknown-linux-gnu_mpi/dscf_mpi.
PLEASE WAIT UNTIL dscf HAS FINISHED.
Look for the output in slave1.output.
MACHINEFILE is ./hostlist
 this is node-proc. number 1 running on node c-8-31.local
 the total number of node-proc. spawned is  33
  parallel platform: MPP or cluster with fast interconnect

 dscf (c-8-31.local) : TURBOMOLE V7.2 ( 21471 ) 7 Nov 2017 at 16:15:16
 Copyright (C) 2017 TURBOMOLE GmbH, Karlsruhe


    2018-02-19 18:27:44.659 


 SCF run will be profiled !



                             d s c f - program

                   idea & directorship : reinhart ahlrichs
                   program development : marco haeser
                                         michael baer
                           dft version : oliver treutler
           parallelized version : malte v. arnim, gina corongiu, GMD 


                          quantum chemistry group
                          universitaet  karlsruhe
                                  germany




                          References             
                                                 
          TURBOMOLE:                             
              R. Ahlrichs, M. Baer, M. Haeser, H. Horn, and
              C. Koelmel
              Electronic structure calculations on workstation
              computers: the program system TURBOMOLE
              Chem. Phys. Lett. 162: 165 (1989)
          Density Functional:                              
              O. Treutler and R. Ahlrichs                      
              Efficient Molecular Numerical Integration Schemes
              J. Chem. Phys. 102: 346 (1995)                   
          Parallel Version:                                
              Performance of parallel TURBOMOLE for Density    
              Functional Calculations                          
              M. v. Arnim and R. Ahlrichs                      
              J. Comp. Chem. 19: 1746 (1998)                   
                                         




              +--------------------------------------------------+
              | Atomic coordinate, charge and isotop information |
              +--------------------------------------------------+

                    atomic coordinates            atom    charge  isotop
          2.49364621   -1.26507338   -8.01170292    c      6.000     0
          2.53494542    3.03706102   -7.55092609    c      6.000     0
          0.02477006   -0.35889454   -8.49808667    c      6.000     0
          0.05354870    2.30023333   -8.22058254    c      6.000     0
          4.04428682    0.83289603   -7.41509646    c      6.000     0
         -2.11573637   -1.85802927   -8.28298728    c      6.000     0
         -2.10092615    3.70349471   -7.71726855    c      6.000     0
          3.06608971   -3.72160108   -7.30561999    c      6.000     0
          3.07658939    5.28935768   -6.32617825    c      6.000     0
          6.26821327    0.69226021   -6.03061447    c      6.000     0
          5.56358485    5.31242654   -5.15102944    c      6.000     0
          5.62633899   -3.98941004   -6.35593577    c      6.000     0
         -4.41782324    2.26387163   -8.00091368    c      6.000     0
         -4.44407934   -0.40506423   -8.08372697    c      6.000     0
         -1.53700404   -4.52897138   -8.04587632    c      6.000     0
         -1.55952568    6.21887195   -6.75240052    c      6.000     0
          0.90447206   -5.42157482   -7.43472764    c      6.000     0
          0.93946502    7.01369184   -6.24791086    c      6.000     0
          7.86723999   -7.21682937   -3.05992706    c      6.000     0
          8.17695886    6.87957646   -0.87034308    c      6.000     0
          7.10287412   -1.89617824   -5.59685648    c      6.000     0
          7.12276193    3.14179954   -5.12158150    c      6.000     0
          9.20092132   -5.17035088   -2.05507463    c      6.000     0
          9.78940939    4.79436330   -1.03635388    c      6.000     0
         -9.06440282    2.65966792   -5.90122638    c      6.000     0
         -9.06573963    0.03370790   -5.61629019    c      6.000     0
         -3.90049572   -8.49833916   -5.81749655    c      6.000     0
         -2.99798165    9.82913641   -3.22365467    c      6.000     0
         -1.55268726   -9.35801588   -4.96873549    c      6.000     0
         -0.51695791   10.71240456   -3.02158206    c      6.000     0
         -1.40553142  -10.85831182   -2.79478808    c      6.000     0
          0.29967127   11.91886111   -0.82032423    c      6.000     0
         -4.69305784   10.20032059   -1.23062256    c      6.000     0
         -6.09833858   -9.06350437   -4.46955470    c      6.000     0
        -10.47767909   -1.07462187   -3.67523318    c      6.000     0
        -10.43846264    4.19129640   -4.24721889    c      6.000     0
          7.32752921   -9.32811673   -1.56877779    c      6.000     0
          7.83453253    8.10420411    1.44578185    c      6.000     0
         10.05561042   -5.25818828    0.44358680    c      6.000     0
         11.01616860    3.87941580    1.11585305    c      6.000     0
          9.13736794    7.25267803    3.56957871    c      6.000     0
          8.23575530   -9.43151682    0.90256064    c      6.000     0
          9.60562828   -7.40872947    1.89974673    c      6.000     0
         10.70972307    5.13715612    3.41024664    c      6.000     0
        -11.90711145    0.44736131   -2.07136350    c      6.000     0
        -11.88564062    3.07290575   -2.35256865    c      6.000     0
         -3.90325112   11.48500151    0.92928631    c      6.000     0
         -5.94542140  -10.59438356   -2.32917436    c      6.000     0
         -3.60833748  -11.50612407   -1.50763770    c      6.000     0
         -1.41156360   12.32818395    1.14147829    c      6.000     0
          6.64325746    8.07422270   -3.58905798    s     16.000     0
          6.99237136   -7.04024089   -6.27432210    s     16.000     0
         -7.39590085   -1.95354081   -7.73644177    s     16.000     0
         -7.29206644    3.92030701   -8.42994172    s     16.000     0
          1.25642617   -8.66208332   -6.64998729    s     16.000     0
          1.48652448   10.26088852   -5.65059781    s     16.000     0
         -3.96198999   -6.74708411   -8.65900711    s     16.000     0
         -4.07136424    8.30704510   -6.00363116    s     16.000     0
          9.94667960   -2.50492193   -3.93558814    s     16.000     0
         10.27865444    3.46001031   -4.05651299    s     16.000     0
         11.05406921   -3.65047082    1.23542481    h      1.000     0
         12.21730670    2.22315567    0.96992597    h      1.000     0
          0.42705632  -11.48462476   -2.11847706    h      1.000     0
          2.24843481   12.54102131   -0.67201645    h      1.000     0
        -10.37365401    6.22956334   -4.46768460    h      1.000     0
        -10.43516566   -3.11004814   -3.42393768    h      1.000     0
         -7.90017396   -8.32784177   -5.11691506    h      1.000     0
         -6.60310011    9.46432732   -1.37059464    h      1.000     0
          6.54253927    9.69285451    1.57447733    h      1.000     0
          6.23778648  -10.87427686   -2.36189853    h      1.000     0
         10.28319587   -7.47986520    3.83489008    h      1.000     0
         11.67854769    4.44979509    5.08308224    h      1.000     0
          8.88285948    8.21042134    5.36594648    h      1.000     0
          7.85654633  -11.08434137    2.05765752    h      1.000     0
        -12.97789182    4.25115167   -1.07621749    h      1.000     0
        -13.00367354   -0.41720566   -0.56868284    h      1.000     0
         -7.65221580  -11.06114290   -1.29055316    h      1.000     0
         -5.22464978   11.77780575    2.47095688    h      1.000     0
         -0.79302115   13.28698349    2.84680946    h      1.000     0
         -3.49323676  -12.67444632    0.17471550    h      1.000     0
 
       center of nuclear mass  :    1.02080173    0.55730085   -4.49726326
       center of nuclear charge:    0.99848983    0.54774732   -4.40040335

              +--------------------------------------------------+
              |               basis set information              |
              +--------------------------------------------------+

              we will work with the 1s 3p 5d 7f 9g ... basis set
              ...i.e. with spherical basis functions...

   type   atoms  prim   cont   basis
   ---------------------------------------------------------------------------
    c       50     50     30   cc-pVTZ   [4s3p2d1f|18s5p2d1f]
    s       10    106     34   cc-pVTZ   [5s4p2d1f|41s16p2d1f]
    h       20     16     14   cc-pVTZ   [3s2p1d|5s2p1d]
   ---------------------------------------------------------------------------
   total:   80   3880   2120
   ---------------------------------------------------------------------------

   total number of primitive shells          :   94
   total number of contracted shells         :  740
   total number of cartesian basis functions : 2440
   total number of SCF-basis functions       : 2120


 integral neglect threshold       :  0.14E-11
 integral storage threshold THIZE :  0.10E-04
 integral storage threshold THIME :         5


 DENSITY CONVERGENCE CHECK SWITCHED ON !
 SCF CONVERGENCE IF RMS(delta[D]) <     0.1000000000E-06


 symmetry group of the molecule :   c1 

 the group has the following generators :
   c1(z)

    1 symmetry operations found

 there are 1 real representations :   a   

 maximum number of shells which are related by symmetry :  1


    mo occupation :
   irrep   mo's   occupied
    a     2120      240
 
 number of basis functions   :                   2120
 number of occupied orbitals :                    240
 

 automatic virtual orbital shift switched on 
      shift if e(lumo)-e(homo) < 0.10000000    


 keyword $2e-ints_shell_statistics missing in file <control>

 ! One task per shell generated
  No pre-computed optimal task distribution found
  ... using automatic task generation

          ------------------------
          nuclear repulsion energy  :   11028.3598399    
          ------------------------


         -----------------
         -S,T+V- integrals
         -----------------

 1e-integrals will be neglected if expon. factor < 0.136966E-12
 
   Difference densities algorithm switched on.
   The maximal number of linear combinations of
   difference densities is                    20 .

 DIIS switched on: error vector is FDS-SDF
 Max. Iterations for DIIS is     :   5
 DIIS matrix (see manual) 
    Scaling factor of diagonals  :  1.200
    threshold for scaling factor :  0.000

 scf convergence criterion : increment of total energy < .1000000D-06
                  and increment of one-electron energy < .1000000D-03

  MOs are in ASCII format !


 reading orbital data $scfmo  from file mos
 orbital characterization : expanded
 mo provided and orthogonalized by Cholesky decomposition

 DSCF restart information will be dumped onto file mos

 
                                              current damping :  0.300
 ITERATION  ENERGY          1e-ENERGY        2e-ENERGY     RMS[dD(SAO)]   TOL
   1  -5871.3302646289    -30014.905618     13115.215513    0.000D+00 0.137D-11
          max. resid. norm for Fia-block=  2.034D+00 for orbital      1a         
          max. resid. fock norm         =  4.694D+00 for orbital   2012a         
          Delta Eig. =   286.6722155809 eV 
 
                                              current damping :  0.250
 ITERATION  ENERGY          1e-ENERGY        2e-ENERGY     RMS[dD(SAO)]   TOL
   2  -5879.6725451636    -30072.895962     13164.863577    0.920D-02 0.117D-11
          Norm of current diis error:  5.0021    
          max. resid. norm for Fia-block=  4.598D-01 for orbital      6a         
          max. resid. fock norm         =  5.429D-01 for orbital      6a         
          Delta Eig. =    75.3841584772 eV 
 
                                              current damping :  0.200
 ITERATION  ENERGY          1e-ENERGY        2e-ENERGY     RMS[dD(SAO)]   TOL
   3  -5880.7188637989    -30071.396309     13162.317605    0.155D-02 0.791D-12
          Norm of current diis error:  1.9782    
          max. resid. norm for Fia-block=  9.424D-02 for orbital      7a         
          max. resid. fock norm         =  1.115D-01 for orbital      7a         
          Delta Eig. =    14.5447229564 eV 
 
                                              current damping :  0.250
 ITERATION  ENERGY          1e-ENERGY        2e-ENERGY     RMS[dD(SAO)]   TOL
   4  -5880.9456262579    -30082.607023     13173.301557    0.773D-03 0.688D-12
          Norm of current diis error: 0.61899    
          max. resid. norm for Fia-block=  1.838D-02 for orbital    238a         
          max. resid. fock norm         =  2.269D-02 for orbital    241a         
          Delta Eig. =     2.8090489141 eV 
 
                                              current damping :  0.300
 ITERATION  ENERGY          1e-ENERGY        2e-ENERGY     RMS[dD(SAO)]   TOL
   5  -5880.9801074794    -30080.185766     13170.845819    0.387D-03 0.616D-12
          Norm of current diis error: 0.23672    
          max. resid. norm for Fia-block=  8.654D-03 for orbital    235a         
          max. resid. fock norm         =  1.088D-02 for orbital    241a         
 mo-orthogonalization: Cholesky decomposition
          Delta Eig. =     0.4954184314 eV 
 
                                              current damping :  0.350
 ITERATION  ENERGY          1e-ENERGY        2e-ENERGY     RMS[dD(SAO)]   TOL
   6  -5880.9879420828    -30081.024275     13171.676493    0.172D-03 0.568D-12
          Norm of current diis error: 0.11438    
          max. resid. norm for Fia-block=  5.357D-03 for orbital    209a         
          max. resid. fock norm         =  6.163D-03 for orbital    241a         
          Delta Eig. =     0.1157430485 eV 
 
                                              current damping :  0.400
 ITERATION  ENERGY          1e-ENERGY        2e-ENERGY     RMS[dD(SAO)]   TOL
   7  -5880.9901352210    -30081.017315     13171.667340    0.953D-04 0.527D-12
          Norm of current diis error: 0.51363E-01
          max. resid. norm for Fia-block=  2.945D-03 for orbital    235a         
          max. resid. fock norm         =  3.506D-03 for orbital    241a         
          Delta Eig. =     0.0471449643 eV 
 
                                              current damping :  0.450
 ITERATION  ENERGY          1e-ENERGY        2e-ENERGY     RMS[dD(SAO)]   TOL
   8  -5880.9906590545    -30081.048574     13171.698075    0.447D-04 0.494D-12
          Norm of current diis error: 0.24114E-01
          max. resid. norm for Fia-block=  1.444D-03 for orbital    238a         
          max. resid. fock norm         =  1.682D-03 for orbital    241a         
          Delta Eig. =     0.0227951351 eV 
 
                                              current damping :  0.300
 ITERATION  ENERGY          1e-ENERGY        2e-ENERGY     RMS[dD(SAO)]   TOL
   9  -5880.9907704270    -30081.049806     13171.699196    0.193D-04 0.470D-12
          Norm of current diis error: 0.10701E-01
          max. resid. norm for Fia-block=  7.323D-04 for orbital    238a         
          max. resid. fock norm         =  8.336D-04 for orbital    241a         
          Delta Eig. =     0.0140676966 eV 
 
                                              current damping :  0.150
 ITERATION  ENERGY          1e-ENERGY        2e-ENERGY     RMS[dD(SAO)]   TOL
  10  -5880.9907947827    -30081.066151     13171.715516    0.934D-05 0.452D-12
          Norm of current diis error: 0.46684E-02
          max. resid. norm for Fia-block=  3.066D-04 for orbital    238a         
          max. resid. fock norm         =  3.518D-04 for orbital    241a         
 mo-orthogonalization: Cholesky decomposition
          Delta Eig. =     0.0079943407 eV 
 
                                              current damping :  0.200
 ITERATION  ENERGY          1e-ENERGY        2e-ENERGY     RMS[dD(SAO)]   TOL
  11  -5880.9907990063    -30081.058911     13171.708272    0.417D-05 0.437D-12
          Norm of current diis error: 0.19534E-02
          max. resid. norm for Fia-block=  1.213D-04 for orbital    238a         
          max. resid. fock norm         =  1.396D-04 for orbital    241a         
          Delta Eig. =     0.0046372568 eV 
 
                                              current damping :  0.250
 ITERATION  ENERGY          1e-ENERGY        2e-ENERGY     RMS[dD(SAO)]   TOL
  12  -5880.9907995758    -30081.064541     13171.713902    0.125D-05 0.427D-12
          Norm of current diis error: 0.10079E-02
          max. resid. norm for Fia-block=  6.017D-05 for orbital    238a         
          max. resid. fock norm         =  7.151D-05 for orbital    241a         
          Delta Eig. =     0.0020330938 eV 
 
                                              current damping :  0.300
 ITERATION  ENERGY          1e-ENERGY        2e-ENERGY     RMS[dD(SAO)]   TOL
  13  -5880.9907997333    -30081.062824     13171.712185    0.662D-06 0.418D-12
          Norm of current diis error: 0.49707E-03
          max. resid. norm for Fia-block=  4.156D-05 for orbital    238a         
          max. resid. fock norm         =  4.346D-05 for orbital    241a         
          Delta Eig. =     0.0009248031 eV 
 
                                              current damping :  0.150
 ITERATION  ENERGY          1e-ENERGY        2e-ENERGY     RMS[dD(SAO)]   TOL
  14  -5880.9907997840    -30081.062655     13171.712016    0.369D-06 0.408D-12
          Norm of current diis error: 0.26981E-03
          max. resid. norm for Fia-block=  2.343D-05 for orbital    238a         
          max. resid. fock norm         =  2.521D-05 for orbital    241a         
          Delta Eig. =     0.0004488707 eV 
 
                                              current damping :  0.200
 ITERATION  ENERGY          1e-ENERGY        2e-ENERGY     RMS[dD(SAO)]   TOL
  15  -5880.9907998024    -30081.062902     13171.712262    0.239D-06 0.395D-12
          Norm of current diis error: 0.12332E-03
          max. resid. norm for Fia-block=  1.079D-05 for orbital    238a         
          max. resid. fock norm         =  1.134D-05 for orbital    241a         
 mo-orthogonalization: Cholesky decomposition
          Delta Eig. =     0.0002733519 eV 

 DENSITY CONVERGED !

 
                                              current damping :  0.250
 ITERATION  ENERGY          1e-ENERGY        2e-ENERGY     RMS[dD(SAO)]   TOL
  16  -5880.9907998057    -30081.062574     13171.711934    0.977D-07 0.389D-12
          Norm of current diis error: 0.62661E-04
          max. resid. norm for Fia-block=  5.172D-06 for orbital    237a         
          max. resid. fock norm         =  5.894D-06 for orbital    241a         
          Delta Eig. =     0.0001153414 eV 

 ENERGY & DENSITY CONVERGED !

 
                                              current damping :  0.300
 ITERATION  ENERGY          1e-ENERGY        2e-ENERGY     RMS[dD(SAO)]   TOL
  17  -5880.9907998048    -30081.062700     13171.712061    0.499D-07 0.389D-12
          max. resid. norm for Fia-block=  1.560D-06 for orbital    237a         
          max. resid. fock norm         =  1.948D-06 for orbital    242a         

 convergence criteria satisfied after    17 iterations


                  ------------------------------------------ 
                 |  total energy      =  -5880.99079980477  |
                  ------------------------------------------ 
                 :  kinetic energy    =   5877.96162006550  :
                 :  potential energy  = -11758.95241987028  :
                 :  virial theorem    =      1.99948492017  :
                 :  wavefunction norm =      1.00000000000  :
                  .......................................... 


 <geterg> : there is no data group $energy 


 <skperg> : $end is missing 


 orbitals $scfmo  will be written to file mos

    irrep                236a        237a        238a        239a        240a   
 eigenvalues H         -0.32380    -0.29005    -0.28982    -0.28387    -0.28291
            eV          -8.8112     -7.8927     -7.8866     -7.7244     -7.6983
 occupation              2.0000      2.0000      2.0000      2.0000      2.0000 

    irrep                241a        242a        243a        244a        245a   
 eigenvalues H          0.01792     0.01838     0.07961     0.09817     0.09953
            eV           0.4875      0.5002      2.1662      2.6715      2.7082
 
 
 
 
 ==============================================================================
                           electrostatic moments
 ==============================================================================

 reference point for electrostatic moments:    0.00000   0.00000   0.00000

 
              nuc           elec       ->  total
 ------------------------------------------------------------------------------
                          charge      
 ------------------------------------------------------------------------------
         480.000000    -480.000000      -0.000000
 
 ------------------------------------------------------------------------------
                       dipole moment  
 ------------------------------------------------------------------------------
   x     479.275117    -480.154541      -0.879424
   y     262.918716    -263.324932      -0.406216
   z   -2112.193606    2115.974300       3.780694
 
   | dipole moment | =     3.9028 a.u. =     9.9200 debye 
 
 ------------------------------------------------------------------------------
                     quadrupole moment
 ------------------------------------------------------------------------------
  xx   21348.151032  -21647.398582    -299.247549
  yy   22116.423263  -22412.873387    -296.450124
  zz   14452.109921  -14781.947143    -329.837222
  xy    -330.792196     329.174000      -1.618196
  xz    1774.360940   -1766.803955       7.556985
  yz     718.930114    -715.234640       3.695474
 
     1/3  trace=    -308.511632
     anisotropy=      35.345089
 
 ==============================================================================
 

    dscf profiling
  --------------------------------------------------------------------
             module   cpu total (s)       %  wall total (s)       %

          dscf.total          4265.4  100.00          3922.5  100.00
        dscf.prepare            12.2    0.29            12.3    0.31
      prepare.oneint             0.2    0.00             0.2    0.00
     prepare.moinput             0.4    0.01             0.4    0.01
     moinput_orthmos            11.5    0.27            11.4    0.29
            dscf.scf          4251.9   99.68          3908.8   99.65
             scf.pre             0.0    0.00             0.0    0.00
        scf.makedmat            11.8    0.28            12.3    0.31
          scf.shloop          3541.0   83.02          3538.0   90.20
          shloop_omp          3540.1   82.99          3537.1   90.17
          scf.symcar             1.1    0.02             1.1    0.03
        scf.makefock             2.7    0.06             3.8    0.10
          scf.newerg             0.1    0.00             0.1    0.00
          scf.newcnv           111.6    2.62            14.2    0.36
           scf.fdiag           237.6    5.57            29.7    0.76
         diag_tritrn            76.6    1.80             9.6    0.24
          diag_rdiag           153.5    3.60            19.2    0.49
          scf.modump           298.3    6.99           278.9    7.11
           ortho_all            25.9    0.61            10.2    0.26
            scf.post            18.2    0.43            19.9    0.51
        dscf.postscf             1.3    0.03             1.4    0.04
 


    ------------------------------------------------------------------------
         total  cpu-time :  1 hours 11 minutes and  6 seconds
         total wall-time :  1 hours  5 minutes and 23 seconds
    ------------------------------------------------------------------------

   ****  dscf : all done  ****


    2018-02-19 19:33:07.167 

