           Doing BLAS/Lapack in the master proc. with  8 CPUs.
           SMPCPUS    set: Shared-memory Parallelization with   8 CPUs.

           SMP Parallelization Reference:
           C. van Wullen, J. Comput. Chem. 32 (2011) 1195--1201
 operating system is UNIX !

 ridft (c-12-13.gp.local) : TURBOMOLE V7.2 ( 21454 ) 4 Oct 2017 at 12:48:15
 Copyright (C) 2017 TURBOMOLE GmbH, Karlsruhe


    2018-04-28 21:00:44.505 



                                  r i d f t

                        DFT program with RI approximation 
                                for coulomb part 




                                                 
                                 References:     
                                                 
          TURBOMOLE:                             
              R. Ahlrichs, M. Baer, M. Haeser, H. Horn, and
              C. Koelmel
              Electronic structure calculations on workstation
              computers: the program system TURBOMOLE
              Chem. Phys. Lett. 162: 165 (1989)
          Density Functional:                              
              O. Treutler and R. Ahlrichs                      
              Efficient Molecular Numerical Integration Schemes
              J. Chem. Phys. 102: 346 (1995)                   
          Parallel Version:                                
              Performance of parallel TURBOMOLE for Density    
              Functional Calculations                          
              M. v. Arnim and R. Ahlrichs                      
              J. Comp. Chem. 19: 1746 (1998)                   
          RI-J Method:                                     
              Auxiliary Basis Sets to approximate Coulomb      
              Potentials                                       
              Chem. Phys. Lett. 240: 283 (1995)                
              K. Eichkorn, O. Treutler, H. Oehm, M. Haeser     
              and R. Ahlrichs                                  
              Chem. Phys. Lett. 242: 652 (1995)                
                                                           
              Auxiliary Basis Sets for Main Row Atoms and their
              Use to approximate Coulomb Potentials            
              K. Eichkorn, F. Weigend, O. Treutler and         
              R. Ahlrichs                                      
              Theo. Chem. Acc. 97: 119 (1997)                   
                                                           
              Accurate Coulomb-fitting basis sets for H to Rn 
              F. Weigend                                        
              Phys. Chem. Chem. Phys. 8: 1057 (2006)            
                                                           
          Multipole accelerated RI-J (MARI-J):             
              Fast evaluation of the Coulomb potential for     
              electron densities using multipole accelerated   
              resolution of identity approximation             
              M. Sierka, A. Hogekamp and R. Ahlrichs           
              J. Chem. Phys. 118: 9136 (2003)                  
          RI-JK Method:                                     
              A fully direct RI-HF algorithm: Implementation,
              optimised auxiliary basis sets, demonstration of
              accuracy and efficiency                         
              F. Weigend                                      
              Phys. Chem. Chem. Phys. 4: 4285 (2002)           
          Two-component HF and DFT with spin-orbit coupling:  
              Self-consistent treatment of spin-orbit         
              interactions with efficient Hartree-Fock and    
              density functional methods                      
              M. K. Armbruster, F. Weigend, C. van Wüllen and 
              W. Klopper                                      
              Phys. Chem. Chem. Phys. 10: 1748 (2008)         
          Relativistic all-electron 2c calculations           
              An efficient implementation of two-component    
              relativistic exact-decoupling methods for large 
              molecules                                       
              D. Peng, N. Middendorf, F. Weigend, M. Reiher   
              J. Chem. Phys. 138, 184105 (2013)               
                                         




              +--------------------------------------------------+
              |      general information about current run       |
              +--------------------------------------------------+

 

 DENSITY CONVERGENCE CHECK SWITCHED ON !
 SCF CONVERGENCE IF RMS(delta[D]) <     0.1000000000E-06

 TPSS meta-GGA functional
 exchange:    LDA + TPSS
 correlation: LDA (PW) + TPSS
 A DFT calculation using the RI-J approximation will be carried out.
 Allocatable memory for RI due to $ricore (MB):                  5000


              +--------------------------------------------------+
              | Atomic coordinate, charge and isotop information |
              +--------------------------------------------------+

                    atomic coordinates            atom    charge  isotop
         -1.18608996    0.16528918    0.00278033    o      0.000     0
          0.64931374    0.23111980   -0.00113468    h      0.000     0
         -1.84802220   -2.41612070    0.00234025    c      0.000     0
         -3.89924596   -2.53609434    0.00946560    h      0.000     0
         -1.16196177   -3.41355562   -1.67313320    h      0.000     0
         -1.15016353   -3.41707238    1.67084432    h      0.000     0
          4.29409396    0.03105255   -0.00307428    n      7.000     0
          5.61003950   -0.01512353   -2.16628083    c      6.000     0
          4.50553502    0.02876259   -3.88777492    h      1.000     0
          8.23607297   -0.10912392   -2.25828262    c      6.000     0
          9.19482996   -0.14180113   -4.06067076    h      1.000     0
          9.57848383   -0.15771373    0.00109856    c      6.000     0
         11.62002300   -0.22907877    0.00270350    h      1.000     0
          8.23253120   -0.11043069    2.25845174    c      6.000     0
          9.18835229   -0.14411379    4.06216829    h      1.000     0
          5.60665537   -0.01641741    2.16216247    c      6.000     0
          4.49926492    0.02643105    3.88203754    h      1.000     0
 
       center of nuclear mass  :    4.50103108   -0.36459726   -0.00000150
       center of nuclear charge:    6.96784191   -0.06417352   -0.00095620

              +--------------------------------------------------+
              |               basis set information              |
              +--------------------------------------------------+

              we will work with the 1s 3p 5d 7f 9g ... basis set
              ...i.e. with spherical basis functions...

   type   atoms  prim   cont   basis
   ---------------------------------------------------------------------------
    o        1     50     30   cc-pVTZ   [4s3p2d1f|18s5p2d1f]
    h        9     16     14   cc-pVTZ   [3s2p1d|5s2p1d]
    c        6     50     30   cc-pVTZ   [4s3p2d1f|18s5p2d1f]
    n        1     50     30   cc-pVTZ   [4s3p2d1f|18s5p2d1f]
   ---------------------------------------------------------------------------
   total:   17    544    366
   ---------------------------------------------------------------------------

   total number of primitive shells          :   86
   total number of contracted shells         :  134
   total number of cartesian basis functions :  415
   total number of SCF-basis functions       :  366


 integral neglect threshold       :  0.80E-13
 integral storage threshold THIZE :  0.10E-04
 integral storage threshold THIME :         5

 RI-J AUXILIARY BASIS SET information:

              we will work with the 1s 3p 5d 7f 9g ... basis set
              ...i.e. with spherical basis functions...

   type   atoms  prim   cont   basis
   ---------------------------------------------------------------------------
    o        1     70     49   cc-pVTZ   [6s4p3d1f1g|12s5p4d2f1g]
    h        9     16     11   cc-pVTZ   [3s1p1d|5s2p1d]
    c        6     70     49   cc-pVTZ   [6s4p3d1f1g|12s5p4d2f1g]
    n        1     70     49   cc-pVTZ   [6s4p3d1f1g|12s5p4d2f1g]
   ---------------------------------------------------------------------------
   total:   17    704    491
   ---------------------------------------------------------------------------

   total number of primitive shells          :   80
   total number of contracted shells         :  165
   total number of cartesian basis functions :  596
   total number of SCF-basis functions       :  491


 symmetry group of the molecule :   c1 

 the group has the following generators :
   c1(z)

    1 symmetry operations found

 there are 1 real representations :   a   

 maximum number of shells which are related by symmetry :  1


    mo occupation :
   irrep   mo's   occupied
    a      366       21
 
 number of basis functions   :                    366
 number of occupied orbitals :                     21
 
  
           ------------------
           density functional
           ------------------
 Dummy atoms with grid-point found.
 DFT quadrature threshold dgrenze tightened by factor 1/10.

 TPSS meta-GGA functional
 exchange:    LDA + TPSS
 correlation: LDA (PW) + TPSS
 Dummy atoms with grid-point found.
 DFT quadrature threshold dgrenze tightened by factor 1/10.

 Dummy atoms with grid-point found.
 DFT quadrature threshold dgrenze tightened by factor 1/10.


 iterations will be done with small grid
  
 spherical integration : Lebedev's spherical grid
 spherical gridsize    :                     5
    i.e. gridpoints    :                   590
 value for diffuse not defined
 radial integration    : Chebyshev 2nd kind (scaling 3)
 radial gridsize       :                     8
 integration cells     :                    17
 partition function    : becke
 partition sharpness   :                     3
  
 found dummy atom(s) with basis: included in dft

 biggest AO integral is expected to be     4.866064444
  
           ------------------------
               RI-J - INFORMATION
           ------------------------
 Contributions to RI integral batches: 
  neglected integral batches:                  1603
  direct contribution:                            0
  memory contribution:                  7442
 Memory core needed for (P|Q) and Cholesky      2 MByte
 Memory core minimum needed except of (P|Q)     1 MByte
 Total minimum memory core needed (sum)         3 MByte
  
 ****************************************
 Memory allocated for RI-J   315 MByte
 ****************************************
                                            

          ------------------------
          nuclear repulsion energy  :   206.284267381    
          ------------------------


         -----------------
         -S,T+V- integrals
         -----------------

 1e-integrals will be neglected if expon. factor < 0.805292E-14
 Difference densities >>NOT<< switched on in parallel ridft!

 DIIS switched on: error vector is FDS-SDF
 Max. Iterations for DIIS is     :   4
 DIIS matrix (see manual) 
    Scaling factor of diagonals  :  1.200
    threshold for scaling factor :  0.000

 scf convergence criterion : increment of total energy < .1000000D-08
                  and increment of one-electron energy < .1000000D-05

  MOs are in ASCII format !


 automatic virtual orbital shift switched on 
      shift if e(lumo)-e(homo) < 0.10000000    


 reading orbital data $scfmo  from file mos
 orbital characterization : expanded
 mo provided and orthogonalized by Cholesky decomposition

 DSCF restart information will be dumped onto file mos


 Starting SCF iterations

          Overall gridpoints after grid construction =         89924

 ITERATION  ENERGY          1e-ENERGY        2e-ENERGY     RMS[dD(SAO)]   TOL
   1  -247.44801501857    -733.04923987     279.31695747    0.000D+00 0.803D-13
                            Exc = -35.1463022415     Coul =  314.463259710    
                              N = 41.999934164    
                            current damping = 0.700
 
          max. resid. norm for Fia-block=  2.807D-01 for orbital     15a         
          max. resid. fock norm         =  1.207D+01 for orbital    356a         

 ITERATION  ENERGY          1e-ENERGY        2e-ENERGY     RMS[dD(SAO)]   TOL
   2  -248.22243965768    -739.30273013     284.79602309    0.300D-02 0.803D-13
                            Exc = -35.6340865198     Coul =  320.430109607    
                              N = 41.999959297    
                            current damping = 0.650
 
          Norm of current diis error:  2.0572    
          max. resid. norm for Fia-block=  1.353D-01 for orbital      1a         
          max. resid. fock norm         =  2.267D-01 for orbital    360a         

 ITERATION  ENERGY          1e-ENERGY        2e-ENERGY     RMS[dD(SAO)]   TOL
   3  -248.36091873146    -740.96924132     286.32405521    0.148D-02 0.803D-13
                            Exc = -35.8410147192     Coul =  322.165069931    
                              N = 41.999973192    
                            current damping = 0.550
 
          Norm of current diis error:  1.0194    
          max. resid. norm for Fia-block=  5.454D-02 for orbital     21a         
          max. resid. fock norm         =  6.057D-02 for orbital      7a         

 ITERATION  ENERGY          1e-ENERGY        2e-ENERGY     RMS[dD(SAO)]   TOL
   4  -248.40557754269    -741.64977133     286.95992641    0.105D-02 0.803D-13
                            Exc = -35.9095557478     Coul =  322.869482156    
                              N = 41.999986279    
                            current damping = 0.450
 
          Norm of current diis error: 0.40378    
          max. resid. norm for Fia-block=  2.717D-02 for orbital      7a         
          max. resid. fock norm         =  4.322D-02 for orbital    361a         

 ITERATION  ENERGY          1e-ENERGY        2e-ENERGY     RMS[dD(SAO)]   TOL
   5  -248.41160476891    -742.35553513     287.65966298    0.518D-03 0.803D-13
                            Exc = -35.9861365977     Coul =  323.645799578    
                              N = 41.999991138    
                            current damping = 0.350
 
          Norm of current diis error: 0.23108    
          max. resid. norm for Fia-block=  1.349D-02 for orbital     21a         
          max. resid. fock norm         =  1.438D-02 for orbital     21a         
          mo-orthogonalization: Cholesky decomposition

 ITERATION  ENERGY          1e-ENERGY        2e-ENERGY     RMS[dD(SAO)]   TOL
   6  -248.41392619652    -742.22177425     287.52358067    0.372D-03 0.803D-13
                            Exc = -35.9765966244     Coul =  323.500177295    
                              N = 41.999994569    
                            current damping = 0.400
 
          Norm of current diis error: 0.10201    
          max. resid. norm for Fia-block=  3.247D-03 for orbital     19a         
          max. resid. fock norm         =  7.575D-03 for orbital    361a         

 ITERATION  ENERGY          1e-ENERGY        2e-ENERGY     RMS[dD(SAO)]   TOL
   7  -248.41432737573    -742.27646616     287.57787140    0.880D-04 0.803D-13
                            Exc = -35.9827301623     Coul =  323.560601564    
                              N = 41.999994935    
                            current damping = 0.450
 
          Norm of current diis error: 0.31641E-01
          max. resid. norm for Fia-block=  1.461D-03 for orbital     13a         
          max. resid. fock norm         =  2.157D-03 for orbital    145a         

 ITERATION  ENERGY          1e-ENERGY        2e-ENERGY     RMS[dD(SAO)]   TOL
   8  -248.41436116531    -742.31566816     287.61703961    0.281D-04 0.803D-13
                            Exc = -35.9865229519     Coul =  323.603562562    
                              N = 41.999995015    
                            current damping = 0.300
 
          Norm of current diis error: 0.11790E-01
          max. resid. norm for Fia-block=  3.582D-04 for orbital     17a         
          max. resid. fock norm         =  5.801D-04 for orbital    145a         

 ITERATION  ENERGY          1e-ENERGY        2e-ENERGY     RMS[dD(SAO)]   TOL
   9  -248.41436688887    -742.31739975     287.61876548    0.107D-04 0.803D-13
                            Exc = -35.9865831042     Coul =  323.605348585    
                              N = 41.999995131    
                            current damping = 0.150
 
          Norm of current diis error: 0.18790E-02
          max. resid. norm for Fia-block=  1.025D-04 for orbital     20a         
          max. resid. fock norm         =  1.895D-04 for orbital    286a         

 ITERATION  ENERGY          1e-ENERGY        2e-ENERGY     RMS[dD(SAO)]   TOL
  10  -248.41436692247    -742.30990286     287.61126855    0.287D-05 0.803D-13
                            Exc = -35.9861444402     Coul =  323.597412992    
                              N = 41.999995133    
                            current damping = 0.200
 
          Norm of current diis error: 0.16976E-02
          max. resid. norm for Fia-block=  5.653D-05 for orbital     20a         
          max. resid. fock norm         =  7.386D-05 for orbital    358a         
          mo-orthogonalization: Cholesky decomposition

 ITERATION  ENERGY          1e-ENERGY        2e-ENERGY     RMS[dD(SAO)]   TOL
  11  -248.41436702249    -742.31283766     287.61420325    0.137D-05 0.803D-13
                            Exc = -35.9863265015     Coul =  323.600529755    
                              N = 41.999995139    
                            current damping = 0.250
 
          Norm of current diis error: 0.60284E-03
          max. resid. norm for Fia-block=  2.578D-05 for orbital     19a         
          max. resid. fock norm         =  4.261D-05 for orbital    361a         

 ITERATION  ENERGY          1e-ENERGY        2e-ENERGY     RMS[dD(SAO)]   TOL
  12  -248.41436703204    -742.31328417     287.61464976    0.740D-06 0.803D-13
                            Exc = -35.9863421687     Coul =  323.600991928    
                              N = 41.999995143    
                            current damping = 0.100
 
          Norm of current diis error: 0.37345E-03
          max. resid. norm for Fia-block=  1.299D-05 for orbital     19a         
          max. resid. fock norm         =  2.066D-05 for orbital    361a         

 ITERATION  ENERGY          1e-ENERGY        2e-ENERGY     RMS[dD(SAO)]   TOL
  13  -248.41436703702    -742.31356456     287.61493014    0.347D-06 0.803D-13
                            Exc = -35.9863738706     Coul =  323.601304010    
                              N = 41.999995142    
                            current damping = 0.050
 
          Norm of current diis error: 0.13980E-03
          max. resid. norm for Fia-block=  5.639D-06 for orbital     21a         
          max. resid. fock norm         =  7.522D-06 for orbital    361a         

 ITERATION  ENERGY          1e-ENERGY        2e-ENERGY     RMS[dD(SAO)]   TOL
  14  -248.41436703764    -742.31321871     287.61458429    0.159D-06 0.803D-13
                            Exc = -35.9863446589     Coul =  323.600928949    
                              N = 41.999995142    
                            current damping = 0.100
 
          Norm of current diis error: 0.69865E-04
          max. resid. norm for Fia-block=  2.011D-06 for orbital     13a         
          max. resid. fock norm         =  2.667D-06 for orbital    362a         

 DENSITY CONVERGED !


 ITERATION  ENERGY          1e-ENERGY        2e-ENERGY     RMS[dD(SAO)]   TOL
  15  -248.41436703783    -742.31329751     287.61466309    0.551D-07 0.803D-13
                            Exc = -35.9863518116     Coul =  323.601014900    
                              N = 41.999995142    
                            current damping = 0.150
 
          Norm of current diis error: 0.16843E-04
          max. resid. norm for Fia-block=  8.311D-07 for orbital     20a         
          max. resid. fock norm         =  1.088D-06 for orbital    358a         
          mo-orthogonalization: Cholesky decomposition

 DENSITY CONVERGED !


 ITERATION  ENERGY          1e-ENERGY        2e-ENERGY     RMS[dD(SAO)]   TOL
  16  -248.41436703784    -742.31333581     287.61470139    0.182D-07 0.803D-13
                            Exc = -35.9863540222     Coul =  323.601055412    
                              N = 41.999995142    
                            current damping = 0.050
 
          Norm of current diis error: 0.10961E-04
          max. resid. norm for Fia-block=  3.019D-07 for orbital     20a         
          max. resid. fock norm         =  4.499D-07 for orbital    145a         

 ENERGY & DENSITY CONVERGED !

          Overall gridpoints after grid construction =        265538

 ITERATION  ENERGY          1e-ENERGY        2e-ENERGY     RMS[dD(SAO)]   TOL
  17  -248.41422654101    -742.31331767     287.61482375    0.836D-08 0.803D-13
                            Exc = -35.9862125784     Coul =  323.601036326    
                              N = 41.999998635    
                            current damping = 0.100
 
          Norm of current diis error: 0.23881E-05
          max. resid. norm for Fia-block=  9.731D-08 for orbital     19a         
          max. resid. fock norm         =  1.363D-07 for orbital    359a         

 End of SCF iterations

   convergence criteria satisfied after    17 iterations


                  ------------------------------------------ 
                 |  total energy      =   -248.41422654101  |
                  ------------------------------------------ 
                 :  kinetic energy    =    247.03161938899  :
                 :  potential energy  =   -495.44584593000  :
                 :  virial theorem    =      1.99443426743  :
                 :  wavefunction norm =      1.00000000000  :
                  .......................................... 


 <geterg> : there is no data group $energy 


 <skperg> : $end is missing 


 orbitals $scfmo  will be written to file mos

    irrep                 17a         18a         19a         20a         21a   
 eigenvalues H         -0.36470    -0.32846    -0.26558    -0.24386    -0.21901
            eV          -9.9241     -8.9379     -7.2269     -6.6358     -5.9595
 occupation              2.0000      2.0000      2.0000      2.0000      2.0000 

    irrep                 22a         23a         24a         25a         26a   
 eigenvalues H         -0.05928    -0.04521     0.02889     0.05833     0.05893
            eV          -1.6131     -1.2301      0.7862      1.5873      1.6036
 
 
 
 
 ==============================================================================
                           electrostatic moments
 ==============================================================================

 reference point for electrostatic moments:    0.00000   0.00000   0.00000

 
              nuc           elec       ->  total
 ------------------------------------------------------------------------------
                          charge      
 ------------------------------------------------------------------------------
          42.000000     -42.000000      -0.000000
 
 ------------------------------------------------------------------------------
                       dipole moment  
 ------------------------------------------------------------------------------
   x     292.649360    -291.768087       0.881274
   y      -2.695288       2.669473      -0.025815
   z      -0.040160       0.040819       0.000659
 
   | dipole moment | =     0.8817 a.u. =     2.2409 debye 
 
 ------------------------------------------------------------------------------
                     quadrupole moment
 ------------------------------------------------------------------------------
  xx    2215.185270   -2230.059005     -14.873735
  yy       0.398478     -28.133853     -27.735374
  zz     180.584331    -202.506765     -21.922434
  xy     -25.080550      24.796267      -0.284283
  xz      -0.282757       0.282861       0.000105
  yz      -0.055380       0.053646      -0.001734
 
     1/3  trace=     -21.510514
     anisotropy=      11.166493
 
 ==============================================================================
 


    ------------------------------------------------------------------------
         total  cpu-time :  6 minutes and 39 seconds
         total wall-time :  49.35 seconds
    ------------------------------------------------------------------------

   ****  ridft : all done  ****


    2018-04-28 21:01:33.837 

