Using Slurm to start processes with PMI2
Parallel program ridft_mpi will be taken out of the TURBODIR directory.
STARTING ridft ON 8 PROCESSORS!
RUNNING PROGRAM /modfac/apps/TURBOMOLE/7.0_intel_GA/bin/em64t-unknown-linux-gnu_ga/ridft_mpi.
PLEASE WAIT UNTIL ridft HAS FINISHED.
Look for the output in slave1.output.
 <<<<<<<<<<<<<<< OUTPUT FROM PROCESS                      0 >>>>>>>>>>>>>>>
 distribution of control by ridft_mpi/rdgrad_mpi
 operating system is UNIX !
 hostname is         c-9-372.local

 ridft (c-9-372.local) : TURBOMOLE V7.0.2( ) 15 Jan 2016 at 16:16:51
 Copyright (C) 2016 TURBOMOLE GmbH, Karlsruhe


    2016-02-05 10:55:04.406 



                                  r i d f t

                        DFT program with RI approximation 
                                for coulomb part 




                                                 
                                 References:     
                                                 
          TURBOMOLE:                             
              R. Ahlrichs, M. Baer, M. Haeser, H. Horn, and
              C. Koelmel
              Electronic structure calculations on workstation
              computers: the program system TURBOMOLE
              Chem. Phys. Lett. 162: 165 (1989)
          Density Functional:                              
              O. Treutler and R. Ahlrichs                      
              Efficient Molecular Numerical Integration Schemes
              J. Chem. Phys. 102: 346 (1995)                   
          Parallel Version:                                
              Performance of parallel TURBOMOLE for Density    
              Functional Calculations                          
              M. v. Arnim and R. Ahlrichs                      
              J. Comp. Chem. 19: 1746 (1998)                   
          RI-J Method:                                     
              Auxiliary Basis Sets to approximate Coulomb      
              Potentials                                       
              Chem. Phys. Lett. 240: 283 (1995)                
              K. Eichkorn, O. Treutler, H. Oehm, M. Haeser     
              and R. Ahlrichs                                  
              Chem. Phys. Lett. 242: 652 (1995)                
                                                           
              Auxiliary Basis Sets for Main Row Atoms and their
              Use to approximate Coulomb Potentials            
              K. Eichkorn, F. Weigend, O. Treutler and         
              R. Ahlrichs                                      
              Theo. Chem. Acc. 97: 119 (1997)                   
                                                           
              Accurate Coulomb-fitting basis sets for H to Rn 
              F. Weigend                                        
              Phys. Chem. Chem. Phys. 8: 1057 (2006)            
                                                           
          Multipole accelerated RI-J (MARI-J):             
              Fast evaluation of the Coulomb potential for     
              electron densities using multipole accelerated   
              resolution of identity approximation             
              M. Sierka, A. Hogekamp and R. Ahlrichs           
              J. Chem. Phys. 118: 9136 (2003)                  
          RI-JK Method:                                     
              A fully direct RI-HF algorithm: Implementation,
              optimised auxiliary basis sets, demonstration of
              accuracy and efficiency                         
              F. Weigend                                      
              Phys. Chem. Chem. Phys. 4: 4285 (2002)           
          Two-component HF and DFT with spin-orbit coupling:  
              Self-consistent treatment of spin-orbit         
              interactions with efficient Hartree-Fock and    
              density functional methods                      
              M. K. Armbruster, F. Weigend, C. van Wüllen and 
              W. Klopper                                      
              Phys. Chem. Chem. Phys. 10: 1748 (2008)         
          Relativistic all-electron 2c calculations           
              An efficient implementation of two-component    
              relativistic exact-decoupling methods for large 
              molecules                                       
              D. Peng, N. Middendorf, F. Weigend, M. Reiher   
              J. Chem. Phys. 138, 184105 (2013)               
                                         


 Default GA heap smaller than $ricore!
GA heap raised to: 1638400000
 par_setmem:             1638400000                131072 F
 MA:  Allocated stack:    1.000000      MB/processor
 SHM: Allocated heap :    12500.00      MB/processor
 ********** GlobalArray OPTION SETTINGS : **********
 distributed memory heap/proc      =   1638400000
 distributed memory stack/proc     =       131072
 *****************************************************
  Distributing input file(s)
 


              +--------------------------------------------------+
              |      general information about current run       |
              +--------------------------------------------------+

 

 SCF run will be profiled !

 DENSITY CONVERGENCE CHECK UNAVAILABLE IN GA VERSION!
 PBE functional
 exchange:    LDA + PBE
 correlation: LDA (PW) + PBE
 A DFT calculation using the RI-J approximation will be carried out.
 Allocatable memory for RI due to $ricore (MB):       10000


              +--------------------------------------------------+
              | Atomic coordinate, charge and isotop information |
              +--------------------------------------------------+

                    atomic coordinates            atom    charge  isotop
          0.00000000    2.72160412    0.00000000    c      6.000     0
         -2.39309898    1.27041829    0.00000000    c      6.000     0
         -2.39309898   -1.27041829    0.00000000    c      6.000     0
          0.00000000   -2.72160412    0.00000000    c      6.000     0
          2.39309898   -1.27041829    0.00000000    c      6.000     0
          2.39309898    1.27041829    0.00000000    c      6.000     0
          0.00000000    5.04754954    0.00000000    o      8.000     0
          0.00000000   -5.04754954    0.00000000    o      8.000     0
         -4.11977267    2.38185100    0.00000000    h      1.000     0
         -4.11977267   -2.38185100    0.00000000    h      1.000     0
          4.11977267   -2.38185100    0.00000000    h      1.000     0
          4.11977267    2.38185100    0.00000000    h      1.000     0
 
       center of nuclear mass  :    0.00000000    0.00000000    0.00000000
       center of nuclear charge:    0.00000000    0.00000000    0.00000000

              +--------------------------------------------------+
              |               basis set information              |
              +--------------------------------------------------+

              we will work with the 1s 3p 5d 7f 9g ... basis set
              ...i.e. with spherical basis functions...

   type   atoms  prim   cont   basis
   ---------------------------------------------------------------------------
    c        6     77     55   cc-pVQZ   [5s4p3d2f1g|21s6p3d2f1g]
    o        2     77     55   cc-pVQZ   [5s4p3d2f1g|21s6p3d2f1g]
    h        4     32     30   cc-pVQZ   [4s3p2d1f|6s3p2d1f]
   ---------------------------------------------------------------------------
   total:   12    744    560
   ---------------------------------------------------------------------------

   total number of primitive shells          :   78
   total number of contracted shells         :  160
   total number of cartesian basis functions :  700
   total number of SCF-basis functions       :  560


 integral neglect threshold       :  0.48E-13
 integral storage threshold THIZE :  0.10E-04
 integral storage threshold THIME :         5

 RI-J AUXILIARY BASIS SET information:

              we will work with the 1s 3p 5d 7f 9g ... basis set
              ...i.e. with spherical basis functions...

   type   atoms  prim   cont   basis
   ---------------------------------------------------------------------------
    c        6     70     49   cc-pVQZ   [6s4p3d1f1g|12s5p4d2f1g]
    o        2     70     49   cc-pVQZ   [6s4p3d1f1g|12s5p4d2f1g]
    h        4     16     11   cc-pVQZ   [3s1p1d|5s2p1d]
   ---------------------------------------------------------------------------
   total:   12    624    436
   ---------------------------------------------------------------------------

   total number of primitive shells          :   56
   total number of contracted shells         :  140
   total number of cartesian basis functions :  536
   total number of SCF-basis functions       :  436


 symmetry group of the molecule :   c1 

 the group has the following generators :
   c1(z)

    1 symmetry operations found

 there are 1 real representations :   a   

 maximum number of shells which are related by symmetry :  1


    mo occupation :
   irrep   mo's   occupied
    a      560       28
 
 number of basis functions   :          560
 number of occupied orbitals :           28
 
  
           ------------------
           density functional
           ------------------
 PBE functional
 exchange:    LDA + PBE
 correlation: LDA (PW) + PBE
 grinp -> nfun, dfgga, dfhybrid 
           6 T F
 iterations will be done with small grid
  
 spherical integration : Lebedev's spherical grid
 spherical gridsize    :           5
    i.e. gridpoints    :         590
 value for diffuse not defined
 radial integration    : Chebyshev 2nd kind (scaling 3)
 radial gridsize       :           8
 integration cells     :          12
 partition function    : becke
 partition sharpness   :           3
  

 biggest AO integral is expected to be     4.785886462
  
           ------------------------
               RI-J - INFORMATION
           ------------------------
 Memory core needed for (P|Q) and Cholesky      1 MByte on GA
 Memory core minimum needed except           1 MByte 
  
 ****************************************
 Memory allocated for RI-J 1 MByte
 plus additional 969 MByte (integrals) (GA)
 plus additional 1 MByte (pqmatrix)  (GA)
 ****************************************
                                            

          ------------------------
          nuclear repulsion energy  :   322.101072967    
          ------------------------

 
          -----------------
          -S,T+V- integrals
          -----------------

 1e-integrals will be neglected if expon. factor < 0.477423E-14
 
   Difference densities algorithm switched on.
   The maximal number of linear combinations of
   difference densities is          20 .

 DIIS switched on: error vector is FDS-SDF
 Max. Iterations for DIIS is     :   4
 DIIS matrix (see manual) 
    Scaling factor of diagonals  :  1.200
    threshold for scaling factor :  0.000

 scf convergence criterion : increment of total energy < .1000000D-08
                  and increment of one-electron energy < .1000000D-05


 <geterg> : there is no data group $energy 

  MOs are in ASCII format !


 reading orbital data $scfmo  from file mos . 

 orbital characterization : expanded
 
 stacho: isym= 1 dev_max=0.120241E-09 threshold=0.100000E-09
redoing cholesky decomposition with diagonal scaling by 0.100000E+01
 mo provided and orthogonalized by Cholesky decomposition

 DSCF restart information will be dumped onto file mos


 Starting SCF iterations

 non-zero weights=       63402
          Overall gridpoints after grid construction =         63402

 ITERATION  ENERGY          1e-ENERGY        2e-ENERGY     NORM[dD(SAO)]  TOL
   1  -378.97016652309    -1143.9580165     442.88677697    0.000D+00 0.476D-13
                            Exc = -50.1797405160     Coul =  493.066517485    
                              N = 55.999985004    
                            current damping = 0.700
 
          max. resid. norm for Fia-block=  4.355D-01 for orbital     20a         
          max. resid. fock norm         =  1.100D+01 for orbital    524a         

 ITERATION  ENERGY          1e-ENERGY        2e-ENERGY     NORM[dD(SAO)]  TOL
   2  -380.67415503378    -1151.4323776     448.65714960    0.263D+01 0.367D-13
                            Exc = -50.2819374955     Coul =  498.939087091    
                              N = 55.999981515    
                            current damping = 0.650
 
          Norm of current diis error:  3.1416    
          max. resid. norm for Fia-block=  1.616D-01 for orbital      1a         
          max. resid. fock norm         =  3.608D-01 for orbital    280a         

 ITERATION  ENERGY          1e-ENERGY        2e-ENERGY     NORM[dD(SAO)]  TOL
   3  -380.92114585962    -1154.6907691     451.66855031    0.114D+01 0.248D-13
                            Exc = -50.6111668634     Coul =  502.279717173    
                              N = 55.999979569    
                            current damping = 0.550
 
          Norm of current diis error:  1.4636    
          max. resid. norm for Fia-block=  7.131D-02 for orbital     25a         
          max. resid. fock norm         =  1.013D-01 for orbital    274a         

 ITERATION  ENERGY          1e-ENERGY        2e-ENERGY     NORM[dD(SAO)]  TOL
   4  -380.99553054996    -1154.7389166     451.64231308    0.829D+00 0.210D-13
                            Exc = -50.5222637659     Coul =  502.164576846    
                              N = 55.999976499    
                            current damping = 0.600
 
          Norm of current diis error: 0.78451    
          max. resid. norm for Fia-block=  3.840D-02 for orbital      9a         
          max. resid. fock norm         =  9.167D-02 for orbital    542a         

 ITERATION  ENERGY          1e-ENERGY        2e-ENERGY     NORM[dD(SAO)]  TOL
   5  -381.16401997376    -1155.7591908     452.49409784    0.170D+01 0.198D-13
                            Exc = -50.7836465987     Coul =  503.277744438    
                              N = 55.999983824    
                            current damping = 0.650
 
          Norm of current diis error: 0.67770    
          max. resid. norm for Fia-block=  1.356D-02 for orbital     27a         
          max. resid. fock norm         =  2.548D-02 for orbital     28a         
          mo-orthogonalization: Cholesky decomposition

 ITERATION  ENERGY          1e-ENERGY        2e-ENERGY     NORM[dD(SAO)]  TOL
   6  -381.17193560672    -1155.9446505     452.67164189    0.223D+00 0.185D-13
                            Exc = -50.7701823880     Coul =  503.441824279    
                              N = 55.999984282    
                            current damping = 0.500
 
          Norm of current diis error: 0.39750    
          max. resid. norm for Fia-block=  1.120D-02 for orbital     27a         
          max. resid. fock norm         =  1.794D-02 for orbital     28a         

 ITERATION  ENERGY          1e-ENERGY        2e-ENERGY     NORM[dD(SAO)]  TOL
   7  -381.17557545589    -1155.8136562     452.53700781    0.416D-01 0.170D-13
                            Exc = -50.7336300701     Coul =  503.270637877    
                              N = 55.999984992    
                            current damping = 0.550
 
          Norm of current diis error: 0.14816    
          max. resid. norm for Fia-block=  6.430D-03 for orbital     10a         
          max. resid. fock norm         =  7.220D-03 for orbital     28a         

 ITERATION  ENERGY          1e-ENERGY        2e-ENERGY     NORM[dD(SAO)]  TOL
   8  -381.17593336226    -1155.7951306     452.51812429    0.249D-01 0.162D-13
                            Exc = -50.7280588050     Coul =  503.246183098    
                              N = 55.999985566    
                            current damping = 0.400
 
          Norm of current diis error: 0.83121E-01
          max. resid. norm for Fia-block=  2.977D-03 for orbital     27a         
          max. resid. fock norm         =  4.288D-03 for orbital     28a         

 ITERATION  ENERGY          1e-ENERGY        2e-ENERGY     NORM[dD(SAO)]  TOL
   9  -381.17609453217    -1155.7795738     452.50240629    0.690D-02 0.157D-13
                            Exc = -50.7162845540     Coul =  503.218690844    
                              N = 55.999985744    
                            current damping = 0.250
 
          Norm of current diis error: 0.27851E-01
          max. resid. norm for Fia-block=  1.156D-03 for orbital     22a         
          max. resid. fock norm         =  1.220D-03 for orbital    501a         

 ITERATION  ENERGY          1e-ENERGY        2e-ENERGY     NORM[dD(SAO)]  TOL
  10  -381.17610774976    -1155.7746608     452.49748011    0.215D-02 0.155D-13
                            Exc = -50.7197399232     Coul =  503.217220031    
                              N = 55.999985856    
                            current damping = 0.100
 
          Norm of current diis error: 0.16208E-01
          max. resid. norm for Fia-block=  3.250D-04 for orbital     22a         
          max. resid. fock norm         =  4.058D-04 for orbital    554a         
          mo-orthogonalization: Cholesky decomposition

 ITERATION  ENERGY          1e-ENERGY        2e-ENERGY     NORM[dD(SAO)]  TOL
  11  -381.17611384436    -1155.7809419     452.50375511    0.864D-03 0.154D-13
                            Exc = -50.7184162075     Coul =  503.222171320    
                              N = 55.999985860    
                            current damping = 0.150
 
          Norm of current diis error: 0.37424E-02
          max. resid. norm for Fia-block=  1.263D-04 for orbital     16a         
          max. resid. fock norm         =  2.858D-04 for orbital    554a         

 ITERATION  ENERGY          1e-ENERGY        2e-ENERGY     NORM[dD(SAO)]  TOL
  12  -381.17611401464    -1155.7757598     452.49857281    0.295D-03 0.154D-13
                            Exc = -50.7180427330     Coul =  503.216615541    
                              N = 55.999985858    
                            current damping = 0.200
 
          Norm of current diis error: 0.24660E-02
          max. resid. norm for Fia-block=  4.756D-05 for orbital     25a         
          max. resid. fock norm         =  1.032D-04 for orbital    554a         

 ITERATION  ENERGY          1e-ENERGY        2e-ENERGY     NORM[dD(SAO)]  TOL
  13  -381.17611417358    -1155.7770504     452.49986331    0.331D-04 0.153D-13
                            Exc = -50.7182443140     Coul =  503.218107620    
                              N = 55.999985861    
                            current damping = 0.250
 
          Norm of current diis error: 0.25095E-03
          max. resid. norm for Fia-block=  7.310D-06 for orbital     19a         
          max. resid. fock norm         =  1.047D-05 for orbital     19a         

 ITERATION  ENERGY          1e-ENERGY        2e-ENERGY     NORM[dD(SAO)]  TOL
  14  -381.17611417468    -1155.7777152     452.50052803    0.220D-04 0.153D-13
                            Exc = -50.7182814072     Coul =  503.218809442    
                              N = 55.999985860    
                            current damping = 0.100
 
          Norm of current diis error: 0.94600E-04
          max. resid. norm for Fia-block=  3.351D-06 for orbital     22a         
          max. resid. fock norm         =  4.645D-06 for orbital    501a         

 ITERATION  ENERGY          1e-ENERGY        2e-ENERGY     NORM[dD(SAO)]  TOL
  15  -381.17611417464    -1155.7773962     452.50020904    0.521D-05 0.153D-13
                            Exc = -50.7182429527     Coul =  503.218451993    
                              N = 55.999985861    
                            current damping = 0.150
 
          Norm of current diis error: 0.97863E-04
          max. resid. norm for Fia-block=  1.891D-06 for orbital     22a         
          max. resid. fock norm         =  2.186D-06 for orbital    501a         
          mo-orthogonalization: Cholesky decomposition

 ITERATION  ENERGY          1e-ENERGY        2e-ENERGY     NORM[dD(SAO)]  TOL
  16  -381.17611417490    -1155.7774461     452.50025895    0.310D-06 0.152D-13
                            Exc = -50.7182562824     Coul =  503.218515237    
                              N = 55.999985861    
                            current damping = 0.200
 
          Norm of current diis error: 0.16007E-04
          max. resid. norm for Fia-block=  3.796D-07 for orbital     19a         
          max. resid. fock norm         =  6.160D-07 for orbital    557a         

 ITERATION  ENERGY          1e-ENERGY        2e-ENERGY     NORM[dD(SAO)]  TOL
  17  -381.17611417490    -1155.7774814     452.50029421    0.160D-06 0.151D-13
                            Exc = -50.7182597827     Coul =  503.218553996    
                              N = 55.999985861    
                            current damping = 0.050
 
          Norm of current diis error: 0.31112E-05
          max. resid. norm for Fia-block=  1.076D-07 for orbital     25a         
          max. resid. fock norm         =  1.686D-07 for orbital    554a         

 ENERGY CONVERGED !

 non-zero weights=      199698
          Overall gridpoints after grid construction =        199698

 ITERATION  ENERGY          1e-ENERGY        2e-ENERGY     NORM[dD(SAO)]  TOL
  18  -381.17613313645    -1155.7774840     452.50027786    0.530D-07 0.151D-13
                            Exc = -50.7182792942     Coul =  503.218557157    
                              N = 56.000001158    
                            current damping = 0.100
 
          Norm of current diis error: 0.28574E-05
          max. resid. norm for Fia-block=  5.643D-08 for orbital     25a         
          max. resid. fock norm         =  9.045D-08 for orbital    554a         

 End of SCF iterations

   convergence criteria satisfied after   18 iterations


                  ------------------------------------------ 
                 |  total energy      =   -381.17613313645  |
                  ------------------------------------------ 
                 :  kinetic energy    =    379.58855029292  :
                 :  potential energy  =   -760.76468342937  :
                 :  virial theorem    =      1.99583504132  :
                 :  wavefunction norm =      1.00000000000  :
                  .......................................... 


 <geterg> : there is no data group $energy 


 <skperg> : $end is missing 


 orbitals $scfmo  will be written to file mos

    irrep                 24a         25a         26a         27a         28a   
 eigenvalues H         -0.35885    -0.28827    -0.28399    -0.23900    -0.23300
            eV          -9.7647     -7.8443     -7.7279     -6.5035     -6.3403
 occupation              2.0000      2.0000      2.0000      2.0000      2.0000 

    irrep                 29a         30a         31a         32a         33a   
 eigenvalues H         -0.16942    -0.07563    -0.04279     0.01094     0.02339
            eV          -4.6101     -2.0580     -1.1644      0.2976      0.6365
 
 
 
 
 ==============================================================================
                           electrostatic moments
 ==============================================================================

 reference point for electrostatic moments:    0.00000   0.00000   0.00000

 
              nuc           elec       ->  total
 ------------------------------------------------------------------------------
                          charge      
 ------------------------------------------------------------------------------
          56.000000     -56.000000      -0.000000
 
 ------------------------------------------------------------------------------
                       dipole moment  
 ------------------------------------------------------------------------------
   x       0.000000       0.000000       0.000000
   y       0.000000      -0.000000      -0.000000
   z       0.000000       0.000000       0.000000
 
   | dipole moment | =     0.0000 a.u. =     0.0000 debye 
 
 ------------------------------------------------------------------------------
                     quadrupole moment
 ------------------------------------------------------------------------------
  xx     205.336253    -233.317032     -27.980778
  yy     557.957609    -603.890962     -45.933353
  zz       0.000000     -33.802320     -33.802320
  xy       0.000000      -0.000000      -0.000000
  xz       0.000000       0.000000       0.000000
  yz       0.000000       0.000000       0.000000
 
     1/3  trace=     -35.905484
     anisotropy=      15.864224
 
 ==============================================================================
 

    ridft profiling
  --------------------------------------------------------------------
             module   cpu total (s)       %  wall total (s)       %

               RIDFT            26.2  100.00            22.9  100.00
         Ridft_b_scf             1.9    7.05             1.5    6.62
        b_scf_prelim             0.0    0.00             0.0    0.00
        b_scf_molinp             0.0    0.03             0.0    0.03
         b_scf_init0             0.0    0.00             0.0    0.00
        b_scf_auxbas             0.0    0.02             0.0    0.02
      b_scf_symmetry             0.0    0.02             0.0    0.12
         b_scf_cosmo             0.0    0.00             0.0    0.00
        b_scf_params             0.1    0.52             0.1    0.60
          b_scf_ri-j             1.3    5.01             1.1    4.85
    b_scf_ri-j_auxpq             0.7    2.56             0.5    2.04
     ri-j_auxpq_chol             0.4    1.57             0.2    0.91
         b_scf_1elec             0.0    0.16             0.0    0.18
       b_scf_moinput             0.3    1.30             0.2    0.81
     moinput_orthmos             0.3    1.25             0.2    0.75
    b_scf_dft-dstmax             0.0    0.00             0.0    0.00
           Ridft_scf            24.4   92.85            21.3   93.26
          Scf_b_loop             0.0    0.03             0.0    0.03
                noga             0.0    0.00             0.0    0.00
            Scf_loop            24.2   92.36            21.2   92.61
     scf_loop_mkdmat             0.1    0.34             0.1    0.40
       scf_loop_ri-j             0.7    2.64             0.7    3.03
    ri-j_near_lpdrc1             0.0    0.05             0.0    0.04
    ri-j_near_lpdrc2             0.0    0.03             0.0    0.05
        scf_loop_dft            16.8   63.87            16.7   73.26
        dft_grid_con             0.1    0.48             0.1    0.56
           dft_xcrhf            16.2   61.70            16.2   70.81
          dft_getval             1.8    6.84             1.8    7.90
          funct2 dst             0.0    0.16             0.0    0.15
      funct2 f2loop1             0.4    1.61             0.4    1.96
      funct2 f2loop2             0.7    2.64             0.7    2.95
          funct2 s+c             0.6    2.20             0.6    2.59
        funct2 cmf_2             0.5    1.91             0.5    2.25
          dft_mkdens             6.1   23.10             6.0   26.41
         dft_gga-fun             0.1    0.24             0.1    0.25
          dft_mkfock             8.2   31.27             8.2   35.97
     scf_loop_energy             0.0    0.04             0.0    0.01
     scf_loop_mkfock             0.0    0.00             0.0    0.01
       scf_loop_diis             1.2    4.71             0.7    2.92
       scf_loop_diag             4.9   18.77             2.6   11.45
     scf_loop_modump             0.0    0.00             0.0    0.00
      scf_loop_ortho             0.4    1.39             0.2    0.82
          Scf_a_loop             0.1    0.46             0.1    0.61
         Ridft_a_scf             0.0    0.10             0.0    0.11
         a_scf_fanal             0.0    0.10             0.0    0.11
 


    ------------------------------------------------------------------------
         total  cpu-time :  26.39 seconds
         total wall-time :  23.01 seconds
    ------------------------------------------------------------------------


   ****  ridft : all done  ****


    2016-02-05 10:55:27.412 

