
   OpenMP run-time library returned nthreads =  8

 rirpa (c-6-212) : TURBOMOLE V7.3 ( 22142 ) 4 Jul 2018 at 18:12:42
 Copyright (C) 2018 TURBOMOLE GmbH, Karlsruhe


    2019-02-18 09:55:47.746 

 
 
    *************************************************************************
    *************************** PROGRAM RIRPA *******************************
    ******                                                             ******
    ******              H. Eshuis, J. E. Bates and F. Furche           ******
    ******                                                             ******
    ****** Nov 2011                                                    ******
    ****** Copyright TURBOMOLE GmbH                                    ******
    *************************************************************************
    
    
                                References:                                  
    
                   RIRPA:                                                    
                     H. Eshuis, J. Yarkony and F. Furche                     
                     Fast computation of molecular random phase              
                     approximation correlation energies using resolution     
                     of the identity imaginary frequency integration         
                     J. Chem. Phys. 132: 234114 (2010)                       
    
                     H. Eshuis, J. E. Bates and F. Furche                    
                     Electron correlation methods based on                   
                     the random phase approximation                          
                     Theor. Chem. Acc.  131: 1084 (2012)                     
    
                   TWO-COMPONENT RIRPA:                                      
                     M. Kuehn                                                
                     Correlation energies from the                           
                     two-component random-phase approximation                
                     J. Chem. Theory Comput. 10: 623 (2014)                  
    
                   RIRPA GRADIENTS:                                          
                     Asbjoern M. Burow, Jefferson E. Bates, Filipp Furche*,  
                     and Henk Eshuis                                         
                     Analytical First-Order Molecular Properties and Forces  
                     within the Adiabatic Connection Random Phase            
                     Approximation                                           
                     J. Chem. Theory Comput. 10: 180 (2014)                  
    
    
    
      ... OpenMP parallelization enabled, threads:    8

   *-----------------------------------------------------------------------*
   |                     program will use  8 thread(s)                     |
   *-----------------------------------------------------------------------*
 
                FOUND RI-J FLAG
 
  HF exact exchange energy will be computed using RI-JK.
 
  The HXX energy will NOT be computed due to nohxx option. 
 


              +--------------------------------------------------+
              | Atomic coordinate, charge and isotop information |
              +--------------------------------------------------+

                    atomic coordinates            atom    charge  isotop
          2.33554901    0.00000000   -6.28856290    c      6.000     0
          0.72172433    2.22123910   -6.28856290    c      6.000     0
         -1.88949884    1.37280126   -6.28856290    c      6.000     0
         -1.88949884   -1.37280126   -6.28856290    c      6.000     0
         -3.70543729    2.69215778   -4.90130936    c      6.000     0
          1.41535110    4.35600279   -4.90130936    c      6.000     0
          0.72172433   -2.22123910   -6.28856290    c      6.000     0
          4.58017238    0.00000000   -4.90130936    c      6.000     0
          1.41535110   -4.35600279   -4.90130936    c      6.000     0
         -3.70543729   -2.69215778   -4.90130936    c      6.000     0
         -5.59493613    1.31935651   -3.45786069    c      6.000     0
         -2.98371296    4.91339688   -3.45786069    c      6.000     0
         -5.59493613   -1.31935651   -3.45786069    c      6.000     0
         -2.98371296   -4.91339688   -3.45786069    c      6.000     0
         -0.47414774   -5.72880405   -3.45786069    c      6.000     0
          3.75090011   -4.35600279   -3.45786069    c      6.000     0
          5.30189671   -2.22123910   -3.45786069    c      6.000     0
          5.30189671    2.22123910   -3.45786069    c      6.000     0
          3.75090011    4.35600279   -3.45786069    c      6.000     0
         -0.47414774    5.72880405   -3.45786069    c      6.000     0
         -6.04098630    2.69215778   -1.12231168    c      6.000     0
         -4.42716163    4.91339688   -1.12231168    c      6.000     0
          3.30484994    5.72880405   -1.12231168    c      6.000     0
          0.69362677    6.57724189   -1.12231168    c      6.000     0
          6.46967122   -1.37280126   -1.12231168    c      6.000     0
          6.46967122    1.37280126   -1.12231168    c      6.000     0
          3.30484994   -5.72880405   -1.12231168    c      6.000     0
          0.69362677   -6.57724189   -1.12231168    c      6.000     0
         -4.42716163   -4.91339688   -1.12231168    c      6.000     0
         -6.04098630   -2.69215778   -1.12231168    c      6.000     0
         -6.46967122   -1.37280126    1.12231168    c      6.000     0
         -6.46967122    1.37280126    1.12231168    c      6.000     0
         -3.30484994    5.72880405    1.12231168    c      6.000     0
         -0.69362677    6.57724189    1.12231168    c      6.000     0
          6.04098630    2.69215778    1.12231168    c      6.000     0
          4.42716163    4.91339688    1.12231168    c      6.000     0
          4.42716163   -4.91339688    1.12231168    c      6.000     0
          6.04098630   -2.69215778    1.12231168    c      6.000     0
         -0.69362677   -6.57724189    1.12231168    c      6.000     0
         -3.30484994   -5.72880405    1.12231168    c      6.000     0
         -5.30189671    2.22123910    3.45786069    c      6.000     0
         -3.75090011    4.35600279    3.45786069    c      6.000     0
          0.47414774    5.72880405    3.45786069    c      6.000     0
          2.98371296    4.91339688    3.45786069    c      6.000     0
          5.59493613    1.31935651    3.45786069    c      6.000     0
          5.59493613   -1.31935651    3.45786069    c      6.000     0
          2.98371296   -4.91339688    3.45786069    c      6.000     0
          0.47414774   -5.72880405    3.45786069    c      6.000     0
         -3.75090011   -4.35600279    3.45786069    c      6.000     0
         -5.30189671   -2.22123910    3.45786069    c      6.000     0
         -1.41535110   -4.35600279    4.90130936    c      6.000     0
         -4.58017238    0.00000000    4.90130936    c      6.000     0
         -1.41535110    4.35600279    4.90130936    c      6.000     0
          3.70543729    2.69215778    4.90130936    c      6.000     0
          3.70543729   -2.69215778    4.90130936    c      6.000     0
          1.88949884   -1.37280126    6.28856290    c      6.000     0
         -0.72172433   -2.22123910    6.28856290    c      6.000     0
         -2.33554901    0.00000000    6.28856290    c      6.000     0
         -0.72172433    2.22123910    6.28856290    c      6.000     0
          1.88949884    1.37280126    6.28856290    c      6.000     0
 
       center of nuclear mass  :   -0.00000000    0.00000000   -0.00000000
       center of nuclear charge:   -0.00000000    0.00000000   -0.00000000
              +-------------------------------------------------+
              |        Rotational Constants Section             |
              +-------------------------------------------------+
                                   Center of Mass [a.u]:
              -0.00000000000000         0.00000000000000        -0.00000000000000
                     Principal Moments of Inertia [a.u.]
           21620.46035419106920     21620.46035419106920     21620.46035419106920
                       Rotational constants A,B,C [a.u.]
               0.00002312624208         0.00002312624208         0.00002312624208
                     Rotational constants A,B,C [cm**-1]
               0.00278438504594         0.00278438504594         0.00278438504594
                        Rotational constants A,B,C [MHz]
              83.47376369394537        83.47376369394537        83.47376369394537

   * BASIS SET information:

              +--------------------------------------------------+
              |               basis set information              |
              +--------------------------------------------------+

              we will work with the 1s 3p 5d 7f 9g ... basis set
              ...i.e. with spherical basis functions...

   type   atoms  prim   cont   basis
   ---------------------------------------------------------------------------
    c       60     77     55   cc-pVQZ   [5s4p3d2f1g|21s6p3d2f1g]
   ---------------------------------------------------------------------------
   total:   60   4620   3300
   ---------------------------------------------------------------------------

   total number of primitive shells          :   33
   total number of contracted shells         :  900
   total number of cartesian basis functions : 4200
   total number of SCF-basis functions       : 3300


   * AUXILIARY BASIS SET information:

              +--------------------------------------------------+
              |               basis set information              |
              +--------------------------------------------------+

              we will work with the 1s 3p 5d 7f 9g ... basis set
              ...i.e. with spherical basis functions...

   type   atoms  prim   cont   basis
   ---------------------------------------------------------------------------
    c       60    132    132   cc-pVQZ   [8s7p6d5f3g1h|8s7p6d5f3g1h]
   ---------------------------------------------------------------------------
   total:   60   7920   7920
   ---------------------------------------------------------------------------

   total number of primitive shells          :   30
   total number of contracted shells         : 1800
   total number of cartesian basis functions :10860
   total number of SCF-basis functions       : 7920


   * RI-JK AUXILIARY BASIS SET information:

              +--------------------------------------------------+
              |               basis set information              |
              +--------------------------------------------------+

              we will work with the 1s 3p 5d 7f 9g ... basis set
              ...i.e. with spherical basis functions...

   type   atoms  prim   cont   basis
   ---------------------------------------------------------------------------
    c       60    106    106   cc-pVQZ   [10s7p5d3f2g1h|10s7p5d3f2g1h]
   ---------------------------------------------------------------------------
   total:   60   6360   6360
   ---------------------------------------------------------------------------

   total number of primitive shells          :   28
   total number of contracted shells         : 1680
   total number of cartesian basis functions : 8520
   total number of SCF-basis functions       : 6360

  No keyword $dft found! - HARTREE FOCK CALCULATION

 reading orbital data $scfmo  from file mos
 orbital characterization : scfconv=9

 integral neglect threshold       :  0.33E+02

 scfconv                     9

 MAXIMUM CORE MEMORY WHICH CAN BE ALLOCATED DYNAMICALLY = 19073 MiB
              ( or 2500000000 double words per process)


 there are 1 real representations :   a   

 maximum number of shells which are related by symmetry :  1

 time elapsed for calculating density matrices :   2.319 sec

     total memory allocated for calculation of (Q|P)**(-1/2) : 718 MiB


     calculation of (P|Q) ...
     time in lp2sym        cpu:  9.84 sec    wall:  1.29 sec    ratio:  7.7


     calculation of the Cholesky decomposition of (P|Q)**(-1) ...
     time in invmetri      cpu:  1 min 29 s  wall:  0 min 15 s  ratio:  6.0

   threshold for RMS(d[D]) in SCF was     :  0.10E-06
   integral neglect threshold             :  0.31E-14
   derivative integral neglect threshold  :  0.10E-06


 setting up bound for integral derivative estimation

 increment for numerical differentiation : 0.00050000
 total memory allocated for calculation of (Q|P)**(-1/2) : 718 MiB
 Dividing biap into                     49  block chunks,
 using                   188 MiB per block
 Reserved                   9237 MiB for BLAS routines
 Estimated total memory usage:                  18962 MiB
 number of passes for ispin    1
 =    3
 
 Number of eigenvalues < 6e-3:                      0
 
 
            -----------------------------
            Complex frequency integration
            -----------------------------
 
 Number of Clenshaw-Curtis nodes:                    100
 Optimized scaling parameter    :    1.27602882056254     
 Sensitivity measure            :  -8.149360353204571E-011
 
 Done with rirpa frequency point #                     1
 Done with rirpa frequency point #                     2
 Done with rirpa frequency point #                     3
 Done with rirpa frequency point #                     4
 Done with rirpa frequency point #                     5
 Done with rirpa frequency point #                     6
 Done with rirpa frequency point #                     7
 Done with rirpa frequency point #                     8
 Done with rirpa frequency point #                     9
 Done with rirpa frequency point #                    10
 Done with rirpa frequency point #                    11
 Done with rirpa frequency point #                    12
 Done with rirpa frequency point #                    13
 Done with rirpa frequency point #                    14
 Done with rirpa frequency point #                    15
 Done with rirpa frequency point #                    16
 Done with rirpa frequency point #                    17
 Done with rirpa frequency point #                    18
 Done with rirpa frequency point #                    19
 Done with rirpa frequency point #                    20
 Done with rirpa frequency point #                    21
 Done with rirpa frequency point #                    22
 Done with rirpa frequency point #                    23
 Done with rirpa frequency point #                    24
 Done with rirpa frequency point #                    25
 Done with rirpa frequency point #                    26
 Done with rirpa frequency point #                    27
 Done with rirpa frequency point #                    28
 Done with rirpa frequency point #                    29
 Done with rirpa frequency point #                    30
 Done with rirpa frequency point #                    31
 Done with rirpa frequency point #                    32
 Done with rirpa frequency point #                    33
 Done with rirpa frequency point #                    34
 Done with rirpa frequency point #                    35
 Done with rirpa frequency point #                    36
 Done with rirpa frequency point #                    37
 Done with rirpa frequency point #                    38
 Done with rirpa frequency point #                    39
 Done with rirpa frequency point #                    40
 Done with rirpa frequency point #                    41
 Done with rirpa frequency point #                    42
 Done with rirpa frequency point #                    43
 Done with rirpa frequency point #                    44
 Done with rirpa frequency point #                    45
 Done with rirpa frequency point #                    46
 Done with rirpa frequency point #                    47
 Done with rirpa frequency point #                    48
 Done with rirpa frequency point #                    49
 Done with rirpa frequency point #                    50
 Done with rirpa frequency point #                    51
 Done with rirpa frequency point #                    52
 Done with rirpa frequency point #                    53
 Done with rirpa frequency point #                    54
 Done with rirpa frequency point #                    55
 Done with rirpa frequency point #                    56
 Done with rirpa frequency point #                    57
 Done with rirpa frequency point #                    58
 Done with rirpa frequency point #                    59
 Done with rirpa frequency point #                    60
 Done with rirpa frequency point #                    61
 Done with rirpa frequency point #                    62
 Done with rirpa frequency point #                    63
 Done with rirpa frequency point #                    64
 Done with rirpa frequency point #                    65
 Done with rirpa frequency point #                    66
 Done with rirpa frequency point #                    67
 Done with rirpa frequency point #                    68
 Done with rirpa frequency point #                    69
 Done with rirpa frequency point #                    70
 Done with rirpa frequency point #                    71
 Done with rirpa frequency point #                    72
 Done with rirpa frequency point #                    73
 Done with rirpa frequency point #                    74
 Done with rirpa frequency point #                    75
 Done with rirpa frequency point #                    76
 Done with rirpa frequency point #                    77
 Done with rirpa frequency point #                    78
 Done with rirpa frequency point #                    79
 Done with rirpa frequency point #                    80
 Done with rirpa frequency point #                    81
 Done with rirpa frequency point #                    82
 Done with rirpa frequency point #                    83
 Done with rirpa frequency point #                    84
 Done with rirpa frequency point #                    85
 Done with rirpa frequency point #                    86
 Done with rirpa frequency point #                    87
 Done with rirpa frequency point #                    88
 Done with rirpa frequency point #                    89
 Done with rirpa frequency point #                    90
 Done with rirpa frequency point #                    91
 Done with rirpa frequency point #                    92
 Done with rirpa frequency point #                    93
 Done with rirpa frequency point #                    94
 Done with rirpa frequency point #                    95
 Done with rirpa frequency point #                    96
 Done with rirpa frequency point #                    97
 Done with rirpa frequency point #                    98
 Done with rirpa frequency point #                    99
 Done with rirpa frequency point #                   100
 


 RI-RPA correlation energy: -0.1066040528059192E+02
 
 
 HXX Energy calculation skipped due to nohxx option
 

                  --------------------------------------------------- 
                 |  HXX+RIRPA total energy     =    -10.66040528059  |
                  ---------------------------------------------------- 
                 :  RIRPA correlation energy   =    -10.66040528059  :
                 :  HXX total energy           =      0.00000000000  :
                 :  Hartree energy             =      0.00000000000  :
                 :  Exact Exchange energy      =      0.00000000000  :
                  .................................................... 


    ------------------------------------------------------------------------
    Rirpa profiling                cpu                    wall         ratio
    ------------------------------------------------------------------------
    module                         sec     %               sec     %
    ------------------------------------------------------------------------
    RIRPA                    270280.0  100.00        70897.7  100.00   3.8
    riccbound                   106.4    0.04          105.4    0.15   1.0
    ccmkbaoi                  14806.2    5.48         3602.1    5.08   4.1
    cc3idxnrm                   287.6    0.11          320.2    0.45   0.9
    ecrpa                    254941.7   94.33        66737.1   94.13   3.8
    tread                      2528.1    0.94        30279.6   42.71   0.1
    tqbuild                  246032.7   91.03        34954.1   49.30   7.0
    trpaln                     3878.3    1.43          490.2    0.69   7.9
    ------------------------------------------------------------------------
    sum                      792996.7  293.40       207514.9  292.70   3.8
    ------------------------------------------------------------------------


    ------------------------------------------------------------------------
         total  cpu-time :   3 days  3 hours  4 minutes and 41 seconds
         total wall-time : 19 hours 41 minutes and 38 seconds
    ------------------------------------------------------------------------

   ****  rirpa : all done  ****


    2019-02-19 05:37:26.007 

