Using OpenMPI from /sopt/mpi/openmpi-1.8.6/intel_15.0.3/bin/mpiexec
STARTING ridft ON 8 PROCESSORS!
RUNNING PROGRAM /modfac/apps/TURBOMOLE/7.0_intel/bin/em64t-unknown-linux-gnu_mpi/ridft_mpi.
PLEASE WAIT UNTIL ridft HAS FINISHED.
Look for the output in slave1.output.
  this is node-proc. number 1 running on node c-9-333.local
  the total number of node-proc. spawned is            8
  parallel platform: MPP, or cluster with fast interconnect

 ridft (c-9-333.local) : TURBOMOLE V7.0( ) 6 Jul 2015 at 19:34:44
 Copyright (C) 2015 TURBOMOLE GmbH, Karlsruhe


    2015-10-18 22:29:45.631 



                                  r i d f t

                        DFT program with RI approximation 
                                for coulomb part 




                                                 
                                 References:     
                                                 
          TURBOMOLE:                             
              R. Ahlrichs, M. Baer, M. Haeser, H. Horn, and
              C. Koelmel
              Electronic structure calculations on workstation
              computers: the program system TURBOMOLE
              Chem. Phys. Lett. 162: 165 (1989)
          Density Functional:                              
              O. Treutler and R. Ahlrichs                      
              Efficient Molecular Numerical Integration Schemes
              J. Chem. Phys. 102: 346 (1995)                   
          Parallel Version:                                
              Performance of parallel TURBOMOLE for Density    
              Functional Calculations                          
              M. v. Arnim and R. Ahlrichs                      
              J. Comp. Chem. 19: 1746 (1998)                   
          RI-J Method:                                     
              Auxiliary Basis Sets to approximate Coulomb      
              Potentials                                       
              Chem. Phys. Lett. 240: 283 (1995)                
              K. Eichkorn, O. Treutler, H. Oehm, M. Haeser     
              and R. Ahlrichs                                  
              Chem. Phys. Lett. 242: 652 (1995)                
                                                           
              Auxiliary Basis Sets for Main Row Atoms and their
              Use to approximate Coulomb Potentials            
              K. Eichkorn, F. Weigend, O. Treutler and         
              R. Ahlrichs                                      
              Theo. Chem. Acc. 97: 119 (1997)                   
                                                           
              Accurate Coulomb-fitting basis sets for H to Rn 
              F. Weigend                                        
              Phys. Chem. Chem. Phys. 8: 1057 (2006)            
                                                           
          Multipole accelerated RI-J (MARI-J):             
              Fast evaluation of the Coulomb potential for     
              electron densities using multipole accelerated   
              resolution of identity approximation             
              M. Sierka, A. Hogekamp and R. Ahlrichs           
              J. Chem. Phys. 118: 9136 (2003)                  
          RI-JK Method:                                     
              A fully direct RI-HF algorithm: Implementation,
              optimised auxiliary basis sets, demonstration of
              accuracy and efficiency                         
              F. Weigend                                      
              Phys. Chem. Chem. Phys. 4: 4285 (2002)           
          Two-component HF and DFT with spin-orbit coupling:  
              Self-consistent treatment of spin-orbit         
              interactions with efficient Hartree-Fock and    
              density functional methods                      
              M. K. Armbruster, F. Weigend, C. van Wüllen and 
              W. Klopper                                      
              Phys. Chem. Chem. Phys. 10: 1748 (2008)         
          Relativistic all-electron 2c calculations           
              An efficient implementation of two-component    
              relativistic exact-decoupling methods for large 
              molecules                                       
              D. Peng, N. Middendorf, F. Weigend, M. Reiher   
              J. Chem. Phys. 138, 184105 (2013)               
                                         


 


              +--------------------------------------------------+
              |      general information about current run       |
              +--------------------------------------------------+

 

 SCF run will be profiled !


 DENSITY CONVERGENCE CHECK SWITCHED ON !
 SCF CONVERGENCE IF RMS(delta[D]) <     0.1000000000E-06

 PBE functional
 exchange:    LDA + PBE
 correlation: LDA (PW) + PBE
 A DFT calculation using the RI-J approximation will be carried out.
 Allocatable memory for RI due to $ricore (MB):        5000


              +--------------------------------------------------+
              | Atomic coordinate, charge and isotop information |
              +--------------------------------------------------+

                    atomic coordinates            atom    charge  isotop
          5.14666912    3.54004286  -14.14371193    c      0.000     0
          5.32101526    1.40053273  -15.66645325    c      0.000     0
          4.82182520   -0.96134148  -14.61941269    c      0.000     0
          4.21503414   -1.09832773  -12.05418506    c      0.000     0
          4.09212635    0.95005981  -10.56415490    n      0.000     0
          4.51448014    3.22638612  -11.60112322    c      0.000     0
          3.54900016   -3.63322526  -10.91838406    c      0.000     0
          3.27285448   -5.51885068  -12.25164254    o      0.000     0
          4.16006201    5.53914634   -9.96046299    c      0.000     0
          4.30923699    7.68545949  -10.84364539    o      0.000     0
          3.26705302   -3.57192254   -8.36156571    n      0.000     0
          2.32116951   -5.56063253   -6.81748938    c      0.000     0
         -0.14335462   -6.47149942   -7.15712986    c      0.000     0
         -1.05165149   -8.29517963   -5.46988788    c      0.000     0
          0.38779070   -9.20168125   -3.45426819    c      0.000     0
          2.84845979   -8.26093779   -3.18798688    c      0.000     0
          3.85292482   -6.47860479   -4.85081360    c      0.000     0
         -0.68067935  -11.09730333   -1.51852723    c      0.000     0
         -3.08614954  -12.41858095   -2.53967854    c      0.000     0
         -4.08793116  -14.45672617   -0.74237891    c      0.000     0
         -2.09644327  -16.50435782   -0.27620237    c      0.000     0
          0.34406244  -15.31263983    0.72231002    c      0.000     0
          1.29419784  -13.21336196   -1.03861238    c      0.000     0
         -1.70349362  -17.49555697   -2.05948023    h      0.000     0
         -2.80715038  -17.91930916    1.05949385    h      0.000     0
         -1.29897885   -9.58110047    0.89325465    c      0.000     0
         -3.50693486   -8.12894042    1.02627247    c      0.000     0
         -4.11820457   -6.68467943    3.14401296    c      0.000     0
         -2.42397061   -6.64110234    5.19279734    c      0.000     0
         -0.18029877   -8.05783003    5.12716715    c      0.000     0
          0.32323766   -9.51093494    2.97316282    c      0.000     0
         -6.55716071   -5.21836533    3.25569577    c      0.000     0
         -2.92701570   -4.95669495    7.22370491    n      0.000     0
         -3.07390412   -5.55636175    9.72262206    c      0.000     0
         -3.04897863   -7.71284162   10.59206615    o      0.000     0
          1.69319462   -7.98224098    7.26418284    c      0.000     0
         -1.80963954   -5.49144966   -9.24178124    c      0.000     0
          6.52261651   -5.52903631   -4.54961015    c      0.000     0
         -3.21948862   -3.26709082   11.42435823    c      0.000     0
         -2.99927883   -0.97449397   10.36244553    n      0.000     0
         -2.93807060    1.05826553   11.87757125    c      0.000     0
         -3.15327261    0.88802010   14.50275990    c      0.000     0
         -3.44635024   -1.49226004   15.58515723    c      0.000     0
         -3.45950273   -3.61493271   14.02927012    c      0.000     0
         -2.49672506    3.61285401   10.68109115    c      0.000     0
         -2.04020502    5.49110951   11.97383390    o      0.000     0
          3.62625217    4.96731522   -7.51062203    n      0.000     0
          2.82973260    6.66668924   -5.58703200    c      0.000     0
          0.60013923    8.07538558   -5.86055096    c      0.000     0
         -0.22693721    9.53209987   -3.80677771    c      0.000     0
          1.06510634    9.59871271   -1.50817153    c      0.000     0
          3.28481645    8.16851128   -1.31126207    c      0.000     0
          4.21078226    6.72852107   -3.31320014    c      0.000     0
          0.13721301   11.16051467    0.76964766    c      0.000     0
         -2.09576297   12.90367364    0.04497548    c      0.000     0
         -2.92573069   14.61041760    2.23514917    c      0.000     0
         -0.74149074   16.27987725    3.14450429    c      0.000     0
          1.55690757   14.65955048    3.83572831    c      0.000     0
          2.31582158   12.92999753    1.63822248    c      0.000     0
         -0.21813109   17.60245878    1.63134388    h      0.000     0
         -1.33323958   17.42193324    4.76821367    h      0.000     0
         -0.63428658    9.27734589    2.85341087    c      0.000     0
         -3.08512909    8.28442709    2.95968907    c      0.000     0
         -3.78871192    6.46715305    4.73862056    c      0.000     0
         -1.96397347    5.58478323    6.45263996    c      0.000     0
          0.50616314    6.55120807    6.42503106    c      0.000     0
          1.10677480    8.39701697    4.63198331    c      0.000     0
         -6.44613930    5.44267582    4.81124273    c      0.000     0
         -2.62530203    3.57596656    8.11157384    n      0.000     0
          2.48929844    5.60872606    8.23089114    c      0.000     0
         -0.92432174    7.99112269   -8.25944491    c      0.000     0
          6.65304541    5.28448685   -3.06802707    c      0.000     0
         -3.08131184   -3.08174648    6.78853878    h      0.000     0
          3.63615433   -1.88471836   -7.50478278    h      0.000     0
         -4.81277341   -8.10915499   -0.55712906    h      0.000     0
          2.06902335  -10.58805993    2.95010816    h      0.000     0
         -2.96530156   -8.97378028   -5.75306334    h      0.000     0
          4.03131496   -8.91329015   -1.64043346    h      0.000     0
         -7.63609984   -5.72794888    4.94785104    h      0.000     0
         -7.71529827   -5.60980320    1.59071477    h      0.000     0
         -6.22069497   -3.17742331    3.35010649    h      0.000     0
          2.01803854   -6.03701359    7.89743007    h      0.000     0
          3.49850668   -8.79535234    6.67335997    h      0.000     0
          0.98065448   -9.03289092    8.89870146    h      0.000     0
          7.47677703   -6.51095690   -3.00234019    h      0.000     0
          6.56951952   -3.49351780   -4.15856912    h      0.000     0
          7.60546738   -5.82802878   -6.28783694    h      0.000     0
         -1.18973378   -6.22386971  -11.07543920    h      0.000     0
         -3.77340514   -6.04959917   -8.92485527    h      0.000     0
         -1.71791223   -3.42586561   -9.35486245    h      0.000     0
         -4.58022371  -11.04153751   -2.91607419    h      0.000     0
         -2.60587565  -13.28171336   -4.36547524    h      0.000     0
         -4.61777257  -13.58042237    1.06246072    h      0.000     0
         -5.80981182  -15.28712852   -1.53967326    h      0.000     0
         -0.00746442  -14.53518760    2.61133695    h      0.000     0
          1.82328336  -16.74930412    0.92817678    h      0.000     0
          1.76371919  -14.02651112   -2.88850309    h      0.000     0
          3.05559267  -12.42249268   -0.30086330    h      0.000     0
         -3.62230264   -5.52334823   14.75808080    h      0.000     0
         -3.63154340   -1.69345918   17.61946631    h      0.000     0
          4.86527000   -2.69174480  -15.71588849    h      0.000     0
          5.81196611    1.57470879  -17.65127040    h      0.000     0
         -3.11523243    1.89271190    7.31067011    h      0.000     0
          3.64649114    3.09193210   -7.05364846    h      0.000     0
         -4.51185342    8.92521432    1.63068247    h      0.000     0
          3.02384527    9.12781186    4.63546041    h      0.000     0
         -1.95794525   10.60555880   -4.04510997    h      0.000     0
          4.33652463    8.16082010    0.45158785    h      0.000     0
         -6.48950851    3.42647032    4.32985390    h      0.000     0
         -7.25486649    5.62677294    6.70786637    h      0.000     0
         -7.65531836    6.45558793    3.47666145    h      0.000     0
          2.46992875    3.54077986    8.34051416    h      0.000     0
          4.36802637    6.22213116    7.62931573    h      0.000     0
          2.13038276    6.31674975   10.14278376    h      0.000     0
          6.36321812    3.24498102   -3.26933959    h      0.000     0
          7.52479497    5.63920734   -1.22854875    h      0.000     0
          7.98294018    5.85040313   -4.55017707    h      0.000     0
         -1.14438035    6.04347645   -8.92821898    h      0.000     0
         -2.80032846    8.80196638   -7.95665409    h      0.000     0
          0.02978208    9.03908922   -9.76721959    h      0.000     0
         -3.70718914   11.80154757   -0.63908648    h      0.000     0
         -1.48024138   14.08709574   -1.54422750    h      0.000     0
         -3.59837871   13.43789922    3.80742021    h      0.000     0
         -4.52381539   15.78114073    1.62724317    h      0.000     0
          1.10817320   13.50694982    5.49976445    h      0.000     0
          3.16296691   15.86389184    4.34841101    h      0.000     0
          2.84764721   14.08063288   -0.00319364    h      0.000     0
          3.99578811   11.83227452    2.13423780    h      0.000     0
         -3.06642080    2.60778427   15.61350313    h      0.000     0
          5.45416536    5.43689326  -14.85593082    h      0.000     0
         -1.46661645   -0.06442076    2.06439352    c      6.000     0
         -1.59632725    2.16337737    0.39929913    c      6.000     0
         -0.19364024    2.30582493   -1.71543669    c      6.000     0
          1.52635069    0.22771200   -2.41335035    c      6.000     0
          1.65549458   -1.99789406   -0.74698984    c      6.000     0
          0.25705945   -2.13703459    1.36818062    c      6.000     0
         -2.79569864   -0.20059443    3.98989217    o      8.000     0
          2.85726591    0.34984500   -4.33680809    o      8.000     0
         -2.84324415    3.68069518    0.98220405    h      1.000     0
         -0.24492740    3.93635623   -2.95961348    h      1.000     0
          2.90154220   -3.51462605   -1.32887431    h      1.000     0
          0.31070877   -3.76796273    2.61065665    h      1.000     0
 
       center of nuclear mass  :    0.09697812    0.00391977   -0.05895197
       center of nuclear charge:    0.03054540    0.08060458   -0.17382815

              +--------------------------------------------------+
              |               basis set information              |
              +--------------------------------------------------+

              we will work with the 1s 3p 5d 7f 9g ... basis set
              ...i.e. with spherical basis functions...

   type   atoms  prim   cont   basis
   ---------------------------------------------------------------------------
    c       64     77     57   def2-QZVP   [7s4p3d2f1g|15s8p3d2f1g]
    n        6     77     57   def2-QZVP   [7s4p3d2f1g|15s8p3d2f1g]
    o        6     77     57   def2-QZVP   [7s4p3d2f1g|15s8p3d2f1g]
    h       66     33     30   def2-QZVP   [4s3p2d1f|7s3p2d1f]
   ---------------------------------------------------------------------------
   total:  142   8030   6312
   ---------------------------------------------------------------------------

   total number of primitive shells          :  100
   total number of contracted shells         : 1952
   total number of cartesian basis functions : 7782
   total number of SCF-basis functions       : 6312


 integral neglect threshold       :  0.43E-14
 integral storage threshold THIZE :  0.10E-04
 integral storage threshold THIME :         5

 RI-J AUXILIARY BASIS SET information:

              we will work with the 1s 3p 5d 7f 9g ... basis set
              ...i.e. with spherical basis functions...

   type   atoms  prim   cont   basis
   ---------------------------------------------------------------------------
    c       64     70     49   def2-QZVP   [6s4p3d1f1g|12s5p4d2f1g]
    n        6     70     49   def2-QZVP   [6s4p3d1f1g|12s5p4d2f1g]
    o        6     70     49   def2-QZVP   [6s4p3d1f1g|12s5p4d2f1g]
    h       66     16     11   def2-QZVP   [3s1p1d|5s2p1d]
   ---------------------------------------------------------------------------
   total:  142   6376   4450
   ---------------------------------------------------------------------------

   total number of primitive shells          :   80
   total number of contracted shells         : 1470
   total number of cartesian basis functions : 5428
   total number of SCF-basis functions       : 4450


 symmetry group of the molecule :   c1 

 the group has the following generators :
   c1(z)

    1 symmetry operations found

 there are 1 real representations :   a   

 maximum number of shells which are related by symmetry :  1


    mo occupation :
   irrep   mo's   occupied
    a     6312       28
 
 number of basis functions   :         6312
 number of occupied orbitals :           28
 
  
           ------------------
           density functional
           ------------------
 Dummy atoms with grid-point found.
 DFT quadrature threshold dgrenze tightened by factor 1/10.

 PBE functional
 exchange:    LDA + PBE
 correlation: LDA (PW) + PBE
 Dummy atoms with grid-point found.
 DFT quadrature threshold dgrenze tightened by factor 1/10.

 Dummy atoms with grid-point found.
 DFT quadrature threshold dgrenze tightened by factor 1/10.

 grinp -> nfun, dfgga, dfhybrid 
           6 T F
 iterations will be done with small grid
  
 spherical integration : Lebedev's spherical grid
 spherical gridsize    :           5
    i.e. gridpoints    :         590
 value for diffuse not defined
 radial integration    : Chebyshev 2nd kind (scaling 3)
 radial gridsize       :           8
 integration cells     :         142
 partition function    : becke
 partition sharpness   :           3
  
 found dummy atom(s) with basis: included in dft

 <rddim> : input of entry tasksize
           from data group '$pardft' failed !

               Default values taken

 <rddim> : input of entry memdiv
           from data group '$pardft' failed !

               Default values taken
  RIDFT: memory allocation for DFT gridpoints
  MEMORY is divided by 1 as DEFAULT
 Each node can hold at most  the            1 -th part
 of the gridpoints    

 biggest AO integral is expected to be     6.990327543
  
           ------------------------
               RI-J - INFORMATION
           ------------------------
 
 
 **************************************************
 *      MEMORY ALLOCATION FOR PARALLEL RI-DFT     *
 **************************************************
 
 
MEMORY FOR (MU NU/ ALPHA), SEQUENTIAL RUN               4848 MByte
 
            DIFFERENCE IN MEMORY NEED:       DIAG./SLAVE  
 
      TOTAL DIFFERENCE :                   1767 MByte
 
      difference in xcore:                  153 MByte
      difference in fatmat:                 544 MByte
      getcor calls skipped by slaves:      1071 MByte
 
 
           Integral memory available for diagonal.      4848 MByte
 
           Integral memory available for slave             0 MByte
 
         MEMORY FOR (MU NU/ ALPHA) ON DIAGONALIZER      4848 MByte
 
         MEMORY FOR (MU NU/ ALPHA) ON ONE SLAVE            0 MByte
 
         TOTAL MEMORY FOR (MU NU/ ALPHA),ALL NODES      4848 MByte
 
 Contributions to RI integral batches: 
  neglected integral batches:     1357830
  direct contribution:             517392
  memory contribution:       30906
 Memory core needed for (P|Q) and Cholesky    152 MByte
 Memory core minimum needed except of (P|Q)     3 MByte
 Total minimum memory core needed (sum)       154 MByte
     number of direct tasks:         160
  
 ****************************************
 Memory allocated for RI-J  5001 MByte
 ****************************************
                                            

          ------------------------
          nuclear repulsion energy  :   322.516450339    
          ------------------------

 
          -----------------
          -S integrals
          -----------------

 1e-integrals will be neglected if expon. factor < 0.429448E-15
 
          -----------------
          -T+V integrals
          -----------------

 1e-integrals will be neglected if expon. factor < 0.429448E-15
 Difference densities >>NOT<< switched on in parallel ridft!

 automatic virtual orbital shift switched on 
      shift if e(lumo)-e(homo) < 0.10000000    


 DIIS switched on: error vector is FDS-SDF
 Max. Iterations for DIIS is     :   4
 DIIS matrix (see manual) 
    Scaling factor of diagonals  :  1.200
    threshold for scaling factor :  0.000

 scf convergence criterion : increment of total energy < .1000000D-08
                  and increment of one-electron energy < .1000000D-05


 <geterg> : there is no data group $energy 

  MOs are in ASCII format !


 reading orbital data $scfmo  from file mos . 

 orbital characterization : expanded
 
 mo provided and orthogonalized by Cholesky decomposition

 DSCF restart information will be dumped onto file mos


 Starting SCF iterations


 ITERATION  ENERGY          1e-ENERGY        2e-ENERGY     RMS[dD(SAO)]   TOL
   1  -378.92813006730    -1144.7037968     443.25921641    0.000D+00 0.428D-14
                            Exc = -50.2033315475     Coul =  493.462547960    
                              N = 55.999715561    
                            current damping = 0.700
 
          max. resid. norm for Fia-block=  8.000D-01 for orbital      9a         
          max. resid. fock norm         =  7.659D+01 for orbital   5461a         

 ITERATION  ENERGY          1e-ENERGY        2e-ENERGY     RMS[dD(SAO)]   TOL
   2  -380.67649291299    -1152.2469654     449.05402216    0.278D-02 0.428D-14
                            Exc = -50.2734005754     Coul =  499.327422734    
                              N = 55.999809025    
                            current damping = 0.650
 
          Norm of current diis error:  3.5751    
          max. resid. norm for Fia-block=  1.578D-01 for orbital      1a         
          max. resid. fock norm         =  3.349D-01 for orbital   5870a         

 ITERATION  ENERGY          1e-ENERGY        2e-ENERGY     RMS[dD(SAO)]   TOL
   3  -380.92483485797    -1155.4648488     452.02356355    0.114D-02 0.428D-14
                            Exc = -50.6091055506     Coul =  502.632669104    
                              N = 55.999840610    
                            current damping = 0.550
 
          Norm of current diis error:  1.7316    
          max. resid. norm for Fia-block=  7.643D-02 for orbital     25a         
          max. resid. fock norm         =  8.840D-02 for orbital     29a         
          irrep a   : virtual orbitals shifted by    0.08943

 ITERATION  ENERGY          1e-ENERGY        2e-ENERGY     RMS[dD(SAO)]   TOL
   4  -381.01364081166    -1155.5209099     451.99081870    0.336D-03 0.428D-14
                            Exc = -50.5206704108     Coul =  502.511489111    
                              N = 55.999853217    
                            current damping = 0.600
 
          Norm of current diis error: 0.79722    
          max. resid. norm for Fia-block=  3.892D-02 for orbital      9a         
          max. resid. fock norm         =  6.428D-02 for orbital     28a         
          irrep a   : virtual orbitals shifted by    0.16296

 ITERATION  ENERGY          1e-ENERGY        2e-ENERGY     RMS[dD(SAO)]   TOL
   5  -381.05282313019    -1156.2928018     452.72352829    0.132D-03 0.428D-14
                            Exc = -50.6594993551     Coul =  503.383027644    
                              N = 55.999856018    
                            current damping = 0.650
 
          Norm of current diis error: 0.48829    
          max. resid. norm for Fia-block=  3.444D-02 for orbital     28a         
          max. resid. fock norm         =  4.052D-02 for orbital     29a         
          irrep a   : virtual orbitals shifted by    0.11707
          mo-orthogonalization: Cholesky decomposition

 ITERATION  ENERGY          1e-ENERGY        2e-ENERGY     RMS[dD(SAO)]   TOL
   6  -381.10215856509    -1156.4163533     452.79774435    0.106D-03 0.428D-14
                            Exc = -50.6851520666     Coul =  503.482896419    
                              N = 55.999853726    
                            current damping = 0.500
 
          Norm of current diis error: 0.39082    
          max. resid. norm for Fia-block=  4.010D-02 for orbital     28a         
          max. resid. fock norm         =  4.270D-02 for orbital     29a         
          irrep a   : virtual orbitals shifted by    0.07643

 ITERATION  ENERGY          1e-ENERGY        2e-ENERGY     RMS[dD(SAO)]   TOL
   7  -381.15192184985    -1156.5602166     452.89184446    0.105D-03 0.428D-14
                            Exc = -50.7181254047     Coul =  503.609969863    
                              N = 55.999854906    
                            current damping = 0.350
 
          Norm of current diis error: 0.35325    
          max. resid. norm for Fia-block=  3.083D-02 for orbital     28a         
          max. resid. fock norm         =  3.400D-02 for orbital     28a         
          irrep a   : virtual orbitals shifted by    0.05301

 ITERATION  ENERGY          1e-ENERGY        2e-ENERGY     RMS[dD(SAO)]   TOL
   8  -381.17752242441    -1156.6165740     452.92260124    0.858D-04 0.428D-14
                            Exc = -50.7069119029     Coul =  503.629513140    
                              N = 55.999860962    
                            current damping = 0.200
 
          Norm of current diis error: 0.19692    
          max. resid. norm for Fia-block=  1.517D-02 for orbital     28a         
          max. resid. fock norm         =  1.632D-02 for orbital     28a         
          irrep a   : virtual orbitals shifted by    0.03116

 ITERATION  ENERGY          1e-ENERGY        2e-ENERGY     RMS[dD(SAO)]   TOL
   9  -381.18204162666    -1156.4569777     452.75848569    0.479D-04 0.428D-14
                            Exc = -50.7056694633     Coul =  503.464155150    
                              N = 55.999863171    
                            current damping = 0.250
 
          Norm of current diis error: 0.20196    
          max. resid. norm for Fia-block=  6.900D-03 for orbital     25a         
          max. resid. fock norm         =  1.261D-02 for orbital   5889a         
          irrep a   : virtual orbitals shifted by    0.02006

 ITERATION  ENERGY          1e-ENERGY        2e-ENERGY     RMS[dD(SAO)]   TOL
  10  -381.18268586547    -1156.5123418     452.81320564    0.217D-04 0.428D-14
                            Exc = -50.6986099754     Coul =  503.511815612    
                              N = 55.999864475    
                            current damping = 0.300
 
          Norm of current diis error: 0.17073    
          max. resid. norm for Fia-block=  4.775D-03 for orbital     25a         
          max. resid. fock norm         =  1.312D-02 for orbital   6301a         
          irrep a   : virtual orbitals shifted by    0.01814
          mo-orthogonalization: Cholesky decomposition

 ITERATION  ENERGY          1e-ENERGY        2e-ENERGY     RMS[dD(SAO)]   TOL
  11  -381.18329370718    -1156.5494619     452.84971788    0.115D-04 0.428D-14
                            Exc = -50.6935211568     Coul =  503.543239032    
                              N = 55.999866150    
                            current damping = 0.150
 
          Norm of current diis error: 0.93149E-01
          max. resid. norm for Fia-block=  2.302D-03 for orbital     22a         
          max. resid. fock norm         =  3.069D-03 for orbital     28a         
          irrep a   : virtual orbitals shifted by    0.02765

 ITERATION  ENERGY          1e-ENERGY        2e-ENERGY     RMS[dD(SAO)]   TOL
  12  -381.18347121802    -1156.5197586     452.81983703    0.473D-05 0.428D-14
                            Exc = -50.7027775541     Coul =  503.522614588    
                              N = 55.999865372    
                            current damping = 0.200
 
          Norm of current diis error: 0.36860E-01
          max. resid. norm for Fia-block=  8.933D-04 for orbital     22a         
          max. resid. fock norm         =  1.187D-03 for orbital   5968a         
          irrep a   : virtual orbitals shifted by    0.02521

 ITERATION  ENERGY          1e-ENERGY        2e-ENERGY     RMS[dD(SAO)]   TOL
  13  -381.18350165710    -1156.5017136     452.80176162    0.146D-05 0.428D-14
                            Exc = -50.6971422375     Coul =  503.498903855    
                              N = 55.999865461    
                            current damping = 0.050
 
          Norm of current diis error: 0.89146E-02
          max. resid. norm for Fia-block=  2.810D-04 for orbital     27a         
          max. resid. fock norm         =  4.129D-04 for orbital   5801a         
          irrep a   : virtual orbitals shifted by    0.03445

 ITERATION  ENERGY          1e-ENERGY        2e-ENERGY     RMS[dD(SAO)]   TOL
  14  -381.18350302935    -1156.5228780     452.82292459    0.729D-06 0.428D-14
                            Exc = -50.6995736439     Coul =  503.522498231    
                              N = 55.999865665    
                            current damping = 0.100
 
          Norm of current diis error: 0.50818E-02
          max. resid. norm for Fia-block=  1.176D-04 for orbital     27a         
          max. resid. fock norm         =  2.402D-04 for orbital   6238a         
          irrep a   : virtual orbitals shifted by    0.03137

 ITERATION  ENERGY          1e-ENERGY        2e-ENERGY     RMS[dD(SAO)]   TOL
  15  -381.18350345604    -1156.5143780     452.81442424    0.212D-06 0.428D-14
                            Exc = -50.6987967976     Coul =  503.513221034    
                              N = 55.999865602    
                            current damping = 0.150
 
          Norm of current diis error: 0.26271E-02
          max. resid. norm for Fia-block=  7.605D-05 for orbital     25a         
          max. resid. fock norm         =  2.147D-04 for orbital   6301a         
          irrep a   : virtual orbitals shifted by    0.02825
          mo-orthogonalization: Cholesky decomposition

 ITERATION  ENERGY          1e-ENERGY        2e-ENERGY     RMS[dD(SAO)]   TOL
  16  -381.18350354225    -1156.5143038     452.81434991    0.135D-06 0.428D-14
                            Exc = -50.6987042578     Coul =  503.513054170    
                              N = 55.999865587    
                            current damping = 0.050
 
          Norm of current diis error: 0.17981E-02
          max. resid. norm for Fia-block=  4.031D-05 for orbital     25a         
          max. resid. fock norm         =  1.224D-04 for orbital   6302a         
          irrep a   : virtual orbitals shifted by    0.03449

 DENSITY CONVERGED !


 ITERATION  ENERGY          1e-ENERGY        2e-ENERGY     RMS[dD(SAO)]   TOL
  17  -381.18350361633    -1156.5143060     452.81435200    0.759D-07 0.428D-14
                            Exc = -50.6986850968     Coul =  503.513037100    
                              N = 55.999865596    
                            current damping = 0.100
 
          Norm of current diis error: 0.71102E-03
          max. resid. norm for Fia-block=  1.627D-05 for orbital     25a         
          max. resid. fock norm         =  3.918D-05 for orbital   6302a         
          irrep a   : virtual orbitals shifted by    0.03137

 DENSITY CONVERGED !


 ITERATION  ENERGY          1e-ENERGY        2e-ENERGY     RMS[dD(SAO)]   TOL
  18  -381.18350362430    -1156.5146280     452.81467405    0.319D-07 0.428D-14
                            Exc = -50.6987773804     Coul =  503.513451425    
                              N = 55.999865596    
                            current damping = 0.050
 
          Norm of current diis error: 0.42822E-03
          max. resid. norm for Fia-block=  8.195D-06 for orbital     25a         
          max. resid. fock norm         =  1.374D-05 for orbital   6238a         
          irrep a   : virtual orbitals shifted by    0.03449

 DENSITY CONVERGED !


 ITERATION  ENERGY          1e-ENERGY        2e-ENERGY     RMS[dD(SAO)]   TOL
  19  -381.18350362789    -1156.5146731     452.81471911    0.161D-07 0.428D-14
                            Exc = -50.6987419967     Coul =  503.513461109    
                              N = 55.999865599    
                            current damping = 0.050
 
          Norm of current diis error: 0.17074E-03
          max. resid. norm for Fia-block=  3.178D-06 for orbital     19a         
          max. resid. fock norm         =  7.491D-06 for orbital   6237a         
          irrep a   : virtual orbitals shifted by    0.03449

 DENSITY CONVERGED !


 ITERATION  ENERGY          1e-ENERGY        2e-ENERGY     RMS[dD(SAO)]   TOL
  20  -381.18350362845    -1156.5145196     452.81456560    0.601D-08 0.428D-14
                            Exc = -50.6987392881     Coul =  503.513304883    
                              N = 55.999865596    
                            current damping = 0.100
 
          Norm of current diis error: 0.48600E-04
          max. resid. norm for Fia-block=  1.128D-06 for orbital     19a         
          max. resid. fock norm         =  2.933D-06 for orbital   6237a         
          irrep a   : virtual orbitals shifted by    0.03137
          mo-orthogonalization: Cholesky decomposition

 ENERGY & DENSITY CONVERGED !


 ITERATION  ENERGY          1e-ENERGY        2e-ENERGY     RMS[dD(SAO)]   TOL
  21  -381.18351937885    -1156.5145788     452.81460909    0.189D-08 0.428D-14
                            Exc = -50.6987588887     Coul =  503.513367981    
                              N = 55.999946228    
                            current damping = 0.150
 
          Norm of current diis error: 0.23609E-04
          max. resid. norm for Fia-block=  7.454D-07 for orbital     25a         
          max. resid. fock norm         =  2.038D-06 for orbital   6302a         

 End of SCF iterations

   convergence criteria satisfied after   21 iterations


                  ------------------------------------------ 
                 |  total energy      =   -381.18351937885  |
                  ------------------------------------------ 
                 :  kinetic energy    =    379.64890478340  :
                 :  potential energy  =   -760.83242416225  :
                 :  virial theorem    =      1.99597407937  :
                 :  wavefunction norm =      1.00000000000  :
                  .......................................... 


 <geterg> : there is no data group $energy 


 <skperg> : $end is missing 


 orbitals $scfmo  will be written to file mos

    irrep                 24a         25a         26a         27a         28a   
 eigenvalues H         -0.36108    -0.28867    -0.28615    -0.23928    -0.23484
            eV          -9.8256     -7.8552     -7.7865     -6.5113     -6.3905
 occupation              2.0000      2.0000      2.0000      2.0000      2.0000 

    irrep                 29a         30a         31a         32a         33a   
 eigenvalues H         -0.17245    -0.07824    -0.04809    -0.01665    -0.00573
            eV          -4.6927     -2.1291     -1.3085     -0.4531     -0.1558
 
 
 ! grave: sending quit signal to master process
 
 
 
 
 ==============================================================================
                           electrostatic moments
 ==============================================================================

 reference point for electrostatic moments:    0.00000   0.00000   0.00000

 
              nuc           elec       ->  total
 ------------------------------------------------------------------------------
                          charge      
 ------------------------------------------------------------------------------
          56.000000     -56.000000       0.000000
 
 ------------------------------------------------------------------------------
                       dipole moment  
 ------------------------------------------------------------------------------
   x       1.710542      -1.710567      -0.000025
   y       4.513857      -4.507793       0.006064
   z      -9.734376       9.732351      -0.002026
 
   | dipole moment | =     0.0064 a.u. =     0.0162 debye 
 
 ------------------------------------------------------------------------------
                     quadrupole moment
 ------------------------------------------------------------------------------
  xx     203.737965    -240.857974     -37.120009
  yy     168.562777    -197.548243     -28.985465
  zz     389.830956    -432.121075     -42.290120
  xy     -54.203142      51.745961      -2.457182
  xz    -240.888752     247.273279       6.384528
  yz     -62.975606      62.497813      -0.477793
 
     1/3  trace=     -36.131865
     anisotropy=      16.614512
 
 ==============================================================================
 

    ridft profiling
  --------------------------------------------------------------------
             module   cpu total (s)       %  wall total (s)       %

               RIDFT         15296.8  100.00         15343.7  100.00
         Ridft_b_scf          6323.2   41.34          6344.3   41.35
        b_scf_prelim             0.0    0.00             0.0    0.00
        b_scf_molinp             0.0    0.00             0.0    0.00
         b_scf_init0             0.0    0.00             0.0    0.00
        b_scf_auxbas             0.0    0.00             0.0    0.00
      b_scf_symmetry             0.0    0.00             0.0    0.00
         b_scf_cosmo             0.0    0.00             0.0    0.00
        b_scf_params          2635.1   17.23          2656.8   17.32
          b_scf_ri-j          3490.6   22.82          3490.1   22.75
    b_scf_ri-j_auxpq          3490.4   22.82          3489.9   22.74
     ri-j_auxpq_chol             6.0    0.04             6.0    0.04
         b_scf_1elec             3.3    0.02             3.3    0.02
       b_scf_moinput           194.2    1.27           194.1    1.27
     moinput_orthmos           193.9    1.27           193.9    1.26
    b_scf_dft-dstmax             0.0    0.00             0.0    0.00
           Ridft_scf          8971.3   58.65          8997.1   58.64
          Scf_b_loop             0.0    0.00             0.0    0.00
                noga             0.0    0.00             0.0    0.00
            Scf_loop          8957.0   58.55          8981.8   58.54
     scf_loop_mkdmat            31.9    0.21            34.8    0.23
       scf_loop_ri-j          2062.6   13.48          2062.3   13.44
      parlp1.bc.dens             4.6    0.03             4.6    0.03
        parlp1.gs.gp            40.3    0.26            40.3    0.26
        parlp2.bc.gq             0.0    0.00             0.0    0.00
        scf_loop_dft          4447.5   29.07          4446.7   28.98
      pardft.bc.dens             0.0    0.00             0.0    0.00
        dft_grid_con            63.1    0.41            63.1    0.41
           dft_xcrhf          4249.2   27.78          4248.5   27.69
          dft_getval           179.6    1.17           179.4    1.17
          funct2 dst             4.4    0.03             4.5    0.03
      funct2 f2loop1            21.0    0.14            21.1    0.14
      funct2 f2loop2            72.7    0.48            72.8    0.47
          funct2 s+c            55.3    0.36            55.3    0.36
        funct2 cmf_2            50.9    0.33            51.0    0.33
          dft_mkdens          1874.5   12.25          1874.2   12.21
         dft_gga-fun             1.0    0.01             0.9    0.01
          dft_mkfock          2187.7   14.30          2187.6   14.26
     pardft.red.fock           375.2    2.45           375.1    2.44
     scf_loop_energy             0.6    0.00             0.6    0.00
     scf_loop_mkfock             1.1    0.01             1.1    0.01
       scf_loop_diis          1095.4    7.16          1101.5    7.18
       scf_loop_diag           763.6    4.99           763.0    4.97
         diag_tritrn           228.6    1.49           228.3    1.49
          diag_rdiag           532.3    3.48           532.1    3.47
     scf_loop_modump           256.4    1.68           273.8    1.78
      scf_loop_ortho           286.4    1.87           286.3    1.87
          Scf_a_loop            14.3    0.09            15.2    0.10
         Ridft_a_scf             2.2    0.01             2.3    0.02
         a_scf_fanal             2.2    0.01             2.2    0.01
 


    ------------------------------------------------------------------------
         total  cpu-time :  4 hours 15 minutes and 18 seconds
         total wall-time :  4 hours 16 minutes and  5 seconds
    ------------------------------------------------------------------------


   ****  ridft : all done  ****


    2015-10-19 02:45:51.004 

