           Doing BLAS/Lapack in the master proc. with  8 CPUs.
           SMPCPUS    set: Shared-memory Parallelization with   8 CPUs.

           SMP Parallelization Reference:
           C. van Wullen, J. Comput. Chem. 32 (2011) 1195--1201
 operating system is UNIX !

 ridft (c-12-14.gp.local) : TURBOMOLE V7.2 ( 21454 ) 4 Oct 2017 at 12:48:15
 Copyright (C) 2017 TURBOMOLE GmbH, Karlsruhe


    2018-04-29 16:16:48.801 



                                  r i d f t

                        DFT program with RI approximation 
                                for coulomb part 




                                                 
                                 References:     
                                                 
          TURBOMOLE:                             
              R. Ahlrichs, M. Baer, M. Haeser, H. Horn, and
              C. Koelmel
              Electronic structure calculations on workstation
              computers: the program system TURBOMOLE
              Chem. Phys. Lett. 162: 165 (1989)
          Density Functional:                              
              O. Treutler and R. Ahlrichs                      
              Efficient Molecular Numerical Integration Schemes
              J. Chem. Phys. 102: 346 (1995)                   
          Parallel Version:                                
              Performance of parallel TURBOMOLE for Density    
              Functional Calculations                          
              M. v. Arnim and R. Ahlrichs                      
              J. Comp. Chem. 19: 1746 (1998)                   
          RI-J Method:                                     
              Auxiliary Basis Sets to approximate Coulomb      
              Potentials                                       
              Chem. Phys. Lett. 240: 283 (1995)                
              K. Eichkorn, O. Treutler, H. Oehm, M. Haeser     
              and R. Ahlrichs                                  
              Chem. Phys. Lett. 242: 652 (1995)                
                                                           
              Auxiliary Basis Sets for Main Row Atoms and their
              Use to approximate Coulomb Potentials            
              K. Eichkorn, F. Weigend, O. Treutler and         
              R. Ahlrichs                                      
              Theo. Chem. Acc. 97: 119 (1997)                   
                                                           
              Accurate Coulomb-fitting basis sets for H to Rn 
              F. Weigend                                        
              Phys. Chem. Chem. Phys. 8: 1057 (2006)            
                                                           
          Multipole accelerated RI-J (MARI-J):             
              Fast evaluation of the Coulomb potential for     
              electron densities using multipole accelerated   
              resolution of identity approximation             
              M. Sierka, A. Hogekamp and R. Ahlrichs           
              J. Chem. Phys. 118: 9136 (2003)                  
          RI-JK Method:                                     
              A fully direct RI-HF algorithm: Implementation,
              optimised auxiliary basis sets, demonstration of
              accuracy and efficiency                         
              F. Weigend                                      
              Phys. Chem. Chem. Phys. 4: 4285 (2002)           
          Two-component HF and DFT with spin-orbit coupling:  
              Self-consistent treatment of spin-orbit         
              interactions with efficient Hartree-Fock and    
              density functional methods                      
              M. K. Armbruster, F. Weigend, C. van Wüllen and 
              W. Klopper                                      
              Phys. Chem. Chem. Phys. 10: 1748 (2008)         
          Relativistic all-electron 2c calculations           
              An efficient implementation of two-component    
              relativistic exact-decoupling methods for large 
              molecules                                       
              D. Peng, N. Middendorf, F. Weigend, M. Reiher   
              J. Chem. Phys. 138, 184105 (2013)               
                                         




              +--------------------------------------------------+
              |      general information about current run       |
              +--------------------------------------------------+

 

 DENSITY CONVERGENCE CHECK SWITCHED ON !
 SCF CONVERGENCE IF RMS(delta[D]) <     0.1000000000E-06

 TPSS meta-GGA functional
 exchange:    LDA + TPSS
 correlation: LDA (PW) + TPSS
 A DFT calculation using the RI-J approximation will be carried out.
 Allocatable memory for RI due to $ricore (MB):                  5000


              +--------------------------------------------------+
              | Atomic coordinate, charge and isotop information |
              +--------------------------------------------------+

                    atomic coordinates            atom    charge  isotop
         -1.14553187    0.10558668    1.11305796    c      0.000     0
         -3.15213248    0.10540182    1.11307065    h      0.000     0
          1.14488817    0.10495703    1.11355182    c      0.000     0
          3.15145502    0.10367658    1.11442430    h      0.000     0
         -4.78177039   -0.65659669    7.97183645    c      6.000     0
         -4.79758103   -1.90750758    6.33455772    h      1.000     0
         -4.87988181   -1.84007399    9.65480911    h      1.000     0
         -6.48708688    0.49406522    7.90992595    h      1.000     0
         -2.39970989    0.95836462    7.99275434    c      6.000     0
         -2.43117698    2.23014884    9.61869194    h      1.000     0
         -2.35196220    2.15685919    6.31317310    h      1.000     0
          0.00008851   -0.62585138    8.06920384    c      6.000     0
          0.00009368   -1.79330462    9.77574256    h      1.000     0
          0.00021530   -1.92654828    6.46437057    h      1.000     0
          2.39984900    0.95844979    7.99291851    c      6.000     0
          2.43127104    2.23017333    9.61887913    h      1.000     0
          2.35233200    2.15686179    6.31332767    h      1.000     0
          4.78189130   -0.65657929    7.97223278    c      6.000     0
          4.79772676   -1.90754540    6.33501360    h      1.000     0
          6.48714004    0.49413418    7.91038892    h      1.000     0
          4.87981167   -1.83995364    9.65528627    h      1.000     0
 
       center of nuclear mass  :   -0.00003380    0.01027140    6.17266054
       center of nuclear charge:    0.00007126   -0.03776116    7.99756767

              +--------------------------------------------------+
              |               basis set information              |
              +--------------------------------------------------+

              we will work with the 1s 3p 5d 7f 9g ... basis set
              ...i.e. with spherical basis functions...

   type   atoms  prim   cont   basis
   ---------------------------------------------------------------------------
    c        7     77     55   cc-pVQZ   [5s4p3d2f1g|21s6p3d2f1g]
    h       14     32     30   cc-pVQZ   [4s3p2d1f|6s3p2d1f]
   ---------------------------------------------------------------------------
   total:   21    987    805
   ---------------------------------------------------------------------------

   total number of primitive shells          :   45
   total number of contracted shells         :  245
   total number of cartesian basis functions :  980
   total number of SCF-basis functions       :  805


 integral neglect threshold       :  0.34E-13
 integral storage threshold THIZE :  0.10E-04
 integral storage threshold THIME :         5

 RI-J AUXILIARY BASIS SET information:

              we will work with the 1s 3p 5d 7f 9g ... basis set
              ...i.e. with spherical basis functions...

   type   atoms  prim   cont   basis
   ---------------------------------------------------------------------------
    c        7     70     49   cc-pVQZ   [6s4p3d1f1g|12s5p4d2f1g]
    h       14     16     11   cc-pVQZ   [3s1p1d|5s2p1d]
   ---------------------------------------------------------------------------
   total:   21    714    497
   ---------------------------------------------------------------------------

   total number of primitive shells          :   32
   total number of contracted shells         :  175
   total number of cartesian basis functions :  595
   total number of SCF-basis functions       :  497


 symmetry group of the molecule :   c1 

 the group has the following generators :
   c1(z)

    1 symmetry operations found

 there are 1 real representations :   a   

 maximum number of shells which are related by symmetry :  1


    mo occupation :
   irrep   mo's   occupied
    a      805       21
 
 number of basis functions   :                    805
 number of occupied orbitals :                     21
 
  
           ------------------
           density functional
           ------------------
 Dummy atoms with grid-point found.
 DFT quadrature threshold dgrenze tightened by factor 1/10.

 TPSS meta-GGA functional
 exchange:    LDA + TPSS
 correlation: LDA (PW) + TPSS
 Dummy atoms with grid-point found.
 DFT quadrature threshold dgrenze tightened by factor 1/10.

 Dummy atoms with grid-point found.
 DFT quadrature threshold dgrenze tightened by factor 1/10.


 iterations will be done with small grid
  
 spherical integration : Lebedev's spherical grid
 spherical gridsize    :                     5
    i.e. gridpoints    :                   590
 value for diffuse not defined
 radial integration    : Chebyshev 2nd kind (scaling 3)
 radial gridsize       :                     8
 integration cells     :                    21
 partition function    : becke
 partition sharpness   :                     3
  
 found dummy atom(s) with basis: included in dft

 biggest AO integral is expected to be     3.537514283
  
           ------------------------
               RI-J - INFORMATION
           ------------------------
 Contributions to RI integral batches: 
  neglected integral batches:                  6561
  direct contribution:                            0
  memory contribution:                 23574
 Memory core needed for (P|Q) and Cholesky      2 MByte
 Memory core minimum needed except of (P|Q)     3 MByte
 Total minimum memory core needed (sum)         5 MByte
  
 ****************************************
 Memory allocated for RI-J  1653 MByte
 ****************************************
                                            

          ------------------------
          nuclear repulsion energy  :   185.731971443    
          ------------------------


         -----------------
         -S,T+V- integrals
         -----------------

 1e-integrals will be neglected if expon. factor < 0.341016E-14
 Difference densities >>NOT<< switched on in parallel ridft!

 DIIS switched on: error vector is FDS-SDF
 Max. Iterations for DIIS is     :   4
 DIIS matrix (see manual) 
    Scaling factor of diagonals  :  1.200
    threshold for scaling factor :  0.000

 scf convergence criterion : increment of total energy < .1000000D-08
                  and increment of one-electron energy < .1000000D-05

  MOs are in ASCII format !


 automatic virtual orbital shift switched on 
      shift if e(lumo)-e(homo) < 0.10000000    


 reading orbital data $scfmo  from file mos
 orbital characterization : expanded
 mo provided and orthogonalized by Cholesky decomposition

 DSCF restart information will be dumped onto file mos


 Starting SCF iterations

          Overall gridpoints after grid construction =        100724

 ITERATION  ENERGY          1e-ENERGY        2e-ENERGY     RMS[dD(SAO)]   TOL
   1  -197.18079028780    -623.55714108     240.64437935    0.000D+00 0.340D-13
                            Exc = -30.6031726650     Coul =  271.247552015    
                              N = 42.000356838    
                            current damping = 0.700
 
          max. resid. norm for Fia-block=  2.569D-01 for orbital      7a         
          max. resid. fock norm         =  1.723D+01 for orbital    768a         

 ITERATION  ENERGY          1e-ENERGY        2e-ENERGY     RMS[dD(SAO)]   TOL
   2  -197.72680923724    -629.14930698     245.69052630    0.247D-02 0.340D-13
                            Exc = -31.2752619690     Coul =  276.965788266    
                              N = 42.000291015    
                            current damping = 0.650
 
          Norm of current diis error:  2.5908    
          max. resid. norm for Fia-block=  1.059D-01 for orbital      6a         
          max. resid. fock norm         =  1.506D-01 for orbital    787a         

 ITERATION  ENERGY          1e-ENERGY        2e-ENERGY     RMS[dD(SAO)]   TOL
   3  -197.84507871571    -630.32455852     246.74750836    0.115D-02 0.340D-13
                            Exc = -31.5054922176     Coul =  278.253000578    
                              N = 42.000253909    
                            current damping = 0.550
 
          Norm of current diis error:  1.2097    
          max. resid. norm for Fia-block=  4.780D-02 for orbital     10a         
          max. resid. fock norm         =  5.213D-02 for orbital      6a         

 ITERATION  ENERGY          1e-ENERGY        2e-ENERGY     RMS[dD(SAO)]   TOL
   4  -197.87918496116    -631.51160121     247.90044481    0.583D-03 0.340D-13
                            Exc = -31.6789101016     Coul =  279.579354907    
                              N = 42.000230088    
                            current damping = 0.450
 
          Norm of current diis error: 0.43734    
          max. resid. norm for Fia-block=  1.813D-02 for orbital      6a         
          max. resid. fock norm         =  1.999D-02 for orbital      6a         

 ITERATION  ENERGY          1e-ENERGY        2e-ENERGY     RMS[dD(SAO)]   TOL
   5  -197.88447178142    -631.68328227     248.06683904    0.274D-03 0.340D-13
                            Exc = -31.7313060381     Coul =  279.798145078    
                              N = 42.000219352    
                            current damping = 0.300
 
          Norm of current diis error: 0.15728    
          max. resid. norm for Fia-block=  6.965D-03 for orbital     10a         
          max. resid. fock norm         =  7.344D-03 for orbital    776a         
          mo-orthogonalization: Cholesky decomposition

 ITERATION  ENERGY          1e-ENERGY        2e-ENERGY     RMS[dD(SAO)]   TOL
   6  -197.88519249093    -631.95258324     248.33541931    0.108D-03 0.340D-13
                            Exc = -31.7642511959     Coul =  280.099670503    
                              N = 42.000214637    
                            current damping = 0.150
 
          Norm of current diis error: 0.46445E-01
          max. resid. norm for Fia-block=  1.730D-03 for orbital     20a         
          max. resid. fock norm         =  2.664D-03 for orbital    564a         

 ITERATION  ENERGY          1e-ENERGY        2e-ENERGY     RMS[dD(SAO)]   TOL
   7  -197.88523559669    -631.86899102     248.25178398    0.421D-04 0.340D-13
                            Exc = -31.7627581226     Coul =  280.014542107    
                              N = 42.000213461    
                            current damping = 0.200
 
          Norm of current diis error: 0.26725E-01
          max. resid. norm for Fia-block=  5.901D-04 for orbital     14a         
          max. resid. fock norm         =  1.278D-03 for orbital    801a         

 ITERATION  ENERGY          1e-ENERGY        2e-ENERGY     RMS[dD(SAO)]   TOL
   8  -197.88524906466    -631.90739949     248.29017899    0.742D-05 0.340D-13
                            Exc = -31.7655080971     Coul =  280.055687082    
                              N = 42.000213215    
                            current damping = 0.250
 
          Norm of current diis error: 0.39481E-02
          max. resid. norm for Fia-block=  1.494D-04 for orbital     15a         
          max. resid. fock norm         =  3.014D-04 for orbital    801a         

 ITERATION  ENERGY          1e-ENERGY        2e-ENERGY     RMS[dD(SAO)]   TOL
   9  -197.88524927021    -631.91567965     248.29845894    0.167D-05 0.340D-13
                            Exc = -31.7663045926     Coul =  280.064763531    
                              N = 42.000213148    
                            current damping = 0.100
 
          Norm of current diis error: 0.24498E-02
          max. resid. norm for Fia-block=  5.077D-05 for orbital     15a         
          max. resid. fock norm         =  1.107D-04 for orbital    801a         

 ITERATION  ENERGY          1e-ENERGY        2e-ENERGY     RMS[dD(SAO)]   TOL
  10  -197.88524938583    -631.91280717     248.29558634    0.621D-06 0.340D-13
                            Exc = -31.7660581917     Coul =  280.061644529    
                              N = 42.000213141    
                            current damping = 0.150
 
          Norm of current diis error: 0.73852E-04
          max. resid. norm for Fia-block=  2.966D-06 for orbital     19a         
          max. resid. fock norm         =  1.431D-05 for orbital    776a         
          mo-orthogonalization: Cholesky decomposition

 DENSITY CONVERGED !


 ITERATION  ENERGY          1e-ENERGY        2e-ENERGY     RMS[dD(SAO)]   TOL
  11  -197.88524938594    -631.91276571     248.29554488    0.795D-07 0.340D-13
                            Exc = -31.7660595112     Coul =  280.061604395    
                              N = 42.000213138    
                            current damping = 0.050
 
          Norm of current diis error: 0.36255E-04
          max. resid. norm for Fia-block=  1.282D-06 for orbital     21a         
          max. resid. fock norm         =  2.900D-06 for orbital    787a         

 DENSITY CONVERGED !


 ITERATION  ENERGY          1e-ENERGY        2e-ENERGY     RMS[dD(SAO)]   TOL
  12  -197.88524938596    -631.91275282     248.29553199    0.224D-07 0.340D-13
                            Exc = -31.7660586117     Coul =  280.061590600    
                              N = 42.000213138    
                            current damping = 0.050
 
          Norm of current diis error: 0.22345E-04
          max. resid. norm for Fia-block=  5.677D-07 for orbital     21a         
          max. resid. fock norm         =  1.074D-06 for orbital    803a         

 DENSITY CONVERGED !


 ITERATION  ENERGY          1e-ENERGY        2e-ENERGY     RMS[dD(SAO)]   TOL
  13  -197.88524938597    -631.91278351     248.29556268    0.704D-08 0.340D-13
                            Exc = -31.7660606085     Coul =  280.061623290    
                              N = 42.000213138    
                            current damping = 0.100
 
          Norm of current diis error: 0.68565E-05
          max. resid. norm for Fia-block=  1.567D-07 for orbital     19a         
          max. resid. fock norm         =  3.432D-07 for orbital    776a         

 ENERGY & DENSITY CONVERGED !

          Overall gridpoints after grid construction =        308695

 ITERATION  ENERGY          1e-ENERGY        2e-ENERGY     RMS[dD(SAO)]   TOL
  14  -197.88513217234    -631.91276876     248.29566514    0.291D-08 0.340D-13
                            Exc = -31.7659423932     Coul =  280.061607534    
                              N = 42.000002830    
                            current damping = 0.150
 
          Norm of current diis error: 0.19281E-05
          max. resid. norm for Fia-block=  5.670D-08 for orbital     15a         
          max. resid. fock norm         =  9.789D-08 for orbital    801a         

 End of SCF iterations

   convergence criteria satisfied after    14 iterations


                  ------------------------------------------ 
                 |  total energy      =   -197.88513217234  |
                  ------------------------------------------ 
                 :  kinetic energy    =    196.95899644011  :
                 :  potential energy  =   -394.84412861244  :
                 :  virial theorem    =      1.99531983165  :
                 :  wavefunction norm =      1.00000000000  :
                  .......................................... 


 <geterg> : there is no data group $energy 


 <skperg> : $end is missing 


 orbitals $scfmo  will be written to file mos

    irrep                 17a         18a         19a         20a         21a   
 eigenvalues H         -0.31556    -0.29939    -0.29029    -0.28675    -0.27728
            eV          -8.5869     -8.1470     -7.8993     -7.8029     -7.5452
 occupation              2.0000      2.0000      2.0000      2.0000      2.0000 

    irrep                 22a         23a         24a         25a         26a   
 eigenvalues H          0.00768     0.02662     0.03580     0.04371     0.06100
            eV           0.2089      0.7243      0.9741      1.1894      1.6599
 
 
 
 
 ==============================================================================
                           electrostatic moments
 ==============================================================================

 reference point for electrostatic moments:    0.00000   0.00000   0.00000

 
              nuc           elec       ->  total
 ------------------------------------------------------------------------------
                          charge      
 ------------------------------------------------------------------------------
          42.000000     -42.000000       0.000000
 
 ------------------------------------------------------------------------------
                       dipole moment  
 ------------------------------------------------------------------------------
   x       0.002993      -0.002988       0.000005
   y      -1.585969       1.621540       0.035571
   z     335.897842    -335.896154       0.001688
 
   | dipole moment | =     0.0356 a.u. =     0.0905 debye 
 
 ------------------------------------------------------------------------------
                     quadrupole moment
 ------------------------------------------------------------------------------
  xx     544.211121    -571.222774     -27.011653
  yy      59.261712     -85.788008     -26.526296
  zz    2713.887196   -2739.531460     -25.644263
  xy       0.002937      -0.002763       0.000175
  xz       0.045026      -0.045049      -0.000022
  yz     -12.918032      13.220418       0.302386
 
     1/3  trace=     -26.394071
     anisotropy=       1.309949
 
 ==============================================================================
 


    ------------------------------------------------------------------------
         total  cpu-time : 19 minutes and  9 seconds
         total wall-time :  2 minutes and 45 seconds
    ------------------------------------------------------------------------

   ****  ridft : all done  ****


    2018-04-29 16:19:33.888 

