
   OpenMP run-time library returned nthreads = 28
 operating system is UNIX !

 dscf (c-19-414) : TURBOMOLE V7.3 ( 22142 ) 4 Jul 2018 at 18:12:42
 Copyright (C) 2018 TURBOMOLE GmbH, Karlsruhe


    2019-04-02 18:55:42.653 



                             d s c f - program

                   idea & directorship : reinhart ahlrichs
                   program development : marco haeser
                                         michael baer
                           dft version : oliver treutler


                          quantum chemistry group
                          universitaet  karlsruhe
                                  germany




                          References             
                                                 
          TURBOMOLE:                             
              R. Ahlrichs, M. Baer, M. Haeser, H. Horn, and
              C. Koelmel
              Electronic structure calculations on workstation
              computers: the program system TURBOMOLE
              Chem. Phys. Lett. 162: 165 (1989)
          Density Functional:                              
              O. Treutler and R. Ahlrichs                      
              Efficient Molecular Numerical Integration Schemes
              J. Chem. Phys. 102: 346 (1995)                   
          Parallel Version:                                
              Performance of parallel TURBOMOLE for Density    
              Functional Calculations                          
              M. v. Arnim and R. Ahlrichs                      
              J. Comp. Chem. 19: 1746 (1998)                   
                                         




              +--------------------------------------------------+
              | Atomic coordinate, charge and isotop information |
              +--------------------------------------------------+

                    atomic coordinates            atom    charge  isotop
         -1.13710482   -0.05398970    0.72742157    c      6.000     0
         -3.14400432   -0.05390740    0.71623325    h      1.000     0
          1.15293925   -0.05416644    0.73352325    c      6.000     0
          3.15987805   -0.05441104    0.73315236    h      1.000     0
         -0.01390834    0.18961018    7.82877991    c      6.000     0
         -0.00749389    0.12586017    5.81944000    h      1.000     0
         -0.02134710    0.26196784   10.11811770    c      6.000     0
         -0.02751939    0.32503912   12.12294973    h      1.000     0
 
       center of nuclear mass  :   -0.00484981    0.08583919    4.85164962
       center of nuclear charge:   -0.00484520    0.08582544    4.85138678

              +--------------------------------------------------+
              |               basis set information              |
              +--------------------------------------------------+

              we will work with the 1s 3p 5d 7f 9g ... basis set
              ...i.e. with spherical basis functions...

   type   atoms  prim   cont   basis
   ---------------------------------------------------------------------------
    c        4     50     30   cc-pVTZ   [4s3p2d1f|18s5p2d1f]
    h        4     16     14   cc-pVTZ   [3s2p1d|5s2p1d]
   ---------------------------------------------------------------------------
   total:    8    264    176
   ---------------------------------------------------------------------------

   total number of primitive shells          :   34
   total number of contracted shells         :   64
   total number of cartesian basis functions :  200
   total number of SCF-basis functions       :  176


 integral neglect threshold       :  0.17E-12
 integral storage threshold THIZE :  0.10E-04
 integral storage threshold THIME :         5


 DENSITY CONVERGENCE CHECK SWITCHED ON !
 SCF CONVERGENCE IF RMS(delta[D]) <     0.1000000000E-06


 symmetry group of the molecule :   c1 

 the group has the following generators :
   c1(z)

    1 symmetry operations found

 there are 1 real representations :   a   

 maximum number of shells which are related by symmetry :  1


    mo occupation :
   irrep   mo's   occupied
    a      176       14
 
 number of basis functions   :                    176
 number of occupied orbitals :                     14
 

 automatic virtual orbital shift switched on 
      shift if e(lumo)-e(homo) < 0.10000000    


          ------------------------
          nuclear repulsion energy  :   73.5139162023    
          ------------------------


         -----------------
         -S,T+V- integrals
         -----------------

 1e-integrals will be neglected if expon. factor < 0.167098E-13
 
   Difference densities algorithm switched on.
   The maximal number of linear combinations of
   difference densities is                    20 .

 DIIS switched on: error vector is FDS-SDF
 Max. Iterations for DIIS is     :   5
 DIIS matrix (see manual) 
    Scaling factor of diagonals  :  1.200
    threshold for scaling factor :  0.000

 scf convergence criterion : increment of total energy < .1000000D-08
                  and increment of one-electron energy < .1000000D-05

  MOs are in ASCII format !


 reading orbital data $scfmo  from file mos
 orbital characterization : scfconv=9

 DSCF restart information will be dumped onto file mos

 
                                              current damping :  0.700
 ITERATION  ENERGY          1e-ENERGY        2e-ENERGY     RMS[dD(SAO)]   TOL
   1  -153.66645604773    -351.87151531     124.69114306    0.000D+00 0.167D-12
          max. resid. norm for Fia-block=  9.496D-02 for orbital      2a         
          max. resid. fock norm         =  1.682D-01 for orbital    175a         
          Delta Eig. =    20.8418528645 eV 
 
                                              current damping :  0.650
 ITERATION  ENERGY          1e-ENERGY        2e-ENERGY     RMS[dD(SAO)]   TOL
   2  -153.69193860158    -351.34471766     124.13886286    0.159D-02 0.106D-12
          Norm of current diis error: 0.32412    
          max. resid. norm for Fia-block=  4.612D-02 for orbital      2a         
          max. resid. fock norm         =  5.990D-02 for orbital     83a         
          Delta Eig. =     9.7651916686 eV 
 
                                              current damping :  0.500
 ITERATION  ENERGY          1e-ENERGY        2e-ENERGY     RMS[dD(SAO)]   TOL
   3  -153.69655286335    -351.34274632     124.13227725    0.697D-03 0.815D-13
          Norm of current diis error: 0.13716    
          max. resid. norm for Fia-block=  1.886D-02 for orbital      2a         
          max. resid. fock norm         =  2.486D-02 for orbital     83a         
          Delta Eig. =     4.0635912782 eV 
 
                                              current damping :  0.350
 ITERATION  ENERGY          1e-ENERGY        2e-ENERGY     RMS[dD(SAO)]   TOL
   4  -153.69748212441    -351.30317536     124.09177703    0.316D-03 0.709D-13
          Norm of current diis error: 0.49622E-01
          max. resid. norm for Fia-block=  6.355D-03 for orbital      2a         
          max. resid. fock norm         =  8.529D-03 for orbital     83a         
          Delta Eig. =     1.5027382745 eV 
 
                                              current damping :  0.200
 ITERATION  ENERGY          1e-ENERGY        2e-ENERGY     RMS[dD(SAO)]   TOL
   5  -153.69761348037    -351.28993508     124.07840539    0.124D-03 0.646D-13
          Norm of current diis error: 0.14400E-01
          max. resid. norm for Fia-block=  1.626D-03 for orbital      2a         
          max. resid. fock norm         =  2.304D-03 for orbital     83a         
 mo-orthogonalization: Cholesky decomposition
          Delta Eig. =     0.4351351573 eV 
 
                                              current damping :  0.050
 ITERATION  ENERGY          1e-ENERGY        2e-ENERGY     RMS[dD(SAO)]   TOL
   6  -153.69762589257    -351.28597171     124.07442961    0.392D-04 0.598D-13
          Norm of current diis error: 0.30292E-02
          max. resid. norm for Fia-block=  2.787D-04 for orbital      8a         
          max. resid. fock norm         =  4.110D-04 for orbital     83a         
          Delta Eig. =     0.0821649940 eV 
 
                                              current damping :  0.050
 ITERATION  ENERGY          1e-ENERGY        2e-ENERGY     RMS[dD(SAO)]   TOL
   7  -153.69762658436    -351.28522192     124.07367913    0.915D-05 0.561D-13
          Norm of current diis error: 0.43945E-03
          max. resid. norm for Fia-block=  4.984D-05 for orbital     10a         
          max. resid. fock norm         =  5.071D-05 for orbital     10a         
          Delta Eig. =     0.0038028116 eV 
 
                                              current damping :  0.050
 ITERATION  ENERGY          1e-ENERGY        2e-ENERGY     RMS[dD(SAO)]   TOL
   8  -153.69762660789    -351.28516484     124.07362203    0.146D-05 0.536D-13
          Norm of current diis error: 0.12781E-03
          max. resid. norm for Fia-block=  1.662D-05 for orbital     10a         
          max. resid. fock norm         =  2.436D-05 for orbital      3a         
          Delta Eig. =     0.0002489832 eV 
 
                                              current damping :  0.100
 ITERATION  ENERGY          1e-ENERGY        2e-ENERGY     RMS[dD(SAO)]   TOL
   9  -153.69762660983    -351.28516967     124.07362686    0.506D-06 0.521D-13
          Norm of current diis error: 0.59505E-04
          max. resid. norm for Fia-block=  6.910D-06 for orbital     14a         
          max. resid. fock norm         =  1.519D-05 for orbital      4a         
          Delta Eig. =     0.0000851283 eV 
 
                                              current damping :  0.150
 ITERATION  ENERGY          1e-ENERGY        2e-ENERGY     RMS[dD(SAO)]   TOL
  10  -153.69762661009    -351.28516015     124.07361734    0.156D-06 0.511D-13
          Norm of current diis error: 0.22784E-04
          max. resid. norm for Fia-block=  3.006D-06 for orbital     13a         
          max. resid. fock norm         =  3.501D-06 for orbital      3a         
 mo-orthogonalization: Cholesky decomposition
          Delta Eig. =     0.0000289837 eV 

 DENSITY CONVERGED !

 
                                              current damping :  0.200
 ITERATION  ENERGY          1e-ENERGY        2e-ENERGY     RMS[dD(SAO)]   TOL
  11  -153.69762661015    -351.28516222     124.07361940    0.793D-07 0.496D-13
          Norm of current diis error: 0.10215E-04
          max. resid. norm for Fia-block=  1.882D-06 for orbital     14a         
          max. resid. fock norm         =  1.883D-06 for orbital     14a         
          Delta Eig. =     0.0000082085 eV 

 ENERGY & DENSITY CONVERGED !

 
                                              current damping :  0.250
 ITERATION  ENERGY          1e-ENERGY        2e-ENERGY     RMS[dD(SAO)]   TOL
  12  -153.69762661017    -351.28516180     124.07361898    0.369D-07 0.475D-13
          max. resid. norm for Fia-block=  7.877D-07 for orbital     13a         
          max. resid. fock norm         =  7.877D-07 for orbital     13a         

 convergence criteria satisfied after    12 iterations


                  ------------------------------------------ 
                 |  total energy      =   -153.69762661017  |
                  ------------------------------------------ 
                 :  kinetic energy    =    153.30055330529  :
                 :  potential energy  =   -306.99817991546  :
                 :  virial theorem    =      1.99741652937  :
                 :  wavefunction norm =      1.00000000000  :
                  .......................................... 


 orbitals $scfmo  will be written to file mos

    irrep                 10a         11a         12a         13a         14a   
 eigenvalues H         -0.67170    -0.41959    -0.41844    -0.40061    -0.40033
            eV         -18.2781    -11.4177    -11.3864    -10.9011    -10.8936
 occupation              2.0000      2.0000      2.0000      2.0000      2.0000 

    irrep                 15a         16a         17a         18a         19a   
 eigenvalues H          0.14271     0.15331     0.15928     0.16481     0.16600
            eV           3.8834      4.1719      4.3343      4.4848      4.5172
 
 
 
 
 ==============================================================================
                           electrostatic moments
 ==============================================================================

 reference point for electrostatic moments:    0.00000   0.00000   0.00000

 
              nuc           elec       ->  total
 ------------------------------------------------------------------------------
                          charge      
 ------------------------------------------------------------------------------
          28.000000     -28.000000       0.000000
 
 ------------------------------------------------------------------------------
                       dipole moment  
 ------------------------------------------------------------------------------
   x      -0.135666       0.136172       0.000507
   y       2.403112      -2.408073      -0.004961
   z     135.838830    -135.979269      -0.140439
 
   | dipole moment | =     0.1405 a.u. =     0.3572 debye 
 
 ------------------------------------------------------------------------------
                     quadrupole moment
 ------------------------------------------------------------------------------
  xx      35.607959     -50.774208     -15.166249
  yy       0.789926     -21.518189     -20.728263
  zz    1170.282089   -1186.917727     -16.635638
  xy      -0.068064       0.067149      -0.000915
  xz      -2.150343       2.151377       0.001034
  yz      28.930560     -28.794161       0.136400
 
     1/3  trace=     -17.510050
     anisotropy=       4.997816
 
 ==============================================================================
 


    ------------------------------------------------------------------------
         total  cpu-time :  2 minutes and  1 seconds
         total wall-time :   5.20 seconds
    ------------------------------------------------------------------------

   ****  dscf : all done  ****


    2019-04-02 18:55:47.808 

