 operating system is UNIX !
 hostname is         c-8-20.local

 ridft (c-8-20.local) : TURBOMOLE V7.0( ) 6 Jul 2015 at 18:30:05
 Copyright (C) 2015 TURBOMOLE GmbH, Karlsruhe


    2015-12-22 00:46:44.240 



                                  r i d f t

                        DFT program with RI approximation 
                                for coulomb part 




                                                 
                                 References:     
                                                 
          TURBOMOLE:                             
              R. Ahlrichs, M. Baer, M. Haeser, H. Horn, and
              C. Koelmel
              Electronic structure calculations on workstation
              computers: the program system TURBOMOLE
              Chem. Phys. Lett. 162: 165 (1989)
          Density Functional:                              
              O. Treutler and R. Ahlrichs                      
              Efficient Molecular Numerical Integration Schemes
              J. Chem. Phys. 102: 346 (1995)                   
          Parallel Version:                                
              Performance of parallel TURBOMOLE for Density    
              Functional Calculations                          
              M. v. Arnim and R. Ahlrichs                      
              J. Comp. Chem. 19: 1746 (1998)                   
          RI-J Method:                                     
              Auxiliary Basis Sets to approximate Coulomb      
              Potentials                                       
              Chem. Phys. Lett. 240: 283 (1995)                
              K. Eichkorn, O. Treutler, H. Oehm, M. Haeser     
              and R. Ahlrichs                                  
              Chem. Phys. Lett. 242: 652 (1995)                
                                                           
              Auxiliary Basis Sets for Main Row Atoms and their
              Use to approximate Coulomb Potentials            
              K. Eichkorn, F. Weigend, O. Treutler and         
              R. Ahlrichs                                      
              Theo. Chem. Acc. 97: 119 (1997)                   
                                                           
              Accurate Coulomb-fitting basis sets for H to Rn 
              F. Weigend                                        
              Phys. Chem. Chem. Phys. 8: 1057 (2006)            
                                                           
          Multipole accelerated RI-J (MARI-J):             
              Fast evaluation of the Coulomb potential for     
              electron densities using multipole accelerated   
              resolution of identity approximation             
              M. Sierka, A. Hogekamp and R. Ahlrichs           
              J. Chem. Phys. 118: 9136 (2003)                  
          RI-JK Method:                                     
              A fully direct RI-HF algorithm: Implementation,
              optimised auxiliary basis sets, demonstration of
              accuracy and efficiency                         
              F. Weigend                                      
              Phys. Chem. Chem. Phys. 4: 4285 (2002)           
          Two-component HF and DFT with spin-orbit coupling:  
              Self-consistent treatment of spin-orbit         
              interactions with efficient Hartree-Fock and    
              density functional methods                      
              M. K. Armbruster, F. Weigend, C. van Wüllen and 
              W. Klopper                                      
              Phys. Chem. Chem. Phys. 10: 1748 (2008)         
          Relativistic all-electron 2c calculations           
              An efficient implementation of two-component    
              relativistic exact-decoupling methods for large 
              molecules                                       
              D. Peng, N. Middendorf, F. Weigend, M. Reiher   
              J. Chem. Phys. 138, 184105 (2013)               
                                         


 


              +--------------------------------------------------+
              |      general information about current run       |
              +--------------------------------------------------+

 

 DENSITY CONVERGENCE CHECK SWITCHED ON !
 SCF CONVERGENCE IF RMS(delta[D]) <     0.1000000000E-06

 PBE functional
 exchange:    LDA + PBE
 correlation: LDA (PW) + PBE
 A DFT calculation using the RI-J approximation will be carried out.
 Allocatable memory for RI due to $ricore (MB):        3000


              +--------------------------------------------------+
              | Atomic coordinate, charge and isotop information |
              +--------------------------------------------------+

                    atomic coordinates            atom    charge  isotop
          1.32806431   -2.24208101    6.34843055    c      6.000     0
          2.70844763    0.00000000    6.31729274    c      6.000     0
          1.32806431    2.24208101    6.34843055    c      6.000     0
         -1.32806431    2.24208101    6.34843055    c      6.000     0
         -2.70844763    0.00000000    6.31729274    c      6.000     0
         -1.32806431   -2.24208101    6.34843055    c      6.000     0
          2.15253009    5.01424302    6.35308105    c      6.000     0
          1.32834539    6.10776389    3.80593775    c      6.000     0
         -1.32834539    6.10776389    3.80593775    c      6.000     0
         -2.15253009    5.01424302    6.35308105    c      6.000     0
          2.70851858    6.96044202    1.73275172    c      6.000     0
          1.32795309    7.87035738   -0.31689469    c      6.000     0
         -1.32795309    7.87035738   -0.31689469    c      6.000     0
         -2.70851858    6.96044202    1.73275172    c      6.000     0
          0.00000000    6.12402693    8.04031204    c      6.000     0
          2.15253009   -5.01424302    6.35308105    c      6.000     0
         -2.15253009   -5.01424302    6.35308105    c      6.000     0
         -1.32834539   -6.10776389    3.80593775    c      6.000     0
          1.32834539   -6.10776389    3.80593775    c      6.000     0
         -2.70851858   -6.96044202    1.73275172    c      6.000     0
         -1.32795309   -7.87035738   -0.31689469    c      6.000     0
          1.32795309   -7.87035738   -0.31689469    c      6.000     0
          2.70851858   -6.96044202    1.73275172    c      6.000     0
          0.00000000   -6.12402693    8.04031204    c      6.000     0
          2.15477886   -8.93626657   -2.87481673    c      6.000     0
          1.32961275   -6.99043012   -4.84645710    c      6.000     0
         -1.32961275   -6.99043012   -4.84645710    c      6.000     0
         -2.15477886   -8.93626657   -2.87481673    c      6.000     0
          2.67470496   -5.37441161   -6.40503330    c      6.000     0
          1.31677288   -3.75153361   -8.00542845    c      6.000     0
         -1.31677288   -3.75153361   -8.00542845    c      6.000     0
         -2.67470496   -5.37441161   -6.40503330    c      6.000     0
          0.00000000  -10.91544546   -3.26336622    c      6.000     0
         -2.15477886    8.93626657   -2.87481673    c      6.000     0
         -1.32961275    6.99043012   -4.84645710    c      6.000     0
          1.32961275    6.99043012   -4.84645710    c      6.000     0
          2.15477886    8.93626657   -2.87481673    c      6.000     0
         -2.67470496    5.37441161   -6.40503330    c      6.000     0
         -1.31677288    3.75153361   -8.00542845    c      6.000     0
          1.31677288    3.75153361   -8.00542845    c      6.000     0
          2.67470496    5.37441161   -6.40503330    c      6.000     0
          0.00000000   10.91544546   -3.26336622    c      6.000     0
          4.76401118    0.00000000    6.31253851    h      1.000     0
         -4.76401118    0.00000000    6.31253851    h      1.000     0
          4.10202021    5.38285394    6.91332080    h      1.000     0
         -4.10202021    5.38285394    6.91332080    h      1.000     0
          4.76399407    6.95171137    1.72867501    h      1.000     0
         -4.76399407    6.95171137    1.72867501    h      1.000     0
          0.00000000    5.34317069    9.95578785    h      1.000     0
          0.00000000    8.19220932    8.08192626    h      1.000     0
          4.10202021   -5.38285394    6.91332080    h      1.000     0
         -4.10202021   -5.38285394    6.91332080    h      1.000     0
         -4.76399407   -6.95171137    1.72867501    h      1.000     0
          4.76399407   -6.95171137    1.72867501    h      1.000     0
          0.00000000   -5.34317069    9.95578785    h      1.000     0
          0.00000000   -8.19220932    8.08192626    h      1.000     0
          4.10387934   -9.59505171   -3.00191777    h      1.000     0
         -4.10387934   -9.59505171   -3.00191777    h      1.000     0
          4.72914806   -5.35846141   -6.40861026    h      1.000     0
          2.33198939   -2.48127973   -9.25759256    h      1.000     0
         -2.33198939   -2.48127973   -9.25759256    h      1.000     0
         -4.72914806   -5.35846141   -6.40861026    h      1.000     0
          0.00000000  -12.39110662   -1.81451860    h      1.000     0
          0.00000000  -11.73911387   -5.16086456    h      1.000     0
         -4.10387934    9.59505171   -3.00191777    h      1.000     0
          4.10387934    9.59505171   -3.00191777    h      1.000     0
         -4.72914806    5.35846141   -6.40861026    h      1.000     0
         -2.33198939    2.48127973   -9.25759256    h      1.000     0
          2.33198939    2.48127973   -9.25759256    h      1.000     0
          4.72914806    5.35846141   -6.40861026    h      1.000     0
          0.00000000   12.39110662   -1.81451860    h      1.000     0
          0.00000000   11.73911387   -5.16086456    h      1.000     0
 
       center of nuclear mass  :    0.00000000    0.00000000    0.11018997
       center of nuclear charge:    0.00000000   -0.00000000    0.09494256

              +--------------------------------------------------+
              |               basis set information              |
              +--------------------------------------------------+

              we will work with the 1s 3p 5d 7f 9g ... basis set
              ...i.e. with spherical basis functions...

   type   atoms  prim   cont   basis
   ---------------------------------------------------------------------------
    c       42     46     31   def2-TZVP   [5s3p2d1f|11s6p2d1f]
    h       30      8      6   def2-TZVP   [3s1p|5s1p]
   ---------------------------------------------------------------------------
   total:   72   2172   1482
   ---------------------------------------------------------------------------

   total number of primitive shells          :   26
   total number of contracted shells         :  582
   total number of cartesian basis functions : 1692
   total number of SCF-basis functions       : 1482


 integral neglect threshold       :  0.20E-13
 integral storage threshold THIZE :  0.10E-04
 integral storage threshold THIME :         5

 RI-J AUXILIARY BASIS SET information:

              we will work with the 1s 3p 5d 7f 9g ... basis set
              ...i.e. with spherical basis functions...

   type   atoms  prim   cont   basis
   ---------------------------------------------------------------------------
    c       42     70     49   def2-TZVP   [6s4p3d1f1g|12s5p4d2f1g]
    h       30     16     11   def2-TZVP   [3s1p1d|5s2p1d]
   ---------------------------------------------------------------------------
   total:   72   3420   2388
   ---------------------------------------------------------------------------

   total number of primitive shells          :   32
   total number of contracted shells         :  780
   total number of cartesian basis functions : 2922
   total number of SCF-basis functions       : 2388


 symmetry group of the molecule :   c1 

 the group has the following generators :
   c1(z)

    1 symmetry operations found

 there are 1 real representations :   a   

 maximum number of shells which are related by symmetry :  1


    mo occupation :
   irrep   mo's   occupied
    a     1482      141
 
 number of basis functions   :         1482
 number of occupied orbitals :          141
 
  
           ------------------
           density functional
           ------------------
 PBE functional
 exchange:    LDA + PBE
 correlation: LDA (PW) + PBE
 spherical integration : Lebedev's spherical grid
 spherical gridsize    :           6
    i.e. gridpoints    :         974
 value for diffuse not defined
 radial integration    : Chebyshev 2nd kind (scaling 3)
 radial gridsize       :          10
 integration cells     :          72
 partition function    : becke
 partition sharpness   :           3
  

 biggest AO integral is expected to be     5.725698708
  
           ------------------------
               RI-J - INFORMATION
           ------------------------
 Contributions to RI integral batches: 
  neglected integral batches:       80983
  direct contribution:              56121
  memory contribution:       32549
 Memory core needed for (P|Q) and Cholesky     44 MByte
 Memory core minimum needed except of (P|Q)     3 MByte
 Total minimum memory core needed (sum)        47 MByte
  
 ****************************************
 Memory allocated for RI-J  2330 MByte
 ****************************************
                                            

          ------------------------
          nuclear repulsion energy  :   4512.28300354    
          ------------------------

 
          -----------------
          -S,T+V- integrals
          -----------------

 1e-integrals will be neglected if expon. factor < 0.197515E-14
 
   Difference densities algorithm switched on.
   The maximal number of linear combinations of
   difference densities is          20 .

 automatic virtual orbital shift switched on 
      shift if e(lumo)-e(homo) < 0.10000000    


 DIIS switched on: error vector is FDS-SDF
 Max. Iterations for DIIS is     :   4
 DIIS matrix (see manual) 
    Scaling factor of diagonals  :  1.200
    threshold for scaling factor :  0.000

 scf convergence criterion : increment of total energy < .1000000D-08
                  and increment of one-electron energy < .1000000D-05


 <geterg> : there is no data group $energy 

  MOs are in ASCII format !


 reading orbital data $scfmo  from file mos . 

 orbital characterization : expanded
 
 mo provided and orthogonalized by Cholesky decomposition

 DSCF restart information will be dumped onto file mos


 Starting SCF iterations

          Overall gridpoints after grid construction =       2279422

 ITERATION  ENERGY          1e-ENERGY        2e-ENERGY     RMS[dD(SAO)]   TOL
   1  -1612.2581326556    -11096.264033     4971.7228965    0.000D+00 0.197D-13
                            Exc = -231.627053827     Coul =  5203.34995030    
                              N = 282.00001195    
                            current damping = 0.700
 
          max. resid. norm for Fia-block=  2.553D-01 for orbital     46a         
          max. resid. fock norm         =  5.517D+00 for orbital   1110a         

 ITERATION  ENERGY          1e-ENERGY        2e-ENERGY     RMS[dD(SAO)]   TOL
   2  -1615.9314479642    -11148.534551     5020.3200993    0.130D-01 0.190D-13
                            Exc = -235.430271386     Coul =  5255.75037067    
                              N = 282.00000964    
                            current damping = 0.650
 
          Norm of current diis error:  5.3157    
          max. resid. norm for Fia-block=  1.271D-01 for orbital     46a         
          max. resid. fock norm         =  1.476D-01 for orbital    213a         

 ITERATION  ENERGY          1e-ENERGY        2e-ENERGY     RMS[dD(SAO)]   TOL
   3  -1616.6775382652    -11155.958253     5026.9977115    0.570D-02 0.104D-13
                            Exc = -236.394630607     Coul =  5263.39234215    
                              N = 282.00000842    
                            current damping = 0.550
 
          Norm of current diis error:  2.7236    
          max. resid. norm for Fia-block=  6.412D-02 for orbital     46a         
          max. resid. fock norm         =  7.209D-02 for orbital     46a         

 ITERATION  ENERGY          1e-ENERGY        2e-ENERGY     RMS[dD(SAO)]   TOL
   4  -1616.9224595233    -11167.880324     5038.6748611    0.216D-02 0.883D-14
                            Exc = -237.115526645     Coul =  5275.79038773    
                              N = 282.00000762    
                            current damping = 0.450
 
          Norm of current diis error:  1.0627    
          max. resid. norm for Fia-block=  2.494D-02 for orbital     47a         
          max. resid. fock norm         =  3.439D-02 for orbital     48a         

 ITERATION  ENERGY          1e-ENERGY        2e-ENERGY     RMS[dD(SAO)]   TOL
   5  -1616.9573291128    -11167.464214     5038.2238813    0.110D-02 0.796D-14
                            Exc = -237.347071383     Coul =  5275.57095268    
                              N = 282.00000719    
                            current damping = 0.500
 
          Norm of current diis error: 0.66468    
          max. resid. norm for Fia-block=  1.273D-02 for orbital    137a         
          max. resid. fock norm         =  2.001D-02 for orbital   1442a         
          mo-orthogonalization: Cholesky decomposition

 ITERATION  ENERGY          1e-ENERGY        2e-ENERGY     RMS[dD(SAO)]   TOL
   6  -1616.9735118241    -11170.662420     5041.4059048    0.385D-03 0.759D-14
                            Exc = -237.468209952     Coul =  5278.87411477    
                              N = 282.00000696    
                            current damping = 0.550
 
          Norm of current diis error: 0.23068    
          max. resid. norm for Fia-block=  5.098D-03 for orbital    137a         
          max. resid. fock norm         =  1.082D-02 for orbital   1441a         

 ITERATION  ENERGY          1e-ENERGY        2e-ENERGY     RMS[dD(SAO)]   TOL
   7  -1616.9750159899    -11170.703208     5041.4451883    0.168D-03 0.739D-14
                            Exc = -237.487757978     Coul =  5278.93294627    
                              N = 282.00000693    
                            current damping = 0.400
 
          Norm of current diis error: 0.14525    
          max. resid. norm for Fia-block=  2.203D-03 for orbital    141a         
          max. resid. fock norm         =  4.387D-03 for orbital   1476a         

 ITERATION  ENERGY          1e-ENERGY        2e-ENERGY     RMS[dD(SAO)]   TOL
   8  -1616.9758492825    -11170.593873     5041.3350199    0.746D-04 0.727D-14
                            Exc = -237.492323715     Coul =  5278.82734366    
                              N = 282.00000692    
                            current damping = 0.450
 
          Norm of current diis error: 0.36384E-01
          max. resid. norm for Fia-block=  1.035D-03 for orbital    140a         
          max. resid. fock norm         =  2.132D-03 for orbital   1476a         

 ITERATION  ENERGY          1e-ENERGY        2e-ENERGY     RMS[dD(SAO)]   TOL
   9  -1616.9758622325    -11170.640541     5041.3816754    0.310D-04 0.724D-14
                            Exc = -237.495455439     Coul =  5278.87713085    
                              N = 282.00000689    
                            current damping = 0.500
 
          Norm of current diis error: 0.32462E-01
          max. resid. norm for Fia-block=  5.079D-04 for orbital    140a         
          max. resid. fock norm         =  1.098D-03 for orbital   1476a         

 ITERATION  ENERGY          1e-ENERGY        2e-ENERGY     RMS[dD(SAO)]   TOL
  10  -1616.9759011709    -11170.714017     5041.4551119    0.109D-04 0.719D-14
                            Exc = -237.498069669     Coul =  5278.95318158    
                              N = 282.00000689    
                            current damping = 0.350
 
          Norm of current diis error: 0.12421E-01
          max. resid. norm for Fia-block=  2.243D-04 for orbital    137a         
          max. resid. fock norm         =  4.380D-04 for orbital   1442a         
          mo-orthogonalization: Cholesky decomposition

 ITERATION  ENERGY          1e-ENERGY        2e-ENERGY     RMS[dD(SAO)]   TOL
  11  -1616.9759062632    -11170.654985     5041.3960749    0.637D-05 0.714D-14
                            Exc = -237.496426675     Coul =  5278.89250158    
                              N = 282.00000690    
                            current damping = 0.400
 
          Norm of current diis error: 0.52630E-02
          max. resid. norm for Fia-block=  1.021D-04 for orbital    137a         
          max. resid. fock norm         =  1.936D-04 for orbital   1441a         

 ITERATION  ENERGY          1e-ENERGY        2e-ENERGY     RMS[dD(SAO)]   TOL
  12  -1616.9759071864    -11170.663963     5041.4050525    0.211D-05 0.703D-14
                            Exc = -237.496320064     Coul =  5278.90137253    
                              N = 282.00000690    
                            current damping = 0.450
 
          Norm of current diis error: 0.23678E-02
          max. resid. norm for Fia-block=  2.860D-05 for orbital    135a         
          max. resid. fock norm         =  7.007D-05 for orbital   1479a         

 ITERATION  ENERGY          1e-ENERGY        2e-ENERGY     RMS[dD(SAO)]   TOL
  13  -1616.9759074136    -11170.666206     5041.4072948    0.791D-06 0.696D-14
                            Exc = -237.496406910     Coul =  5278.90370167    
                              N = 282.00000690    
                            current damping = 0.300
 
          Norm of current diis error: 0.21311E-03
          max. resid. norm for Fia-block=  5.027D-06 for orbital    121a         
          max. resid. fock norm         =  1.300D-05 for orbital   1447a         

 ITERATION  ENERGY          1e-ENERGY        2e-ENERGY     RMS[dD(SAO)]   TOL
  14  -1616.9759074150    -11170.666058     5041.4071473    0.218D-06 0.691D-14
                            Exc = -237.496433318     Coul =  5278.90358061    
                              N = 282.00000690    
                            current damping = 0.350
 
          Norm of current diis error: 0.13499E-03
          max. resid. norm for Fia-block=  2.267D-06 for orbital    121a         
          max. resid. fock norm         =  5.950D-06 for orbital   1447a         

 DENSITY CONVERGED !


 ITERATION  ENERGY          1e-ENERGY        2e-ENERGY     RMS[dD(SAO)]   TOL
  15  -1616.9759074156    -11170.665891     5041.4069800    0.634D-07 0.689D-14
                            Exc = -237.496434210     Coul =  5278.90341424    
                              N = 282.00000690    
                            current damping = 0.200
 
          Norm of current diis error: 0.34479E-04
          max. resid. norm for Fia-block=  5.523D-07 for orbital    135a         
          max. resid. fock norm         =  7.715D-07 for orbital    136a         
          mo-orthogonalization: Cholesky decomposition

 DENSITY CONVERGED !


 ITERATION  ENERGY          1e-ENERGY        2e-ENERGY     RMS[dD(SAO)]   TOL
  16  -1616.9759074158    -11170.666052     5041.4071413    0.383D-07 0.683D-14
                            Exc = -237.496432197     Coul =  5278.90357345    
                              N = 282.00000690    
                            current damping = 0.250
 
          Norm of current diis error: 0.18839E-04
          max. resid. norm for Fia-block=  2.923D-07 for orbital    141a         
          max. resid. fock norm         =  5.541D-07 for orbital   1476a         

 DENSITY CONVERGED !


 ITERATION  ENERGY          1e-ENERGY        2e-ENERGY     RMS[dD(SAO)]   TOL
  17  -1616.9759074156    -11170.665991     5041.4070796    0.167D-07 0.680D-14
                            Exc = -237.496430927     Coul =  5278.90351052    
                              N = 282.00000690    
                            current damping = 0.300
 
          Norm of current diis error: 0.73678E-05
          max. resid. norm for Fia-block=  1.296D-07 for orbital    140a         
          max. resid. fock norm         =  2.832D-07 for orbital   1476a         

 ENERGY & DENSITY CONVERGED !


 ITERATION  ENERGY          1e-ENERGY        2e-ENERGY     RMS[dD(SAO)]   TOL
  18  -1616.9759074156    -11170.665982     5041.4070708    0.255D-08 0.675D-14
                            Exc = -237.496430881     Coul =  5278.90350169    
                              N = 282.00000690    
                            current damping = 0.150
 
          Norm of current diis error: 0.32828E-05
          max. resid. norm for Fia-block=  5.230D-08 for orbital    140a         
          max. resid. fock norm         =  1.004D-07 for orbital   1476a         

 End of SCF iterations

   convergence criteria satisfied after   18 iterations


                  ------------------------------------------ 
                 |  total energy      =  -1616.97590741558  |
                  ------------------------------------------ 
                 :  kinetic energy    =   1609.31727855691  :
                 :  potential energy  =  -3226.29318597249  :
                 :  virial theorem    =      1.99526360979  :
                 :  wavefunction norm =      1.00000000000  :
                  .......................................... 


 <geterg> : there is no data group $energy 


 <skperg> : $end is missing 


 orbitals $scfmo  will be written to file mos

    irrep                137a        138a        139a        140a        141a   
 eigenvalues H         -0.21339    -0.21034    -0.20160    -0.19138    -0.17753
            eV          -5.8066     -5.7236     -5.4859     -5.2077     -4.8310
 occupation              2.0000      2.0000      2.0000      2.0000      2.0000 

    irrep                142a        143a        144a        145a        146a   
 eigenvalues H         -0.05123    -0.04922    -0.04657    -0.03903    -0.03143
            eV          -1.3940     -1.3393     -1.2672     -1.0620     -0.8554
 
 
 
 
 ==============================================================================
                           electrostatic moments
 ==============================================================================

 reference point for electrostatic moments:    0.00000   0.00000   0.00000

 
              nuc           elec       ->  total
 ------------------------------------------------------------------------------
                          charge      
 ------------------------------------------------------------------------------
         282.000000    -282.000000      -0.000000
 
 ------------------------------------------------------------------------------
                       dipole moment  
 ------------------------------------------------------------------------------
   x       0.000000       0.000000       0.000000
   y       0.000000      -0.000000      -0.000000
   z      26.773801     -26.358235       0.415566
 
   | dipole moment | =     0.4156 a.u. =     1.0563 debye 
 
 ------------------------------------------------------------------------------
                     quadrupole moment
 ------------------------------------------------------------------------------
  xx    1251.529364   -1416.693795    -165.164431
  yy   11859.870680  -12032.992170    -173.121490
  zz    8239.932326   -8418.604698    -178.672372
  xy      -0.000000      -0.000000      -0.000000
  xz       0.000000       0.000000       0.000000
  yz      -0.000000      -0.000000      -0.000000
 
     1/3  trace=    -172.319431
     anisotropy=      11.759922
 
 ==============================================================================
 
 


    ------------------------------------------------------------------------
         total  cpu-time :  1 hours 25 minutes and 49 seconds
         total wall-time :  1 hours 25 minutes and 45 seconds
    ------------------------------------------------------------------------


   ****  ridft : all done  ****


    2015-12-22 02:12:29.535 

