Using Slurm to start processes with PMI2
STARTING ridft ON 8 PROCESSORS!
RUNNING PROGRAM /beegfs/modfac/apps/TURBOMOLE/7.0_intel_GA/bin/em64t-unknown-linux-gnu_mpi/ridft_mpi.
PLEASE WAIT UNTIL ridft HAS FINISHED.
Look for the output in slave1.output.
  this is node-proc. number 1 running on node c-9-331.local
  the total number of node-proc. spawned is            8
  parallel platform: MPP, or cluster with fast interconnect

 ridft (c-9-331.local) : TURBOMOLE V7.0.2( ) 15 Jan 2016 at 17:47:42
 Copyright (C) 2016 TURBOMOLE GmbH, Karlsruhe


    2017-11-02 18:35:40.788 



                                  r i d f t

                        DFT program with RI approximation 
                                for coulomb part 




                                                 
                                 References:     
                                                 
          TURBOMOLE:                             
              R. Ahlrichs, M. Baer, M. Haeser, H. Horn, and
              C. Koelmel
              Electronic structure calculations on workstation
              computers: the program system TURBOMOLE
              Chem. Phys. Lett. 162: 165 (1989)
          Density Functional:                              
              O. Treutler and R. Ahlrichs                      
              Efficient Molecular Numerical Integration Schemes
              J. Chem. Phys. 102: 346 (1995)                   
          Parallel Version:                                
              Performance of parallel TURBOMOLE for Density    
              Functional Calculations                          
              M. v. Arnim and R. Ahlrichs                      
              J. Comp. Chem. 19: 1746 (1998)                   
          RI-J Method:                                     
              Auxiliary Basis Sets to approximate Coulomb      
              Potentials                                       
              Chem. Phys. Lett. 240: 283 (1995)                
              K. Eichkorn, O. Treutler, H. Oehm, M. Haeser     
              and R. Ahlrichs                                  
              Chem. Phys. Lett. 242: 652 (1995)                
                                                           
              Auxiliary Basis Sets for Main Row Atoms and their
              Use to approximate Coulomb Potentials            
              K. Eichkorn, F. Weigend, O. Treutler and         
              R. Ahlrichs                                      
              Theo. Chem. Acc. 97: 119 (1997)                   
                                                           
              Accurate Coulomb-fitting basis sets for H to Rn 
              F. Weigend                                        
              Phys. Chem. Chem. Phys. 8: 1057 (2006)            
                                                           
          Multipole accelerated RI-J (MARI-J):             
              Fast evaluation of the Coulomb potential for     
              electron densities using multipole accelerated   
              resolution of identity approximation             
              M. Sierka, A. Hogekamp and R. Ahlrichs           
              J. Chem. Phys. 118: 9136 (2003)                  
          RI-JK Method:                                     
              A fully direct RI-HF algorithm: Implementation,
              optimised auxiliary basis sets, demonstration of
              accuracy and efficiency                         
              F. Weigend                                      
              Phys. Chem. Chem. Phys. 4: 4285 (2002)           
          Two-component HF and DFT with spin-orbit coupling:  
              Self-consistent treatment of spin-orbit         
              interactions with efficient Hartree-Fock and    
              density functional methods                      
              M. K. Armbruster, F. Weigend, C. van Wüllen and 
              W. Klopper                                      
              Phys. Chem. Chem. Phys. 10: 1748 (2008)         
          Relativistic all-electron 2c calculations           
              An efficient implementation of two-component    
              relativistic exact-decoupling methods for large 
              molecules                                       
              D. Peng, N. Middendorf, F. Weigend, M. Reiher   
              J. Chem. Phys. 138, 184105 (2013)               
                                         


 


              +--------------------------------------------------+
              |      general information about current run       |
              +--------------------------------------------------+

 

 SCF run will be profiled !


 DENSITY CONVERGENCE CHECK SWITCHED ON !
 SCF CONVERGENCE IF RMS(delta[D]) <     0.1000000000E-06

 PBE functional
 exchange:    LDA + PBE
 correlation: LDA (PW) + PBE
 A DFT calculation using the RI-J approximation will be carried out.
 Allocatable memory for RI due to $ricore (MB):       10000


              +--------------------------------------------------+
              | Atomic coordinate, charge and isotop information |
              +--------------------------------------------------+

                    atomic coordinates            atom    charge  isotop
        -10.49964130    9.07910480    0.00000000    c      6.000     0
          2.62586950  -13.63057277    0.00000000    c      6.000     0
          0.28265936  -10.28451263   -2.38172994    c      6.000     0
          0.28265936  -10.28451263    2.38172994    c      6.000     0
         -8.76595169    5.37900619    2.38167817    c      6.000     0
         -8.76595169    5.37900619   -2.38167817    c      6.000     0
          1.88671320  -10.82152476    0.00000000    c      6.000     0
         -8.43321781    7.03764874    0.00000000    c      6.000     0
          5.58516377    3.22863502    0.00000000    c      6.000     0
          3.50107814    7.06918865    0.00000000    c      6.000     0
          7.87144177   -0.49520099    0.00000000    c      6.000     0
          5.87454110   -4.76788865    0.00000000    c      6.000     0
         -1.19768736    7.47290876    0.00000000    c      6.000     0
          5.60938571   -2.03388260    0.00000000    c      6.000     0
          1.03850062    5.87789952    0.00000000    c      6.000     0
         -0.80683004   10.12174826    0.00000000    c      6.000     0
          8.36483599   -5.75151956    0.00000000    c      6.000     0
         -5.76831828    8.16669482    0.00000000    c      6.000     0
          4.19441596   -9.07488372    0.00000000    c      6.000     0
          3.22730485    1.86624501    0.00000000    c      6.000     0
          3.83559177   -6.46114984    0.00000000    c      6.000     0
         -3.68257007    6.55126691    0.00000000    c      6.000     0
          1.73878715   11.06068092    0.00000000    c      6.000     0
         10.44944224   -4.01498742    0.00000000    c      6.000     0
          3.30642068   -0.78909893    0.00000000    c      6.000     0
          0.96638149    3.26104042    0.00000000    c      6.000     0
         -5.33310343   10.79722760    0.00000000    c      6.000     0
          6.69104918  -10.01069643    0.00000000    c      6.000     0
         -2.89835004   11.75882639    0.00000000    c      6.000     0
          8.73948305   -8.38093117    0.00000000    c      6.000     0
          5.66848689    5.78370386    0.00000000    n      7.000     0
          7.84019099    2.02452109    0.00000000    n      7.000     0
          3.78120867    9.67652655    0.00000000    n      7.000     0
         10.27025049   -1.55432551    0.00000000    n      7.000     0
          1.92116253   -5.72491732    0.00000000    h      1.000     0
         -3.99993670    4.52488161    0.00000000    h      1.000     0
         -6.91591921   12.09722151    0.00000000    h      1.000     0
          7.02757178  -12.03110359    0.00000000    h      1.000     0
          1.53645343   -1.82894068    0.00000000    h      1.000     0
         -0.81841822    2.24707185    0.00000000    h      1.000     0
         -2.58391834   13.78902554    0.00000000    h      1.000     0
         10.65567654   -9.12173456    0.00000000    h      1.000     0
         12.35622282   -4.80071036    0.00000000    h      1.000     0
          2.01032301   13.10501484    0.00000000    h      1.000     0
          0.90745001  -14.78326896    0.00000000    h      1.000     0
        -12.35581218    8.16463880    0.00000000    h      1.000     0
         -7.38509811    3.83950501   -2.42904415    h      1.000     0
         -7.38509811    3.83950501    2.42904415    h      1.000     0
         -0.36521733   -8.32073754   -2.42976848    h      1.000     0
         -0.36521733   -8.32073754    2.42976848    h      1.000     0
          3.72704043  -14.12997179   -1.68037194    h      1.000     0
          3.72704043  -14.12997179    1.68037194    h      1.000     0
        -10.38334605   10.28291411    1.68013289    h      1.000     0
        -10.38334605   10.28291411   -1.68013289    h      1.000     0
         -8.53663722    6.50964588    4.09996746    h      1.000     0
         -8.53663722    6.50964588   -4.09996746    h      1.000     0
          1.37770965  -10.64937034   -4.09963997    h      1.000     0
          1.37770965  -10.64937034    4.09963997    h      1.000     0
         -1.38392628  -11.51348175   -2.39285401    h      1.000     0
         -1.38392628  -11.51348175    2.39285401    h      1.000     0
        -10.66107247    4.54481066   -2.39361084    h      1.000     0
        -10.66107247    4.54481066    2.39361084    h      1.000     0
 
       center of nuclear mass  :    1.54630475    0.89407930    0.00000000
       center of nuclear charge:    1.33458195    0.77165841    0.00000000

              +--------------------------------------------------+
              |               basis set information              |
              +--------------------------------------------------+

              we will work with the 1s 3p 5d 7f 9g ... basis set
              ...i.e. with spherical basis functions...

   type   atoms  prim   cont   basis
   ---------------------------------------------------------------------------
    c       30     77     57   def2-QZVP   [7s4p3d2f1g|15s8p3d2f1g]
    n        4     77     57   def2-QZVP   [7s4p3d2f1g|15s8p3d2f1g]
    h       28     33     30   def2-QZVP   [4s3p2d1f|7s3p2d1f]
   ---------------------------------------------------------------------------
   total:   62   3542   2778
   ---------------------------------------------------------------------------

   total number of primitive shells          :   71
   total number of contracted shells         :  858
   total number of cartesian basis functions : 3428
   total number of SCF-basis functions       : 2778


 integral neglect threshold       :  0.97E-14
 integral storage threshold THIZE :  0.10E-04
 integral storage threshold THIME :         5

 RI-J AUXILIARY BASIS SET information:

              we will work with the 1s 3p 5d 7f 9g ... basis set
              ...i.e. with spherical basis functions...

   type   atoms  prim   cont   basis
   ---------------------------------------------------------------------------
    c       30     70     49   def2-QZVP   [6s4p3d1f1g|12s5p4d2f1g]
    n        4     70     49   def2-QZVP   [6s4p3d1f1g|12s5p4d2f1g]
    h       28     16     11   def2-QZVP   [3s1p1d|5s2p1d]
   ---------------------------------------------------------------------------
   total:   62   2828   1974
   ---------------------------------------------------------------------------

   total number of primitive shells          :   56
   total number of contracted shells         :  650
   total number of cartesian basis functions : 2410
   total number of SCF-basis functions       : 1974


 symmetry group of the molecule :   c1 

 the group has the following generators :
   c1(z)

    1 symmetry operations found

 there are 1 real representations :   a   

 maximum number of shells which are related by symmetry :  1


    mo occupation :
   irrep   mo's   occupied
    a     2778      118
 
 number of basis functions   :         2778
 number of occupied orbitals :          118
 
  
           ------------------
           density functional
           ------------------
 PBE functional
 exchange:    LDA + PBE
 correlation: LDA (PW) + PBE
 grinp -> nfun, dfgga, dfhybrid 
           6 T F
 iterations will be done with small grid
  
 spherical integration : Lebedev's spherical grid
 spherical gridsize    :           5
    i.e. gridpoints    :         590
 value for diffuse not defined
 radial integration    : Chebyshev 2nd kind (scaling 3)
 radial gridsize       :           8
 integration cells     :          62
 partition function    : becke
 partition sharpness   :           3
  

 <rddim> : input of entry tasksize
           from data group '$pardft' failed !

               Default values taken

 <rddim> : input of entry memdiv
           from data group '$pardft' failed !

               Default values taken
  RIDFT: memory allocation for DFT gridpoints
  MEMORY is divided by 1 as DEFAULT
 Each node can hold at most  the            1 -th part
 of the gridpoints    

 biggest AO integral is expected to be     6.129561670
  
           ------------------------
               RI-J - INFORMATION
           ------------------------
 
 
 **************************************************
 *      MEMORY ALLOCATION FOR PARALLEL RI-DFT     *
 **************************************************
 
 
MEMORY FOR (MU NU/ ALPHA), SEQUENTIAL RUN               9968 MByte
 
            DIFFERENCE IN MEMORY NEED:       DIAG./SLAVE  
 
      TOTAL DIFFERENCE :                    346 MByte
 
      difference in xcore:                   33 MByte
      difference in fatmat:                 106 MByte
      getcor calls skipped by slaves:       208 MByte
 
 
           Integral memory available for diagonal.      9968 MByte
 
           Integral memory available for slave             0 MByte
 
         MEMORY FOR (MU NU/ ALPHA) ON DIAGONALIZER      9968 MByte
 
         MEMORY FOR (MU NU/ ALPHA) ON ONE SLAVE            0 MByte
 
         TOTAL MEMORY FOR (MU NU/ ALPHA),ALL NODES      9968 MByte
 
 Contributions to RI integral batches: 
  neglected integral batches:      221303
  direct contribution:              91560
  memory contribution:       55648
 Memory core needed for (P|Q) and Cholesky     30 MByte
 Memory core minimum needed except of (P|Q)     7 MByte
 Total minimum memory core needed (sum)        37 MByte
     number of direct tasks:         160
  
 ****************************************
 Memory allocated for RI-J 10004 MByte
 ****************************************
                                            

          ------------------------
          nuclear repulsion energy  :   3159.36319278    
          ------------------------

 
          -----------------
          -S integrals
          -----------------

 1e-integrals will be neglected if expon. factor < 0.974901E-15
 
          -----------------
          -T+V integrals
          -----------------

 1e-integrals will be neglected if expon. factor < 0.974901E-15
 Difference densities >>NOT<< switched on in parallel ridft!

 automatic virtual orbital shift switched on 
      shift if e(lumo)-e(homo) < 0.10000000    


 DIIS switched on: error vector is FDS-SDF
 Max. Iterations for DIIS is     :   4
 DIIS matrix (see manual) 
    Scaling factor of diagonals  :  1.200
    threshold for scaling factor :  0.000

 scf convergence criterion : increment of total energy < .1000000D-08
                  and increment of one-electron energy < .1000000D-05


 <geterg> : there is no data group $energy 

  MOs are in ASCII format !


 reading orbital data $scfmo  from file mos . 

 orbital characterization : expanded
 
 mo provided and orthogonalized by Cholesky decomposition

 DSCF restart information will be dumped onto file mos


 Starting SCF iterations


 ITERATION  ENERGY          1e-ENERGY        2e-ENERGY     RMS[dD(SAO)]   TOL
   1  -1372.9830711526    -8095.2733115     3562.9270475    0.000D+00 0.972D-14
                            Exc = -195.238411534     Coul =  3758.16545906    
                              N = 235.99949228    
                            current damping = 0.700
 
          max. resid. norm for Fia-block=  5.760D-01 for orbital     38a         
          max. resid. fock norm         =  4.516D+01 for orbital   2372a         

 ITERATION  ENERGY          1e-ENERGY        2e-ENERGY     RMS[dD(SAO)]   TOL
   2  -1376.9896338018    -8131.2465603     3594.8937338    0.444D-02 0.972D-14
                            Exc = -197.699986348     Coul =  3792.59372011    
                              N = 235.99955370    
                            current damping = 0.650
 
          Norm of current diis error:  6.7767    
          max. resid. norm for Fia-block=  1.429D-01 for orbital      3a         
          max. resid. fock norm         =  2.697D-01 for orbital   2620a         

 ITERATION  ENERGY          1e-ENERGY        2e-ENERGY     RMS[dD(SAO)]   TOL
   3  -1377.6640678457    -8139.7925652     3602.7653046    0.193D-02 0.972D-14
                            Exc = -198.684972714     Coul =  3801.45027727    
                              N = 235.99958010    
                            current damping = 0.550
 
          Norm of current diis error:  3.3515    
          max. resid. norm for Fia-block=  6.296D-02 for orbital    117a         
          max. resid. fock norm         =  6.527D-02 for orbital     37a         

 ITERATION  ENERGY          1e-ENERGY        2e-ENERGY     RMS[dD(SAO)]   TOL
   4  -1377.8909331346    -8144.4816587     3607.2275328    0.968D-03 0.972D-14
                            Exc = -198.940249439     Coul =  3806.16778225    
                              N = 235.99958870    
                            current damping = 0.450
 
          Norm of current diis error:  1.4183    
          max. resid. norm for Fia-block=  3.214D-02 for orbital     35a         
          max. resid. fock norm         =  7.254D-02 for orbital   2513a         

 ITERATION  ENERGY          1e-ENERGY        2e-ENERGY     RMS[dD(SAO)]   TOL
   5  -1377.9180265082    -8146.8039036     3609.5226843    0.462D-03 0.972D-14
                            Exc = -199.321751174     Coul =  3808.84443546    
                              N = 235.99959304    
                            current damping = 0.350
 
          Norm of current diis error: 0.91827    
          max. resid. norm for Fia-block=  1.928D-02 for orbital    117a         
          max. resid. fock norm         =  2.162D-02 for orbital    117a         
          mo-orthogonalization: Cholesky decomposition

 ITERATION  ENERGY          1e-ENERGY        2e-ENERGY     RMS[dD(SAO)]   TOL
   6  -1377.9360822726    -8146.8371899     3609.5379149    0.479D-03 0.972D-14
                            Exc = -199.265104988     Coul =  3808.80301987    
                              N = 235.99959704    
                            current damping = 0.200
 
          Norm of current diis error: 0.47657    
          max. resid. norm for Fia-block=  7.652D-03 for orbital    116a         
          max. resid. fock norm         =  2.007D-02 for orbital   2753a         
          irrep a   : virtual orbitals shifted by    0.00066

 ITERATION  ENERGY          1e-ENERGY        2e-ENERGY     RMS[dD(SAO)]   TOL
   7  -1377.9395363954    -8147.1764282     3609.8736990    0.101D-03 0.972D-14
                            Exc = -199.297985720     Coul =  3809.17168472    
                              N = 235.99959706    
                            current damping = 0.050
 
          Norm of current diis error: 0.30360    
          max. resid. norm for Fia-block=  4.100D-03 for orbital    117a         
          max. resid. fock norm         =  1.077D-02 for orbital   2752a         
          irrep a   : virtual orbitals shifted by    0.01822

 ITERATION  ENERGY          1e-ENERGY        2e-ENERGY     RMS[dD(SAO)]   TOL
   8  -1377.9413720423    -8147.1811441     3609.8765792    0.556D-04 0.972D-14
                            Exc = -199.309455752     Coul =  3809.18603498    
                              N = 235.99959729    
                            current damping = 0.050
 
          Norm of current diis error: 0.11599    
          max. resid. norm for Fia-block=  1.849D-03 for orbital    117a         
          max. resid. fock norm         =  6.238D-03 for orbital   2777a         
          irrep a   : virtual orbitals shifted by    0.01771

 ITERATION  ENERGY          1e-ENERGY        2e-ENERGY     RMS[dD(SAO)]   TOL
   9  -1377.9414030315    -8147.0702026     3609.7656068    0.269D-04 0.972D-14
                            Exc = -199.309309524     Coul =  3809.07491636    
                              N = 235.99959745    
                            current damping = 0.100
 
          Norm of current diis error: 0.10975    
          max. resid. norm for Fia-block=  1.219D-03 for orbital    113a         
          max. resid. fock norm         =  3.015D-03 for orbital   2778a         
          irrep a   : virtual orbitals shifted by    0.01432

 ITERATION  ENERGY          1e-ENERGY        2e-ENERGY     RMS[dD(SAO)]   TOL
  10  -1377.9416610623    -8147.1774563     3609.8726024    0.122D-04 0.972D-14
                            Exc = -199.306043865     Coul =  3809.17864628    
                              N = 235.99959746    
                            current damping = 0.150
 
          Norm of current diis error: 0.24679E-01
          max. resid. norm for Fia-block=  4.976D-04 for orbital    118a         
          max. resid. fock norm         =  7.752D-04 for orbital    118a         
          irrep a   : virtual orbitals shifted by    0.00995
          mo-orthogonalization: Cholesky decomposition

 ITERATION  ENERGY          1e-ENERGY        2e-ENERGY     RMS[dD(SAO)]   TOL
  11  -1377.9416617541    -8147.1304331     3609.8255785    0.568D-05 0.972D-14
                            Exc = -199.308177850     Coul =  3809.13375639    
                              N = 235.99959738    
                            current damping = 0.200
 
          Norm of current diis error: 0.23237E-01
          max. resid. norm for Fia-block=  2.758D-04 for orbital    117a         
          max. resid. fock norm         =  4.154D-04 for orbital   2612a         
          irrep a   : virtual orbitals shifted by    0.00639

 ITERATION  ENERGY          1e-ENERGY        2e-ENERGY     RMS[dD(SAO)]   TOL
  12  -1377.9416743635    -8147.1425381     3609.8376710    0.467D-05 0.972D-14
                            Exc = -199.306732751     Coul =  3809.14440372    
                              N = 235.99959738    
                            current damping = 0.250
 
          Norm of current diis error: 0.52962E-02
          max. resid. norm for Fia-block=  8.920D-05 for orbital    117a         
          max. resid. fock norm         =  1.987D-04 for orbital     18a         
          irrep a   : virtual orbitals shifted by    0.00237

 ITERATION  ENERGY          1e-ENERGY        2e-ENERGY     RMS[dD(SAO)]   TOL
  13  -1377.9416746933    -8147.1494359     3609.8445684    0.190D-05 0.972D-14
                            Exc = -199.307153921     Coul =  3809.15172232    
                              N = 235.99959742    
                            current damping = 0.100
 
          Norm of current diis error: 0.35545E-02
          max. resid. norm for Fia-block=  4.704D-05 for orbital    117a         
          max. resid. fock norm         =  7.214D-05 for orbital   2758a         
          irrep a   : virtual orbitals shifted by    0.01415

 ITERATION  ENERGY          1e-ENERGY        2e-ENERGY     RMS[dD(SAO)]   TOL
  14  -1377.9416749584    -8147.1478362     3609.8429685    0.873D-06 0.972D-14
                            Exc = -199.307005148     Coul =  3809.14997364    
                              N = 235.99959740    
                            current damping = 0.150
 
          Norm of current diis error: 0.15320E-02
          max. resid. norm for Fia-block=  1.854D-05 for orbital    110a         
          max. resid. fock norm         =  5.057D-05 for orbital   2753a         
          irrep a   : virtual orbitals shifted by    0.01023

 ITERATION  ENERGY          1e-ENERGY        2e-ENERGY     RMS[dD(SAO)]   TOL
  15  -1377.9416750008    -8147.1480311     3609.8431633    0.217D-06 0.972D-14
                            Exc = -199.306994119     Coul =  3809.15015746    
                              N = 235.99959741    
                            current damping = 0.200
 
          Norm of current diis error: 0.63959E-03
          max. resid. norm for Fia-block=  8.744D-06 for orbital    111a         
          max. resid. fock norm         =  1.993D-05 for orbital   2747a         
          irrep a   : virtual orbitals shifted by    0.00633
          mo-orthogonalization: Cholesky decomposition

 DENSITY CONVERGED !


 ITERATION  ENERGY          1e-ENERGY        2e-ENERGY     RMS[dD(SAO)]   TOL
  16  -1377.9416750074    -8147.1470998     3609.8422320    0.772D-07 0.972D-14
                            Exc = -199.307003621     Coul =  3809.14923565    
                              N = 235.99959741    
                            current damping = 0.250
 
          Norm of current diis error: 0.32476E-03
          max. resid. norm for Fia-block=  4.157D-06 for orbital    115a         
          max. resid. fock norm         =  1.035D-05 for orbital   2747a         
          irrep a   : virtual orbitals shifted by    0.00242

 DENSITY CONVERGED !


 ITERATION  ENERGY          1e-ENERGY        2e-ENERGY     RMS[dD(SAO)]   TOL
  17  -1377.9416750093    -8147.1477908     3609.8429230    0.409D-07 0.972D-14
                            Exc = -199.306999220     Coul =  3809.14992223    
                              N = 235.99959741    
                            current damping = 0.300
 
          Norm of current diis error: 0.12129E-03
          max. resid. norm for Fia-block=  1.988D-06 for orbital    117a         
          max. resid. fock norm         =  6.274D-06 for orbital   2775a         

 DENSITY CONVERGED !


 ITERATION  ENERGY          1e-ENERGY        2e-ENERGY     RMS[dD(SAO)]   TOL
  18  -1377.9416750096    -8147.1476629     3609.8427951    0.276D-07 0.972D-14
                            Exc = -199.307000771     Coul =  3809.14979586    
                              N = 235.99959741    
                            current damping = 0.350
 
          Norm of current diis error: 0.75684E-04
          max. resid. norm for Fia-block=  1.068D-06 for orbital    117a         
          max. resid. fock norm         =  2.831D-06 for orbital   2775a         

 ENERGY & DENSITY CONVERGED !


 ITERATION  ENERGY          1e-ENERGY        2e-ENERGY     RMS[dD(SAO)]   TOL
  19  -1377.9417434347    -8147.1476511     3609.8427149    0.119D-07 0.972D-14
                            Exc = -199.307068755     Coul =  3809.14978364    
                              N = 235.99996695    
                            current damping = 0.200
 
          Norm of current diis error: 0.20056E-04
          max. resid. norm for Fia-block=  5.001D-07 for orbital    117a         
          max. resid. fock norm         =  1.022D-06 for orbital   2752a         

 End of SCF iterations

   convergence criteria satisfied after   19 iterations


                  ------------------------------------------ 
                 |  total energy      =  -1377.94174343467  |
                  ------------------------------------------ 
                 :  kinetic energy    =   1371.64832294380  :
                 :  potential energy  =  -2749.59006637848  :
                 :  virial theorem    =      1.99543273834  :
                 :  wavefunction norm =      1.00000000000  :
                  .......................................... 


 <geterg> : there is no data group $energy 


 <skperg> : $end is missing 


 orbitals $scfmo  will be written to file mos

    irrep                114a        115a        116a        117a        118a   
 eigenvalues H         -0.22359    -0.21689    -0.21313    -0.20951    -0.20547
            eV          -6.0842     -5.9019     -5.7996     -5.7011     -5.5912
 occupation              2.0000      2.0000      2.0000      2.0000      2.0000 

    irrep                119a        120a        121a        122a        123a   
 eigenvalues H         -0.12741    -0.09615    -0.08321    -0.07612    -0.05125
            eV          -3.4671     -2.6163     -2.2643     -2.0712     -1.3947
 
 
 ! grave: sending quit signal to master process
 
 
 
 
 ==============================================================================
                           electrostatic moments
 ==============================================================================

 reference point for electrostatic moments:    0.00000   0.00000   0.00000

 
              nuc           elec       ->  total
 ------------------------------------------------------------------------------
                          charge      
 ------------------------------------------------------------------------------
         236.000000    -236.000000       0.000000
 
 ------------------------------------------------------------------------------
                       dipole moment  
 ------------------------------------------------------------------------------
   x     314.961339    -318.469289      -3.507950
   y     182.111386    -184.139198      -2.027812
   z       0.000000       0.000000       0.000000
 
   | dipole moment | =     4.0519 a.u. =    10.2989 debye 
 
 ------------------------------------------------------------------------------
                     quadrupole moment
 ------------------------------------------------------------------------------
  xx    8548.291891   -8713.111302    -164.819411
  yy   14417.536308  -14546.141098    -128.604790
  zz     261.185203    -413.546093    -152.360890
  xy   -5088.833159    5057.419551     -31.413607
  xz       0.000000      -0.000000      -0.000000
  yz       0.000000      -0.000000      -0.000000
 
     1/3  trace=    -148.595030
     anisotropy=      63.055349
 
 ==============================================================================
 

    ridft profiling
  --------------------------------------------------------------------
             module   cpu total (s)       %  wall total (s)       %

               RIDFT          1313.2  100.00          1347.8  100.00
         Ridft_b_scf            45.9    3.49            45.9    3.41
        b_scf_prelim             0.0    0.00             0.0    0.00
        b_scf_molinp             0.0    0.00             0.0    0.00
         b_scf_init0             0.0    0.00             0.0    0.00
        b_scf_auxbas             0.0    0.00             0.0    0.00
      b_scf_symmetry             0.0    0.00             0.0    0.00
         b_scf_cosmo             0.0    0.00             0.0    0.00
        b_scf_params             4.7    0.35             4.7    0.35
          b_scf_ri-j            24.3    1.85            24.3    1.80
    b_scf_ri-j_auxpq            24.3    1.85            24.2    1.80
     ri-j_auxpq_chol             0.3    0.03             0.3    0.02
         b_scf_1elec             1.8    0.14             1.8    0.13
       b_scf_moinput            15.1    1.15            15.1    1.12
     moinput_orthmos            14.9    1.14            14.9    1.11
    b_scf_dft-dstmax             0.0    0.00             0.0    0.00
           Ridft_scf          1266.4   96.44          1301.0   96.53
          Scf_b_loop             0.0    0.00             0.0    0.00
                noga             0.0    0.00             0.0    0.00
            Scf_loop          1263.6   96.22          1297.6   96.27
     scf_loop_mkdmat             6.4    0.49             6.4    0.47
       scf_loop_ri-j           332.3   25.31           332.2   24.65
      parlp1.bc.dens             1.3    0.10             1.3    0.10
        parlp1.gs.gp             5.2    0.40             5.2    0.39
        parlp2.bc.gq             0.0    0.00             0.0    0.00
        scf_loop_dft           681.1   51.87           689.6   51.16
      pardft.bc.dens             0.0    0.00             0.0    0.00
        dft_grid_con             2.0    0.15             2.0    0.15
           dft_xcrhf           645.8   49.18           649.7   48.21
          dft_getval            34.5    2.63            34.7    2.57
          funct2 dst             0.9    0.07             0.9    0.06
      funct2 f2loop1             7.8    0.60             7.8    0.58
      funct2 f2loop2            13.3    1.01            13.5    1.00
          funct2 s+c            11.8    0.90            11.8    0.88
        funct2 cmf_2            10.3    0.79            10.5    0.78
          dft_mkdens           257.5   19.61           259.3   19.24
         dft_gga-fun             0.5    0.04             0.5    0.04
          dft_mkfock           352.5   26.84           354.5   26.31
     pardft.red.fock            77.7    5.92            82.9    6.15
     scf_loop_energy             0.1    0.01             0.1    0.01
     scf_loop_mkfock             0.1    0.01             0.1    0.01
       scf_loop_diis            86.6    6.60            94.7    7.02
       scf_loop_diag            92.8    7.06            97.2    7.21
         diag_tritrn            27.3    2.08            28.1    2.09
          diag_rdiag            65.1    4.96            68.7    5.10
     scf_loop_modump            45.6    3.47            58.8    4.36
      scf_loop_ortho            16.8    1.28            16.8    1.25
          Scf_a_loop             2.8    0.21             3.4    0.25
         Ridft_a_scf             0.9    0.07             0.9    0.07
         a_scf_fanal             0.9    0.07             0.9    0.07
 


    ------------------------------------------------------------------------
         total  cpu-time : 22 minutes and  0 seconds
         total wall-time : 22 minutes and 36 seconds
    ------------------------------------------------------------------------


   ****  ridft : all done  ****


    2017-11-02 18:58:16.332 

