           Doing BLAS/Lapack in the master proc. with  8 CPUs.
           SMPCPUS    set: Shared-memory Parallelization with   8 CPUs.

           SMP Parallelization Reference:
           C. van Wullen, J. Comput. Chem. 32 (2011) 1195--1201
 operating system is UNIX !

 ridft (c-18-134.gp.local) : TURBOMOLE V7.2 ( 21454 ) 4 Oct 2017 at 12:48:15
 Copyright (C) 2017 TURBOMOLE GmbH, Karlsruhe


    2018-04-28 21:00:15.501 



                                  r i d f t

                        DFT program with RI approximation 
                                for coulomb part 




                                                 
                                 References:     
                                                 
          TURBOMOLE:                             
              R. Ahlrichs, M. Baer, M. Haeser, H. Horn, and
              C. Koelmel
              Electronic structure calculations on workstation
              computers: the program system TURBOMOLE
              Chem. Phys. Lett. 162: 165 (1989)
          Density Functional:                              
              O. Treutler and R. Ahlrichs                      
              Efficient Molecular Numerical Integration Schemes
              J. Chem. Phys. 102: 346 (1995)                   
          Parallel Version:                                
              Performance of parallel TURBOMOLE for Density    
              Functional Calculations                          
              M. v. Arnim and R. Ahlrichs                      
              J. Comp. Chem. 19: 1746 (1998)                   
          RI-J Method:                                     
              Auxiliary Basis Sets to approximate Coulomb      
              Potentials                                       
              Chem. Phys. Lett. 240: 283 (1995)                
              K. Eichkorn, O. Treutler, H. Oehm, M. Haeser     
              and R. Ahlrichs                                  
              Chem. Phys. Lett. 242: 652 (1995)                
                                                           
              Auxiliary Basis Sets for Main Row Atoms and their
              Use to approximate Coulomb Potentials            
              K. Eichkorn, F. Weigend, O. Treutler and         
              R. Ahlrichs                                      
              Theo. Chem. Acc. 97: 119 (1997)                   
                                                           
              Accurate Coulomb-fitting basis sets for H to Rn 
              F. Weigend                                        
              Phys. Chem. Chem. Phys. 8: 1057 (2006)            
                                                           
          Multipole accelerated RI-J (MARI-J):             
              Fast evaluation of the Coulomb potential for     
              electron densities using multipole accelerated   
              resolution of identity approximation             
              M. Sierka, A. Hogekamp and R. Ahlrichs           
              J. Chem. Phys. 118: 9136 (2003)                  
          RI-JK Method:                                     
              A fully direct RI-HF algorithm: Implementation,
              optimised auxiliary basis sets, demonstration of
              accuracy and efficiency                         
              F. Weigend                                      
              Phys. Chem. Chem. Phys. 4: 4285 (2002)           
          Two-component HF and DFT with spin-orbit coupling:  
              Self-consistent treatment of spin-orbit         
              interactions with efficient Hartree-Fock and    
              density functional methods                      
              M. K. Armbruster, F. Weigend, C. van Wüllen and 
              W. Klopper                                      
              Phys. Chem. Chem. Phys. 10: 1748 (2008)         
          Relativistic all-electron 2c calculations           
              An efficient implementation of two-component    
              relativistic exact-decoupling methods for large 
              molecules                                       
              D. Peng, N. Middendorf, F. Weigend, M. Reiher   
              J. Chem. Phys. 138, 184105 (2013)               
                                         




              +--------------------------------------------------+
              |      general information about current run       |
              +--------------------------------------------------+

 

 DENSITY CONVERGENCE CHECK SWITCHED ON !
 SCF CONVERGENCE IF RMS(delta[D]) <     0.1000000000E-06

 TPSS meta-GGA functional
 exchange:    LDA + TPSS
 correlation: LDA (PW) + TPSS
 A DFT calculation using the RI-J approximation will be carried out.
 Allocatable memory for RI due to $ricore (MB):                  5000


              +--------------------------------------------------+
              | Atomic coordinate, charge and isotop information |
              +--------------------------------------------------+

                    atomic coordinates            atom    charge  isotop
         -1.00810080   -0.52835517    0.20219268    n      0.000     0
         -1.18892380   -2.35918050    0.72347913    h      0.000     0
         -2.12141343   -0.31399584   -1.33748032    h      0.000     0
         -1.92168032    1.11207757    2.24381065    c      0.000     0
         -1.72486581    3.07184761    1.66205412    h      0.000     0
         -3.88289071    0.78439155    2.79396688    h      0.000     0
         -0.72758874    0.84811078    3.89399648    h      0.000     0
          3.95570402    1.73346725    0.40080572    o      8.000     0
          2.41082001    0.79564817    0.07359415    h      1.000     0
          5.05533840    1.24497707   -0.95175838    h      1.000     0
 
       center of nuclear mass  :    0.48683024    0.77018879    0.87844484
       center of nuclear charge:    3.91117906    1.59083633    0.23282815

              +--------------------------------------------------+
              |               basis set information              |
              +--------------------------------------------------+

              we will work with the 1s 3p 5d 7f 9g ... basis set
              ...i.e. with spherical basis functions...

   type   atoms  prim   cont   basis
   ---------------------------------------------------------------------------
    n        1     77     55   cc-pVQZ   [5s4p3d2f1g|21s6p3d2f1g]
    h        7     32     30   cc-pVQZ   [4s3p2d1f|6s3p2d1f]
    c        1     77     55   cc-pVQZ   [5s4p3d2f1g|21s6p3d2f1g]
    o        1     77     55   cc-pVQZ   [5s4p3d2f1g|21s6p3d2f1g]
   ---------------------------------------------------------------------------
   total:   10    455    375
   ---------------------------------------------------------------------------

   total number of primitive shells          :  111
   total number of contracted shells         :  115
   total number of cartesian basis functions :  455
   total number of SCF-basis functions       :  375


 integral neglect threshold       :  0.73E-13
 integral storage threshold THIZE :  0.10E-04
 integral storage threshold THIME :         5

 RI-J AUXILIARY BASIS SET information:

              we will work with the 1s 3p 5d 7f 9g ... basis set
              ...i.e. with spherical basis functions...

   type   atoms  prim   cont   basis
   ---------------------------------------------------------------------------
    n        1     70     49   cc-pVQZ   [6s4p3d1f1g|12s5p4d2f1g]
    h        7     16     11   cc-pVQZ   [3s1p1d|5s2p1d]
    c        1     70     49   cc-pVQZ   [6s4p3d1f1g|12s5p4d2f1g]
    o        1     70     49   cc-pVQZ   [6s4p3d1f1g|12s5p4d2f1g]
   ---------------------------------------------------------------------------
   total:   10    322    224
   ---------------------------------------------------------------------------

   total number of primitive shells          :   80
   total number of contracted shells         :   80
   total number of cartesian basis functions :  267
   total number of SCF-basis functions       :  224


 symmetry group of the molecule :   c1 

 the group has the following generators :
   c1(z)

    1 symmetry operations found

 there are 1 real representations :   a   

 maximum number of shells which are related by symmetry :  1


    mo occupation :
   irrep   mo's   occupied
    a      375        5
 
 number of basis functions   :                    375
 number of occupied orbitals :                      5
 
  
           ------------------
           density functional
           ------------------
 Dummy atoms with grid-point found.
 DFT quadrature threshold dgrenze tightened by factor 1/10.

 TPSS meta-GGA functional
 exchange:    LDA + TPSS
 correlation: LDA (PW) + TPSS
 Dummy atoms with grid-point found.
 DFT quadrature threshold dgrenze tightened by factor 1/10.

 Dummy atoms with grid-point found.
 DFT quadrature threshold dgrenze tightened by factor 1/10.


 iterations will be done with small grid
  
 spherical integration : Lebedev's spherical grid
 spherical gridsize    :                     5
    i.e. gridpoints    :                   590
 value for diffuse not defined
 radial integration    : Chebyshev 2nd kind (scaling 3)
 radial gridsize       :                     8
 integration cells     :                    10
 partition function    : becke
 partition sharpness   :                     3
  
 found dummy atom(s) with basis: included in dft

 biggest AO integral is expected to be     4.785886462
  
           ------------------------
               RI-J - INFORMATION
           ------------------------
 Contributions to RI integral batches: 
  neglected integral batches:                   713
  direct contribution:                            0
  memory contribution:                  5957
 Memory core needed for (P|Q) and Cholesky      1 MByte
 Memory core minimum needed except of (P|Q)     1 MByte
 Total minimum memory core needed (sum)         2 MByte
  
 ****************************************
 Memory allocated for RI-J   188 MByte
 ****************************************
                                            

          ------------------------
          nuclear repulsion energy  :   9.12312495286    
          ------------------------


         -----------------
         -S,T+V- integrals
         -----------------

 1e-integrals will be neglected if expon. factor < 0.734497E-14
 Difference densities >>NOT<< switched on in parallel ridft!

 DIIS switched on: error vector is FDS-SDF
 Max. Iterations for DIIS is     :   4
 DIIS matrix (see manual) 
    Scaling factor of diagonals  :  1.200
    threshold for scaling factor :  0.000

 scf convergence criterion : increment of total energy < .1000000D-08
                  and increment of one-electron energy < .1000000D-05

  MOs are in ASCII format !


 automatic virtual orbital shift switched on 
      shift if e(lumo)-e(homo) < 0.10000000    


 reading orbital data $scfmo  from file mos
 orbital characterization : expanded
 mo provided and orthogonalized by Cholesky decomposition

 DSCF restart information will be dumped onto file mos


 Starting SCF iterations

          Overall gridpoints after grid construction =         52675

 ITERATION  ENERGY          1e-ENERGY        2e-ENERGY     RMS[dD(SAO)]   TOL
   1  -76.219401015469    -124.31668247     38.974156506    0.000D+00 0.733D-13
                            Exc = -9.50782221223     Coul =  48.4819787186    
                              N = 9.9999943151    
                            current damping = 0.700
 
          max. resid. norm for Fia-block=  3.225D-01 for orbital      4a         
          max. resid. fock norm         =  3.036D+01 for orbital    339a         

 ITERATION  ENERGY          1e-ENERGY        2e-ENERGY     RMS[dD(SAO)]   TOL
   2  -76.422853201749    -123.14127564     37.595297481    0.208D-02 0.733D-13
                            Exc = -9.33690832177     Coul =  46.9322058032    
                              N = 9.9999947490    
                            current damping = 0.650
 
          Norm of current diis error:  1.2660    
          max. resid. norm for Fia-block=  1.391D-01 for orbital      1a         
          max. resid. fock norm         =  1.415D-01 for orbital      1a         

 ITERATION  ENERGY          1e-ENERGY        2e-ENERGY     RMS[dD(SAO)]   TOL
   3  -76.459042855942    -123.24722354     37.665055734    0.123D-02 0.733D-13
                            Exc = -9.36582946552     Coul =  47.0308851991    
                              N = 9.9999954009    
                            current damping = 0.600
 
          Norm of current diis error: 0.56827    
          max. resid. norm for Fia-block=  5.573D-02 for orbital      1a         
          max. resid. fock norm         =  5.744D-02 for orbital      1a         

 ITERATION  ENERGY          1e-ENERGY        2e-ENERGY     RMS[dD(SAO)]   TOL
   4  -76.468932200946    -122.93341859     37.341361439    0.700D-03 0.733D-13
                            Exc = -9.33007348273     Coul =  46.6714349213    
                              N = 9.9999955881    
                            current damping = 0.650
 
          Norm of current diis error: 0.20368    
          max. resid. norm for Fia-block=  2.092D-02 for orbital      1a         
          max. resid. fock norm         =  2.967D-02 for orbital    297a         

 ITERATION  ENERGY          1e-ENERGY        2e-ENERGY     RMS[dD(SAO)]   TOL
   5  -76.470416530292    -123.01167185     37.418130364    0.278D-03 0.733D-13
                            Exc = -9.34432654200     Coul =  46.7624569060    
                              N = 9.9999957880    
                            current damping = 0.700
 
          Norm of current diis error: 0.85036E-01
          max. resid. norm for Fia-block=  8.409D-03 for orbital      1a         
          max. resid. fock norm         =  9.170D-03 for orbital    350a         
          mo-orthogonalization: Cholesky decomposition

 ITERATION  ENERGY          1e-ENERGY        2e-ENERGY     RMS[dD(SAO)]   TOL
   6  -76.470713286149    -122.96551583     37.371677589    0.138D-03 0.733D-13
                            Exc = -9.33927744049     Coul =  46.7109550299    
                              N = 9.9999958135    
                            current damping = 0.750
 
          Norm of current diis error: 0.33546E-01
          max. resid. norm for Fia-block=  3.451D-03 for orbital      1a         
          max. resid. fock norm         =  5.141D-03 for orbital    350a         

 ITERATION  ENERGY          1e-ENERGY        2e-ENERGY     RMS[dD(SAO)]   TOL
   7  -76.470759394340    -122.97068336     37.376799013    0.515D-04 0.733D-13
                            Exc = -9.34053951887     Coul =  46.7173385322    
                              N = 9.9999958393    
                            current damping = 0.800
 
          Norm of current diis error: 0.14377E-01
          max. resid. norm for Fia-block=  1.472D-03 for orbital      1a         
          max. resid. fock norm         =  2.078D-03 for orbital    350a         

 ITERATION  ENERGY          1e-ENERGY        2e-ENERGY     RMS[dD(SAO)]   TOL
   8  -76.470768399518    -122.96797229     37.374078939    0.233D-04 0.733D-13
                            Exc = -9.34040213004     Coul =  46.7144810694    
                              N = 9.9999958471    
                            current damping = 0.850
 
          Norm of current diis error: 0.64064E-02
          max. resid. norm for Fia-block=  6.563D-04 for orbital      1a         
          max. resid. fock norm         =  1.038D-03 for orbital    350a         

 ITERATION  ENERGY          1e-ENERGY        2e-ENERGY     RMS[dD(SAO)]   TOL
   9  -76.470770104868    -122.96870252     37.374807463    0.966D-05 0.733D-13
                            Exc = -9.34060442693     Coul =  46.7154118898    
                              N = 9.9999958517    
                            current damping = 0.900
 
          Norm of current diis error: 0.29569E-02
          max. resid. norm for Fia-block=  3.025D-04 for orbital      1a         
          max. resid. fock norm         =  4.214D-04 for orbital    350a         

 ITERATION  ENERGY          1e-ENERGY        2e-ENERGY     RMS[dD(SAO)]   TOL
  10  -76.470770481094    -122.96751082     37.373615385    0.479D-05 0.733D-13
                            Exc = -9.34048636477     Coul =  46.7141017501    
                              N = 9.9999958527    
                            current damping = 0.950
 
          Norm of current diis error: 0.14677E-02
          max. resid. norm for Fia-block=  1.527D-04 for orbital      2a         
          max. resid. fock norm         =  2.612D-04 for orbital    350a         
          mo-orthogonalization: Cholesky decomposition

 ITERATION  ENERGY          1e-ENERGY        2e-ENERGY     RMS[dD(SAO)]   TOL
  11  -76.470770559361    -122.96815334     37.374257831    0.189D-05 0.733D-13
                            Exc = -9.34059509127     Coul =  46.7148529226    
                              N = 9.9999958540    
                            current damping = 1.000
 
          Norm of current diis error: 0.69941E-03
          max. resid. norm for Fia-block=  6.971D-05 for orbital      1a         
          max. resid. fock norm         =  9.959D-05 for orbital    350a         

 ITERATION  ENERGY          1e-ENERGY        2e-ENERGY     RMS[dD(SAO)]   TOL
  12  -76.470770579999    -122.96784485     37.373949316    0.107D-05 0.733D-13
                            Exc = -9.34056265093     Coul =  46.7145119674    
                              N = 9.9999958542    
                            current damping = 1.050
 
          Norm of current diis error: 0.34185E-03
          max. resid. norm for Fia-block=  3.491D-05 for orbital      1a         
          max. resid. fock norm         =  6.041D-05 for orbital    350a         

 ITERATION  ENERGY          1e-ENERGY        2e-ENERGY     RMS[dD(SAO)]   TOL
  13  -76.470770584543    -122.96788403     37.373988497    0.469D-06 0.733D-13
                            Exc = -9.34057273398     Coul =  46.7145612310    
                              N = 9.9999958544    
                            current damping = 1.100
 
          Norm of current diis error: 0.17242E-03
          max. resid. norm for Fia-block=  1.788D-05 for orbital      1a         
          max. resid. fock norm         =  2.943D-05 for orbital    350a         

 ITERATION  ENERGY          1e-ENERGY        2e-ENERGY     RMS[dD(SAO)]   TOL
  14  -76.470770585738    -122.96786490     37.373969361    0.246D-06 0.733D-13
                            Exc = -9.34057246482     Coul =  46.7145418262    
                              N = 9.9999958545    
                            current damping = 1.150
 
          Norm of current diis error: 0.91010E-04
          max. resid. norm for Fia-block=  9.370D-06 for orbital      1a         
          max. resid. fock norm         =  1.673D-05 for orbital    350a         

 ITERATION  ENERGY          1e-ENERGY        2e-ENERGY     RMS[dD(SAO)]   TOL
  15  -76.470770586055    -122.96787591     37.373980374    0.120D-06 0.733D-13
                            Exc = -9.34057516987     Coul =  46.7145555440    
                              N = 9.9999958545    
                            current damping = 1.200
 
          Norm of current diis error: 0.48400E-04
          max. resid. norm for Fia-block=  5.014D-06 for orbital      1a         
          max. resid. fock norm         =  7.931D-06 for orbital    350a         
          mo-orthogonalization: Cholesky decomposition

 DENSITY CONVERGED !


 ITERATION  ENERGY          1e-ENERGY        2e-ENERGY     RMS[dD(SAO)]   TOL
  16  -76.470770586148    -122.96785997     37.373964429    0.691D-07 0.733D-13
                            Exc = -9.34057361015     Coul =  46.7145380392    
                              N = 9.9999958545    
                            current damping = 1.250
 
          Norm of current diis error: 0.27529E-04
          max. resid. norm for Fia-block=  2.859D-06 for orbital      3a         
          max. resid. fock norm         =  5.342D-06 for orbital    350a         

 ENERGY & DENSITY CONVERGED !

          Overall gridpoints after grid construction =        149207

 ITERATION  ENERGY          1e-ENERGY        2e-ENERGY     RMS[dD(SAO)]   TOL
  17  -76.470765303088    -122.96786844     37.373978188    0.323D-07 0.733D-13
                            Exc = -9.34056981478     Coul =  46.7145480026    
                              N = 9.9999994540    
                            current damping = 1.300
 
          Norm of current diis error: 0.14669E-04
          max. resid. norm for Fia-block=  1.519D-06 for orbital      1a         
          max. resid. fock norm         =  2.613D-06 for orbital    350a         

 End of SCF iterations

   convergence criteria satisfied after    17 iterations


                  ------------------------------------------ 
                 |  total energy      =    -76.47076530309  |
                  ------------------------------------------ 
                 :  kinetic energy    =     76.21881964281  :
                 :  potential energy  =   -152.68958494589  :
                 :  virial theorem    =      1.99670533361  :
                 :  wavefunction norm =      1.00000000000  :
                  .......................................... 


 <geterg> : there is no data group $energy 


 <skperg> : $end is missing 


 orbitals $scfmo  will be written to file mos

    irrep                  1a          2a          3a          4a          5a   
 eigenvalues H        -18.88101    -0.94506    -0.48174    -0.34278    -0.26337
            eV        -513.7825    -25.7166    -13.1088     -9.3277     -7.1667
 occupation              2.0000      2.0000      2.0000      2.0000      2.0000 

    irrep                  6a          7a          8a          9a         10a   
 eigenvalues H         -0.01020     0.04872     0.09194     0.11440     0.11788
            eV          -0.2775      1.3258      2.5019      3.1131      3.2076
 
 
 
 
 ==============================================================================
                           electrostatic moments
 ==============================================================================

 reference point for electrostatic moments:    0.00000   0.00000   0.00000

 
              nuc           elec       ->  total
 ------------------------------------------------------------------------------
                          charge      
 ------------------------------------------------------------------------------
          10.000000     -10.000000       0.000000
 
 ------------------------------------------------------------------------------
                       dipole moment  
 ------------------------------------------------------------------------------
   x      39.111791     -39.239048      -0.127257
   y      15.908363     -16.369399      -0.461036
   z       2.328282      -2.879317      -0.551036
 
   | dipole moment | =     0.7297 a.u. =     1.8546 debye 
 
 ------------------------------------------------------------------------------
                     quadrupole moment
 ------------------------------------------------------------------------------
  xx     156.549254    -161.193962      -4.644708
  yy      26.222294     -32.880308      -6.658015
  zz       2.196422      -7.251382      -5.054960
  xy      63.068612     -64.636079      -1.567466
  xz       8.049712     -10.859305      -2.809593
  yz       4.431906      -5.107427      -0.675521
 
     1/3  trace=      -5.452561
     anisotropy=       5.984733
 
 ==============================================================================
 


    ------------------------------------------------------------------------
         total  cpu-time :  4 minutes and 15 seconds
         total wall-time :  29.02 seconds
    ------------------------------------------------------------------------

   ****  ridft : all done  ****


    2018-04-28 21:00:44.509 

