Using Slurm to start processes with PMI2
STARTING ridft ON 8 PROCESSORS!
RUNNING PROGRAM /beegfs/modfac/apps/TURBOMOLE/7.0_intel_GA/bin/em64t-unknown-linux-gnu_mpi/ridft_mpi.
PLEASE WAIT UNTIL ridft HAS FINISHED.
Look for the output in slave1.output.
  this is node-proc. number 1 running on node c-7-13.local
  the total number of node-proc. spawned is            8
  parallel platform: MPP, or cluster with fast interconnect

 ridft (c-7-13.local) : TURBOMOLE V7.0.2( ) 15 Jan 2016 at 17:47:42
 Copyright (C) 2016 TURBOMOLE GmbH, Karlsruhe


    2018-02-01 20:00:03.566 



                                  r i d f t

                        DFT program with RI approximation 
                                for coulomb part 




                                                 
                                 References:     
                                                 
          TURBOMOLE:                             
              R. Ahlrichs, M. Baer, M. Haeser, H. Horn, and
              C. Koelmel
              Electronic structure calculations on workstation
              computers: the program system TURBOMOLE
              Chem. Phys. Lett. 162: 165 (1989)
          Density Functional:                              
              O. Treutler and R. Ahlrichs                      
              Efficient Molecular Numerical Integration Schemes
              J. Chem. Phys. 102: 346 (1995)                   
          Parallel Version:                                
              Performance of parallel TURBOMOLE for Density    
              Functional Calculations                          
              M. v. Arnim and R. Ahlrichs                      
              J. Comp. Chem. 19: 1746 (1998)                   
          RI-J Method:                                     
              Auxiliary Basis Sets to approximate Coulomb      
              Potentials                                       
              Chem. Phys. Lett. 240: 283 (1995)                
              K. Eichkorn, O. Treutler, H. Oehm, M. Haeser     
              and R. Ahlrichs                                  
              Chem. Phys. Lett. 242: 652 (1995)                
                                                           
              Auxiliary Basis Sets for Main Row Atoms and their
              Use to approximate Coulomb Potentials            
              K. Eichkorn, F. Weigend, O. Treutler and         
              R. Ahlrichs                                      
              Theo. Chem. Acc. 97: 119 (1997)                   
                                                           
              Accurate Coulomb-fitting basis sets for H to Rn 
              F. Weigend                                        
              Phys. Chem. Chem. Phys. 8: 1057 (2006)            
                                                           
          Multipole accelerated RI-J (MARI-J):             
              Fast evaluation of the Coulomb potential for     
              electron densities using multipole accelerated   
              resolution of identity approximation             
              M. Sierka, A. Hogekamp and R. Ahlrichs           
              J. Chem. Phys. 118: 9136 (2003)                  
          RI-JK Method:                                     
              A fully direct RI-HF algorithm: Implementation,
              optimised auxiliary basis sets, demonstration of
              accuracy and efficiency                         
              F. Weigend                                      
              Phys. Chem. Chem. Phys. 4: 4285 (2002)           
          Two-component HF and DFT with spin-orbit coupling:  
              Self-consistent treatment of spin-orbit         
              interactions with efficient Hartree-Fock and    
              density functional methods                      
              M. K. Armbruster, F. Weigend, C. van Wüllen and 
              W. Klopper                                      
              Phys. Chem. Chem. Phys. 10: 1748 (2008)         
          Relativistic all-electron 2c calculations           
              An efficient implementation of two-component    
              relativistic exact-decoupling methods for large 
              molecules                                       
              D. Peng, N. Middendorf, F. Weigend, M. Reiher   
              J. Chem. Phys. 138, 184105 (2013)               
                                         


 


              +--------------------------------------------------+
              |      general information about current run       |
              +--------------------------------------------------+

 

 SCF run will be profiled !


 DENSITY CONVERGENCE CHECK SWITCHED ON !
 SCF CONVERGENCE IF RMS(delta[D]) <     0.1000000000E-06

 PBE functional
 exchange:    LDA + PBE
 correlation: LDA (PW) + PBE
 A DFT calculation using the RI-J approximation will be carried out.
 Allocatable memory for RI due to $ricore (MB):        5000


              +--------------------------------------------------+
              | Atomic coordinate, charge and isotop information |
              +--------------------------------------------------+

                    atomic coordinates            atom    charge  isotop
         39.18725082   24.74029453    4.00810913    c      6.000     0
         37.91546513   22.14948000    3.77378309    c      6.000     0
         35.03363278   22.26853275    4.05535228    c      6.000     0
         33.74294983   19.68527713    3.82102624    c      6.000     0
         30.85922775   19.81566823    4.07613927    c      6.000     0
         29.56287562   17.23808178    3.82858515    c      6.000     0
         26.67726382   17.37792152    4.05535228    c      6.000     0
         25.37335279   14.80600425    3.78890090    c      6.000     0
         22.48774098   14.95907207    3.99866050    c      6.000     0
         21.17249159   12.39093425    3.72653993    c      6.000     0
         18.28876951   12.55534043    3.93818926    c      6.000     0
         16.96218177    9.99287179    3.67551733    c      6.000     0
         14.08034942   10.16483687    3.90606392    c      6.000     0
         12.74809249    7.60425796    3.66417897    c      6.000     0
          9.86814987    7.77811276    3.92685090    c      6.000     0
          8.53400322    5.21564413    3.71142212    c      6.000     0
          5.65595032    5.38571948    4.00621940    c      6.000     0
          4.34070093    2.81380221    3.80590843    c      6.000     0
          2.28845835    3.00088510    4.00432968    h      1.000     0
         38.81875422   25.57933293    5.86570992    h      1.000     0
         41.23760367   24.59667535    3.76811391    h      1.000     0
         38.46915489   26.04798502    2.57191727    h      1.000     0
         38.38222749   21.31233133    1.93318983    h      1.000     0
         38.68647339   20.86635596    5.21186467    h      1.000     0
         34.56120124   23.10568143    5.89594553    h      1.000     0
         34.26073479   23.55165679    2.61538097    h      1.000     0
         34.22860944   18.84245927    1.98610217    h      1.000     0
         34.50073001   18.40782226    5.27044618    h      1.000     0
         30.37356813   20.65281691    5.91484280    h      1.000     0
         30.10333730   21.10257173    2.63238850    h      1.000     0
         30.06365305   16.39337420    1.99744052    h      1.000     0
         30.30175854   15.95495774    5.28556399    h      1.000     0
         26.17648639   18.21318047    5.89027636    h      1.000     0
         25.94216035   18.67049419    2.60593234    h      1.000     0
         25.88168912   13.96507612    1.95964600    h      1.000     0
         26.09711790   13.51532130    5.24776947    h      1.000     0
         21.97940465   15.79433102    5.83169485    h      1.000     0
         21.76586560   16.25353447    2.54546110    h      1.000     0
         21.67893820   11.55189585    1.89728504    h      1.000     0
         21.89247725   11.09647185    5.18351878    h      1.000     0
         17.78610236   13.39626856    5.76933388    h      1.000     0
         17.56878386   13.85169255    2.48310014    h      1.000     0
         17.45540029    9.14816421    1.84248298    h      1.000     0
         17.68594688    8.69651966    5.12871672    h      1.000     0
         13.59468980   11.01521363    5.73909827    h      1.000     0
         13.35280485   11.45740954    2.45286452    h      1.000     0
         13.21863430    6.75577093    1.82925490    h      1.000     0
         13.48697541    6.31168528    5.11359892    h      1.000     0
          9.40327724    8.63604843    5.76177498    h      1.000     0
          9.12359777    9.06312653    2.47743096    h      1.000     0
          8.98375804    4.35959819    1.87271860    h      1.000     0
          9.29178340    3.92874063    5.15517289    h      1.000     0
          5.21186467    6.24932432    5.84114348    h      1.000     0
          4.90005986    6.66506407    2.55868918    h      1.000     0
          4.72431533    1.92563093    1.97476381    h      1.000     0
          5.00966398    1.52500899    5.28367427    h      1.000     0
          9.39004915    8.90249981   -3.87960775    c      6.000     0
          8.09936621    6.31924419   -4.11393379    c      6.000     0
          5.21753385    6.43829693   -3.83236460    c      6.000     0
          3.94574817    3.84748241   -4.06669064    c      6.000     0
         12.27188151    8.77210871   -4.13661050    c      6.000     0
         13.57012336   11.35158488   -3.88716666    c      6.000     0
         16.45384544   11.20985542   -4.11393379    c      6.000     0
         17.75964620   13.78177269   -3.84748241    c      6.000     0
         20.64525800   13.62870487   -4.05724201    c      6.000     0
         21.95861766   16.19684268   -3.78512144    c      6.000     0
         24.84422947   16.03243651   -3.99677077    c      6.000     0
         26.16892749   18.59679487   -3.73409884    c      6.000     0
         29.05075984   18.42294007   -3.96464543    c      6.000     0
         30.38301676   20.98540871   -3.72276048    c      6.000     0
         33.26295939   20.80966418   -3.98732214    c      6.000     0
         34.59710604   23.37213281   -3.77000364    c      6.000     0
         37.47515894   23.20205746   -4.06480091    c      6.000     0
         38.79040833   25.77397473   -3.86637967    c      6.000     0
         40.84265091   25.58878157   -4.06480091    h      1.000     0
         38.12144528   27.06276795   -5.34414550    h      1.000     0
         37.91924458   22.33845262   -5.89972499    h      1.000     0
         38.23104939   21.92271287   -2.61727069    h      1.000     0
         34.14735122   24.23006848   -1.93318983    h      1.000     0
         33.83932586   24.65903631   -5.21564413    h      1.000     0
         33.72783202   19.95172851   -5.82035649    h      1.000     0
         34.00751149   19.52465040   -2.53601247    h      1.000     0
         29.91247496   21.83389574   -1.88783641    h      1.000     0
         29.64413385   22.27609165   -5.17218043    h      1.000     0
         29.53641946   17.57256331   -5.79767978    h      1.000     0
         29.78019413   17.13225712   -2.51144603    h      1.000     0
         25.67759869   19.43961273   -1.90106449    h      1.000     0
         25.44516238   19.89125727   -5.18729823    h      1.000     0
         25.34500689   15.19150838   -5.82791539    h      1.000     0
         25.56232540   14.73797411   -2.54168165    h      1.000     0
         21.45217106   17.03777081   -1.95586655    h      1.000     0
         21.24052173   17.49130509   -5.24210029    h      1.000     0
         21.15359433   12.79344592   -5.89027636    h      1.000     0
         21.36713338   12.33424247   -2.60404261    h      1.000     0
         17.24942014   14.62270082   -2.02011724    h      1.000     0
         17.03588109   15.07245564   -5.30635098    h      1.000     0
         16.95462286   10.37459647   -5.95074759    h      1.000     0
         17.18894890    9.91728275   -2.66451385    h      1.000     0
         13.06934594   12.19440274   -2.05791176    h      1.000     0
         12.82935072   12.63281920   -5.34414550    h      1.000     0
         12.75754112    7.93684976   -5.97531403    h      1.000     0
         13.02777196    7.48520521   -2.69285974    h      1.000     0
          8.90438954    9.74531767   -2.04468368    h      1.000     0
          8.57179774    5.48209551   -5.95641677    h      1.000     0
          8.87037447    5.03612014   -2.67585220    h      1.000     0
          4.75077150    7.27544561   -1.99177134    h      1.000     0
          4.44652559    7.72142098   -5.27044618    h      1.000     0
          1.89539531    3.99110159   -3.82858515    h      1.000     0
          4.31424476    3.00844400   -5.92618115    h      1.000     0
          4.66384410    2.53979192   -2.63238850    h      1.000     0
          8.63037925   10.17995468   -5.33091742    h      1.000     0
         38.40679392   26.66214601   -2.03334532    h      1.000     0
 
       center of nuclear mass  :   21.56596376   14.29404844   -0.02948066
       center of nuclear charge:   21.56595587   14.29405026   -0.02950432

              +--------------------------------------------------+
              |               basis set information              |
              +--------------------------------------------------+

              we will work with the 1s 3p 5d 7f 9g ... basis set
              ...i.e. with spherical basis functions...

   type   atoms  prim   cont   basis
   ---------------------------------------------------------------------------
    c       36     77     55   cc-pVQZ   [5s4p3d2f1g|21s6p3d2f1g]
    h       76     32     30   cc-pVQZ   [4s3p2d1f|6s3p2d1f]
   ---------------------------------------------------------------------------
   total:  112   5204   4260
   ---------------------------------------------------------------------------

   total number of primitive shells          :   45
   total number of contracted shells         : 1300
   total number of cartesian basis functions : 5180
   total number of SCF-basis functions       : 4260


 integral neglect threshold       :  0.64E-14
 integral storage threshold THIZE :  0.10E-04
 integral storage threshold THIME :         5

 RI-J AUXILIARY BASIS SET information:

              we will work with the 1s 3p 5d 7f 9g ... basis set
              ...i.e. with spherical basis functions...

   type   atoms  prim   cont   basis
   ---------------------------------------------------------------------------
    c       36     70     49   cc-pVQZ   [6s4p3d1f1g|12s5p4d2f1g]
    h       76     16     11   cc-pVQZ   [3s1p1d|5s2p1d]
   ---------------------------------------------------------------------------
   total:  112   3736   2600
   ---------------------------------------------------------------------------

   total number of primitive shells          :   32
   total number of contracted shells         :  920
   total number of cartesian basis functions : 3108
   total number of SCF-basis functions       : 2600


 symmetry group of the molecule :   c1 

 the group has the following generators :
   c1(z)

    1 symmetry operations found

 there are 1 real representations :   a   

 maximum number of shells which are related by symmetry :  1


    mo occupation :
   irrep   mo's   occupied
    a     4260      146
 
 number of basis functions   :         4260
 number of occupied orbitals :          146
 
  
           ------------------
           density functional
           ------------------
 PBE functional
 exchange:    LDA + PBE
 correlation: LDA (PW) + PBE
 grinp -> nfun, dfgga, dfhybrid 
           6 T F
 iterations will be done with small grid
  
 spherical integration : Lebedev's spherical grid
 spherical gridsize    :           5
    i.e. gridpoints    :         590
 value for diffuse not defined
 radial integration    : Chebyshev 2nd kind (scaling 3)
 radial gridsize       :           8
 integration cells     :         112
 partition function    : becke
 partition sharpness   :           3
  

 <rddim> : input of entry tasksize
           from data group '$pardft' failed !

               Default values taken

 <rddim> : input of entry memdiv
           from data group '$pardft' failed !

               Default values taken
  RIDFT: memory allocation for DFT gridpoints
  MEMORY is divided by 1 as DEFAULT
 Each node can hold at most  the            1 -th part
 of the gridpoints    

 biggest AO integral is expected to be     3.537514283
  
           ------------------------
               RI-J - INFORMATION
           ------------------------
 
 
 **************************************************
 *      MEMORY ALLOCATION FOR PARALLEL RI-DFT     *
 **************************************************
 
 
MEMORY FOR (MU NU/ ALPHA), SEQUENTIAL RUN               4943 MByte
 
            DIFFERENCE IN MEMORY NEED:       DIAG./SLAVE  
 
      TOTAL DIFFERENCE :                    790 MByte
 
      difference in xcore:                   58 MByte
      difference in fatmat:                 251 MByte
      getcor calls skipped by slaves:       482 MByte
 
 
           Integral memory available for diagonal.      4943 MByte
 
           Integral memory available for slave             0 MByte
 
         MEMORY FOR (MU NU/ ALPHA) ON DIAGONALIZER      4943 MByte
 
         MEMORY FOR (MU NU/ ALPHA) ON ONE SLAVE            0 MByte
 
         TOTAL MEMORY FOR (MU NU/ ALPHA),ALL NODES      4943 MByte
 
 Contributions to RI integral batches: 
  neglected integral batches:      588716
  direct contribution:             207318
  memory contribution:       49616
 Memory core needed for (P|Q) and Cholesky     52 MByte
 Memory core minimum needed except of (P|Q)     7 MByte
 Total minimum memory core needed (sum)        59 MByte
     number of direct tasks:         160
  
 ****************************************
 Memory allocated for RI-J  5002 MByte
 ****************************************
                                            

          ------------------------
          nuclear repulsion energy  :   3874.31352837    
          ------------------------

 
          -----------------
          -S integrals
          -----------------

 1e-integrals will be neglected if expon. factor < 0.645166E-15
 
          -----------------
          -T+V integrals
          -----------------

 1e-integrals will be neglected if expon. factor < 0.645166E-15
 Difference densities >>NOT<< switched on in parallel ridft!

 automatic virtual orbital shift switched on 
      shift if e(lumo)-e(homo) < 0.10000000    


 DIIS switched on: error vector is FDS-SDF
 Max. Iterations for DIIS is     :   4
 DIIS matrix (see manual) 
    Scaling factor of diagonals  :  1.200
    threshold for scaling factor :  0.000

 scf convergence criterion : increment of total energy < .1000000D-08
                  and increment of one-electron energy < .1000000D-05


 <geterg> : there is no data group $energy 

  MOs are in ASCII format !


 reading orbital data $scfmo  from file mos . 

 orbital characterization : expanded
 
 mo provided and orthogonalized by Cholesky decomposition

 DSCF restart information will be dumped onto file mos


 Starting SCF iterations


 ITERATION  ENERGY          1e-ENERGY        2e-ENERGY     RMS[dD(SAO)]   TOL
   1  -1411.7430265008    -9561.1429124     4275.0863575    0.000D+00 0.644D-14
                            Exc = -215.083165863     Coul =  4490.16952341    
                              N = 291.99714507    
                            current damping = 0.700
 
          max. resid. norm for Fia-block=  2.440D-01 for orbital     29a         
          max. resid. fock norm         =  6.380D+00 for orbital   3836a         

 ITERATION  ENERGY          1e-ENERGY        2e-ENERGY     RMS[dD(SAO)]   TOL
   2  -1415.2505808829    -9600.0248353     4310.4607260    0.124D-02 0.644D-14
                            Exc = -219.340606887     Coul =  4529.80133289    
                              N = 291.99768286    
                            current damping = 0.650
 
          Norm of current diis error:  6.4580    
          max. resid. norm for Fia-block=  1.043D-01 for orbital     35a         
          max. resid. fock norm         =  1.217D-01 for orbital     35a         

 ITERATION  ENERGY          1e-ENERGY        2e-ENERGY     RMS[dD(SAO)]   TOL
   3  -1415.9643252553    -9607.7126053     4317.4347516    0.556D-03 0.644D-14
                            Exc = -220.601732042     Coul =  4538.03648368    
                              N = 291.99808872    
                            current damping = 0.550
 
          Norm of current diis error:  3.0410    
          max. resid. norm for Fia-block=  4.774D-02 for orbital     63a         
          max. resid. fock norm         =  5.036D-02 for orbital     41a         

 ITERATION  ENERGY          1e-ENERGY        2e-ENERGY     RMS[dD(SAO)]   TOL
   4  -1416.1671123260    -9615.8924662     4325.4118255    0.286D-03 0.644D-14
                            Exc = -221.577238383     Coul =  4546.98906387    
                              N = 291.99839710    
                            current damping = 0.450
 
          Norm of current diis error:  1.1048    
          max. resid. norm for Fia-block=  1.803D-02 for orbital     63a         
          max. resid. fock norm         =  1.949D-02 for orbital     41a         

 ITERATION  ENERGY          1e-ENERGY        2e-ENERGY     RMS[dD(SAO)]   TOL
   5  -1416.1984848737    -9616.6547354     4326.1427221    0.145D-03 0.644D-14
                            Exc = -221.818469024     Coul =  4547.96119115    
                              N = 291.99854024    
                            current damping = 0.350
 
          Norm of current diis error: 0.41495    
          max. resid. norm for Fia-block=  7.068D-03 for orbital     62a         
          max. resid. fock norm         =  7.165D-03 for orbital     62a         
          mo-orthogonalization: Cholesky decomposition

 ITERATION  ENERGY          1e-ENERGY        2e-ENERGY     RMS[dD(SAO)]   TOL
   6  -1416.2030659648    -9618.6726063     4328.1560120    0.533D-04 0.644D-14
                            Exc = -222.015615507     Coul =  4550.17162749    
                              N = 291.99859993    
                            current damping = 0.250
 
          Norm of current diis error: 0.12789    
          max. resid. norm for Fia-block=  1.946D-03 for orbital    138a         
          max. resid. fock norm         =  2.753D-03 for orbital   4228a         

 ITERATION  ENERGY          1e-ENERGY        2e-ENERGY     RMS[dD(SAO)]   TOL
   7  -1416.2034187137    -9618.0654098     4327.5484627    0.233D-04 0.644D-14
                            Exc = -221.996022603     Coul =  4549.54448532    
                              N = 291.99861343    
                            current damping = 0.300
 
          Norm of current diis error: 0.60306E-01
          max. resid. norm for Fia-block=  6.208D-04 for orbital     66a         
          max. resid. fock norm         =  1.301D-03 for orbital   4228a         

 ITERATION  ENERGY          1e-ENERGY        2e-ENERGY     RMS[dD(SAO)]   TOL
   8  -1416.2034888104    -9618.2763615     4327.7593443    0.390D-05 0.644D-14
                            Exc = -222.012263239     Coul =  4549.77160752    
                              N = 291.99861676    
                            current damping = 0.350
 
          Norm of current diis error: 0.14741E-01
          max. resid. norm for Fia-block=  2.090D-04 for orbital     64a         
          max. resid. fock norm         =  4.482D-04 for orbital   4239a         

 ITERATION  ENERGY          1e-ENERGY        2e-ENERGY     RMS[dD(SAO)]   TOL
   9  -1416.2034924740    -9618.3604269     4327.8434060    0.104D-05 0.644D-14
                            Exc = -222.018690617     Coul =  4549.86209664    
                              N = 291.99861784    
                            current damping = 0.200
 
          Norm of current diis error: 0.64235E-02
          max. resid. norm for Fia-block=  5.801D-05 for orbital    143a         
          max. resid. fock norm         =  1.523D-04 for orbital   4239a         

 ITERATION  ENERGY          1e-ENERGY        2e-ENERGY     RMS[dD(SAO)]   TOL
  10  -1416.2034932506    -9618.3405846     4327.8235629    0.513D-06 0.644D-14
                            Exc = -222.017626060     Coul =  4549.84118899    
                              N = 291.99861799    
                            current damping = 0.250
 
          Norm of current diis error: 0.10596E-02
          max. resid. norm for Fia-block=  1.781D-05 for orbital    146a         
          max. resid. fock norm         =  4.989D-05 for orbital     15a         
          mo-orthogonalization: Cholesky decomposition

 ITERATION  ENERGY          1e-ENERGY        2e-ENERGY     RMS[dD(SAO)]   TOL
  11  -1416.2034932574    -9618.3384121     4327.8213905    0.112D-06 0.644D-14
                            Exc = -222.017392342     Coul =  4549.83878282    
                              N = 291.99861794    
                            current damping = 0.100
 
          Norm of current diis error: 0.88564E-03
          max. resid. norm for Fia-block=  7.638D-06 for orbital    146a         
          max. resid. fock norm         =  2.161D-05 for orbital     16a         

 DENSITY CONVERGED !


 ITERATION  ENERGY          1e-ENERGY        2e-ENERGY     RMS[dD(SAO)]   TOL
  12  -1416.2034932716    -9618.3389083     4327.8218867    0.482D-07 0.644D-14
                            Exc = -222.017472281     Coul =  4549.83935897    
                              N = 291.99861798    
                            current damping = 0.150
 
          Norm of current diis error: 0.12607E-03
          max. resid. norm for Fia-block=  1.665D-06 for orbital    121a         
          max. resid. fock norm         =  4.950D-06 for orbital   4227a         

 DENSITY CONVERGED !


 ITERATION  ENERGY          1e-ENERGY        2e-ENERGY     RMS[dD(SAO)]   TOL
  13  -1416.2034932718    -9618.3396138     4327.8225921    0.118D-07 0.644D-14
                            Exc = -222.017528902     Coul =  4549.84012102    
                              N = 291.99861799    
                            current damping = 0.050
 
          Norm of current diis error: 0.11248E-03
          max. resid. norm for Fia-block=  7.597D-07 for orbital    121a         
          max. resid. fock norm         =  2.205D-06 for orbital   4227a         

 DENSITY CONVERGED !


 ITERATION  ENERGY          1e-ENERGY        2e-ENERGY     RMS[dD(SAO)]   TOL
  14  -1416.2034932720    -9618.3392539     4327.8222323    0.612D-08 0.644D-14
                            Exc = -222.017499704     Coul =  4549.83973198    
                              N = 291.99861798    
                            current damping = 0.100
 
          Norm of current diis error: 0.76945E-05
          max. resid. norm for Fia-block=  1.184D-07 for orbital    146a         
          max. resid. fock norm         =  3.377D-07 for orbital     15a         

 ENERGY & DENSITY CONVERGED !


 ITERATION  ENERGY          1e-ENERGY        2e-ENERGY     RMS[dD(SAO)]   TOL
  15  -1416.2037052372    -9618.3392692     4327.8220356    0.667D-09 0.644D-14
                            Exc = -222.017712483     Coul =  4549.83974808    
                              N = 292.00034271    
                            current damping = 0.150
 
          Norm of current diis error: 0.77927E-05
          max. resid. norm for Fia-block=  6.518D-08 for orbital    146a         
          max. resid. fock norm         =  1.928D-07 for orbital     15a         

 End of SCF iterations

   convergence criteria satisfied after   15 iterations


                  ------------------------------------------ 
                 |  total energy      =  -1416.20370523721  |
                  ------------------------------------------ 
                 :  kinetic energy    =   1408.50741457017  :
                 :  potential energy  =  -2824.71111980738  :
                 :  virial theorem    =      1.99456554828  :
                 :  wavefunction norm =      1.00000000000  :
                  .......................................... 


 <geterg> : there is no data group $energy 


 <skperg> : $end is missing 


 orbitals $scfmo  will be written to file mos

    irrep                142a        143a        144a        145a        146a   
 eigenvalues H         -0.26966    -0.26746    -0.26705    -0.25011    -0.24981
            eV          -7.3378     -7.2779     -7.2670     -6.8058     -6.7978
 occupation              2.0000      2.0000      2.0000      2.0000      2.0000 

    irrep                147a        148a        149a        150a        151a   
 eigenvalues H         -0.00567    -0.00375    -0.00046     0.00435     0.00895
            eV          -0.1543     -0.1020     -0.0124      0.1185      0.2436
 
 
 ! grave: sending quit signal to master process
 
 
 
 
 ==============================================================================
                           electrostatic moments
 ==============================================================================

 reference point for electrostatic moments:    0.00000   0.00000   0.00000

 
              nuc           elec       ->  total
 ------------------------------------------------------------------------------
                          charge      
 ------------------------------------------------------------------------------
         292.000000    -292.000000      -0.000000
 
 ------------------------------------------------------------------------------
                       dipole moment  
 ------------------------------------------------------------------------------
   x    6297.259115   -6297.259106       0.000008
   y    4173.862676   -4173.862650       0.000026
   z      -8.615261       8.616104       0.000843
 
   | dipole moment | =     0.0008 a.u. =     0.0021 debye 
 
 ------------------------------------------------------------------------------
                     quadrupole moment
 ------------------------------------------------------------------------------
  xx  171258.777409 -171445.223896    -186.446487
  yy   72188.152131  -72376.984323    -188.832192
  zz    4661.431464   -4840.339611    -178.908147
  xy  110469.669510 -110471.606712      -1.937201
  xz     211.550196    -211.111670       0.438527
  yz    -664.508355     663.357737      -1.150618
 
     1/3  trace=    -184.728942
     anisotropy=       9.813732
 
 ==============================================================================
 

    ridft profiling
  --------------------------------------------------------------------
             module   cpu total (s)       %  wall total (s)       %

               RIDFT          4065.9  100.00          4064.2  100.00
         Ridft_b_scf           235.8    5.80           235.7    5.80
        b_scf_prelim             0.0    0.00             0.0    0.00
        b_scf_molinp             0.0    0.00             0.0    0.00
         b_scf_init0             0.0    0.00             0.0    0.00
        b_scf_auxbas             0.0    0.00             0.0    0.00
      b_scf_symmetry             0.0    0.00             0.0    0.00
         b_scf_cosmo             0.0    0.00             0.0    0.00
        b_scf_params            14.9    0.37            14.9    0.37
          b_scf_ri-j            37.7    0.93            37.7    0.93
    b_scf_ri-j_auxpq            37.6    0.92            37.6    0.92
     ri-j_auxpq_chol             2.5    0.06             2.5    0.06
         b_scf_1elec             7.9    0.19             7.9    0.19
       b_scf_moinput           175.4    4.31           175.2    4.31
     moinput_orthmos           174.6    4.29           174.5    4.29
    b_scf_dft-dstmax             0.0    0.00             0.0    0.00
           Ridft_scf          3827.7   94.14          3826.1   94.14
          Scf_b_loop             0.0    0.00             0.0    0.00
                noga             0.0    0.00             0.0    0.00
            Scf_loop          3815.2   93.83          3813.5   93.83
     scf_loop_mkdmat            27.4    0.67            27.4    0.67
       scf_loop_ri-j           758.5   18.66           758.1   18.65
      parlp1.bc.dens             1.9    0.05             1.9    0.05
        parlp1.gs.gp             2.5    0.06             2.5    0.06
        parlp2.bc.gq             0.0    0.00             0.0    0.00
        scf_loop_dft          1433.1   35.25          1432.4   35.24
      pardft.bc.dens             0.0    0.00             0.0    0.00
        dft_grid_con             5.8    0.14             5.8    0.14
           dft_xcrhf          1396.8   34.35          1396.1   34.35
          dft_getval            59.8    1.47            59.8    1.47
          funct2 dst             0.8    0.02             0.8    0.02
      funct2 f2loop1            12.1    0.30            12.1    0.30
      funct2 f2loop2            26.7    0.66            26.8    0.66
          funct2 s+c            19.2    0.47            19.2    0.47
        funct2 cmf_2            17.6    0.43            17.6    0.43
          dft_mkdens           602.9   14.83           602.6   14.83
         dft_gga-fun             0.5    0.01             0.5    0.01
          dft_mkfock           732.9   18.03           732.6   18.02
     pardft.red.fock           153.5    3.77           153.4    3.77
     scf_loop_energy             0.2    0.01             0.2    0.01
     scf_loop_mkfock             0.4    0.01             0.4    0.01
       scf_loop_diis           878.7   21.61           878.5   21.62
       scf_loop_diag           442.8   10.89           442.6   10.89
         diag_tritrn           157.3    3.87           157.2    3.87
          diag_rdiag           284.7    7.00           284.6    7.00
     scf_loop_modump           161.2    3.97           161.2    3.97
      scf_loop_ortho           106.4    2.62           106.3    2.62
          Scf_a_loop            12.5    0.31            12.5    0.31
         Ridft_a_scf             2.4    0.06             2.4    0.06
         a_scf_fanal             2.3    0.06             2.4    0.06
 


    ------------------------------------------------------------------------
         total  cpu-time :  1 hours  8 minutes and  3 seconds
         total wall-time :  1 hours  8 minutes and  1 seconds
    ------------------------------------------------------------------------


   ****  ridft : all done  ****


    2018-02-01 21:08:04.630 

