Using Slurm to start processes with PMI2
STARTING ridft ON 8 PROCESSORS!
RUNNING PROGRAM /modfac/apps/TURBOMOLE/7.0_intel_GA/bin/em64t-unknown-linux-gnu_mpi/ridft_mpi.
PLEASE WAIT UNTIL ridft HAS FINISHED.
Look for the output in slave1.output.
  this is node-proc. number 1 running on node c-8-19.local
  the total number of node-proc. spawned is            8
  parallel platform: MPP, or cluster with fast interconnect

 ridft (c-8-19.local) : TURBOMOLE V7.0.2( ) 15 Jan 2016 at 17:47:42
 Copyright (C) 2016 TURBOMOLE GmbH, Karlsruhe


    2016-01-31 11:52:17.324 



                                  r i d f t

                        DFT program with RI approximation 
                                for coulomb part 




                                                 
                                 References:     
                                                 
          TURBOMOLE:                             
              R. Ahlrichs, M. Baer, M. Haeser, H. Horn, and
              C. Koelmel
              Electronic structure calculations on workstation
              computers: the program system TURBOMOLE
              Chem. Phys. Lett. 162: 165 (1989)
          Density Functional:                              
              O. Treutler and R. Ahlrichs                      
              Efficient Molecular Numerical Integration Schemes
              J. Chem. Phys. 102: 346 (1995)                   
          Parallel Version:                                
              Performance of parallel TURBOMOLE for Density    
              Functional Calculations                          
              M. v. Arnim and R. Ahlrichs                      
              J. Comp. Chem. 19: 1746 (1998)                   
          RI-J Method:                                     
              Auxiliary Basis Sets to approximate Coulomb      
              Potentials                                       
              Chem. Phys. Lett. 240: 283 (1995)                
              K. Eichkorn, O. Treutler, H. Oehm, M. Haeser     
              and R. Ahlrichs                                  
              Chem. Phys. Lett. 242: 652 (1995)                
                                                           
              Auxiliary Basis Sets for Main Row Atoms and their
              Use to approximate Coulomb Potentials            
              K. Eichkorn, F. Weigend, O. Treutler and         
              R. Ahlrichs                                      
              Theo. Chem. Acc. 97: 119 (1997)                   
                                                           
              Accurate Coulomb-fitting basis sets for H to Rn 
              F. Weigend                                        
              Phys. Chem. Chem. Phys. 8: 1057 (2006)            
                                                           
          Multipole accelerated RI-J (MARI-J):             
              Fast evaluation of the Coulomb potential for     
              electron densities using multipole accelerated   
              resolution of identity approximation             
              M. Sierka, A. Hogekamp and R. Ahlrichs           
              J. Chem. Phys. 118: 9136 (2003)                  
          RI-JK Method:                                     
              A fully direct RI-HF algorithm: Implementation,
              optimised auxiliary basis sets, demonstration of
              accuracy and efficiency                         
              F. Weigend                                      
              Phys. Chem. Chem. Phys. 4: 4285 (2002)           
          Two-component HF and DFT with spin-orbit coupling:  
              Self-consistent treatment of spin-orbit         
              interactions with efficient Hartree-Fock and    
              density functional methods                      
              M. K. Armbruster, F. Weigend, C. van Wüllen and 
              W. Klopper                                      
              Phys. Chem. Chem. Phys. 10: 1748 (2008)         
          Relativistic all-electron 2c calculations           
              An efficient implementation of two-component    
              relativistic exact-decoupling methods for large 
              molecules                                       
              D. Peng, N. Middendorf, F. Weigend, M. Reiher   
              J. Chem. Phys. 138, 184105 (2013)               
                                         


 


              +--------------------------------------------------+
              |      general information about current run       |
              +--------------------------------------------------+

 

 SCF run will be profiled !


 DENSITY CONVERGENCE CHECK SWITCHED ON !
 SCF CONVERGENCE IF RMS(delta[D]) <     0.1000000000E-06

 PBE functional
 exchange:    LDA + PBE
 correlation: LDA (PW) + PBE
 A DFT calculation using the RI-J approximation will be carried out.
 Allocatable memory for RI due to $ricore (MB):        8000


              +--------------------------------------------------+
              | Atomic coordinate, charge and isotop information |
              +--------------------------------------------------+

                    atomic coordinates            atom    charge  isotop
         -1.45507023   -0.18116804   -9.52270793    c      6.000     0
          1.50694321   -0.19354575   -9.48385516    c      6.000     0
          2.12405217    2.03944913   -8.00569248    n      7.000     0
          0.01645951    3.36017873   -7.21206420    c      6.000     0
         -2.08591750    2.09778498   -8.13413717    n      7.000     0
         -2.11122093   -2.53465187   -8.30614004    n      7.000     0
         -0.00725655   -4.02169626   -7.73304279    c      6.000     0
          2.12063177   -2.59098460   -8.33444814    n      7.000     0
         -0.03645282   -6.16685667   -6.93790273    o      8.000     0
         -0.00895730    5.31224693   -5.97635338    o      8.000     0
          4.64216894   -3.65890664   -8.16070672    c      6.000     0
          4.65250574    3.05453442   -7.73168219    c      6.000     0
         -9.05653139   -0.26688602   -3.51065762    c      6.000     0
         -7.56616108   -0.22542543   -6.07306957    c      6.000     0
         -6.12363864    2.11449016   -5.91062871    n      7.000     0
         -9.37086843    3.09775246    0.00000000    c      6.000     0
         -8.30425031    2.09292838   -2.31070042    n      7.000     0
         -8.17098683   -2.54512095   -2.30450212    n      7.000     0
         -6.52184173   -3.94132621   -3.81932549    c      6.000     0
         -6.11014599   -2.52684730   -6.00348985    n      7.000     0
         -5.67367595   -6.01403452   -3.35445286    o      8.000     0
         -5.63975536    5.48396634   -3.13932644    o      8.000     0
         -4.64532478   -3.53892792   -8.09163723    c      6.000     0
         -4.58761254    3.15924415   -7.92668303    c      6.000     0
          9.10583434   -0.57311614    3.51303868    c      6.000     0
          7.58458591   -0.42533956    6.04999601    c      6.000     0
          6.13149990    1.88976393    5.75576565    n      7.000     0
          6.82701360    3.27045453    3.63360320    c      6.000     0
          8.57312055    1.83190051    2.31408303    n      7.000     0
          8.06121263   -2.79176801    2.29739675    n      7.000     0
          6.45233760   -4.16066672    3.87110398    c      6.000     0
          6.15124754   -2.74246505    6.07186014    n      7.000     0
          5.54266123   -6.21721787    3.44175821    o      8.000     0
          6.07316405    5.37345516    3.07906307    o      8.000     0
          4.64216894   -3.65890664    8.16070672    c      6.000     0
          4.65250574    3.05453442    7.73168219    c      6.000     0
          7.58458591   -0.42533956   -6.04999601    c      6.000     0
          9.10583434   -0.57311614   -3.51303868    c      6.000     0
          8.57312055    1.83190051   -2.31408303    n      7.000     0
          6.82701360    3.27045453   -3.63360320    c      6.000     0
          6.13149990    1.88976393   -5.75576565    n      7.000     0
          6.15124754   -2.74246505   -6.07186014    n      7.000     0
          6.45233760   -4.16066672   -3.87110398    c      6.000     0
          8.06121263   -2.79176801   -2.29739675    n      7.000     0
          5.54266123   -6.21721787   -3.44175821    o      8.000     0
          6.07316405    5.37345516   -3.07906307    o      8.000     0
          9.04266080   -3.90976778    0.00000000    c      6.000     0
          9.71687729    2.74495949    0.00000000    c      6.000     0
         -7.56616108   -0.22542543    6.07306957    c      6.000     0
         -9.05653139   -0.26688602    3.51065762    c      6.000     0
         -8.30425031    2.09292838    2.31070042    n      7.000     0
         -6.57074784    3.43610792    3.71760153    c      6.000     0
         -6.12363864    2.11449016    5.91062871    n      7.000     0
         -6.11014599   -2.52684730    6.00348985    n      7.000     0
         -6.52184173   -3.94132621    3.81932549    c      6.000     0
         -8.17098683   -2.54512095    2.30450212    n      7.000     0
         -5.67367595   -6.01403452    3.35445286    o      8.000     0
         -5.63975536    5.48396634    3.13932644    o      8.000     0
         -9.20056631   -3.60705255    0.00000000    c      6.000     0
         -6.57074784    3.43610792   -3.71760153    c      6.000     0
          1.50694321   -0.19354575    9.48385516    c      6.000     0
         -1.45507023   -0.18116804    9.52270793    c      6.000     0
         -2.08591750    2.09778498    8.13413717    n      7.000     0
          0.01645951    3.36017873    7.21206420    c      6.000     0
          2.12405217    2.03944913    8.00569248    n      7.000     0
          2.12063177   -2.59098460    8.33444814    n      7.000     0
         -0.00725655   -4.02169626    7.73304279    c      6.000     0
         -2.11122093   -2.53465187    8.30614004    n      7.000     0
         -0.03645282   -6.16685667    6.93790273    o      8.000     0
         -0.00895730    5.31224693    5.97635338    o      8.000     0
         -4.64532478   -3.53892792    8.09163723    c      6.000     0
         -4.58761254    3.15924415    7.92668303    c      6.000     0
         -2.26134078   -0.09000766  -11.43386356    h      1.000     0
          2.36251671   -0.04667624  -11.36963176    h      1.000     0
          5.65623377   -3.29653275   -9.93270291    h      1.000     0
          4.39138338   -5.68873706   -7.86687320    h      1.000     0
          5.63960418    2.85915564   -9.54699091    h      1.000     0
          4.45818520    5.04774196   -7.22533007    h      1.000     0
        -11.11797694   -0.30458606   -3.74736472    h      1.000     0
         -8.79102487   -0.17697285   -7.74736692    h      1.000     0
         -4.44148002   -5.56620722   -7.74468351    h      1.000     0
         -5.67764437   -3.20047797   -9.85896580    h      1.000     0
          5.63960418    2.85915564    9.54699091    h      1.000     0
         -5.58166518    2.89152665   -9.72543775    h      1.000     0
         11.15295577   -0.78688196    3.78716235    h      1.000     0
          8.79329254   -0.30078771    7.73402545    h      1.000     0
          5.65623377   -3.29653275    9.93270291    h      1.000     0
          4.39138338   -5.68873706    7.86687320    h      1.000     0
         -4.36645789    5.17032849   -7.51661246    h      1.000     0
          4.45818520    5.04774196    7.22533007    h      1.000     0
          8.79329254   -0.30078771   -7.73402545    h      1.000     0
         11.15295577   -0.78688196   -3.78716235    h      1.000     0
          8.44329636   -5.88825435    0.00000000    h      1.000     0
         11.11502896   -3.77504920    0.00000000    h      1.000     0
          9.49052589    4.79718317    0.00000000    h      1.000     0
         11.72369085    2.23367519    0.00000000    h      1.000     0
         -8.79102487   -0.17697285    7.74736692    h      1.000     0
        -11.11797694   -0.30458606    3.74736472    h      1.000     0
        -11.26238981   -3.37189503    0.00000000    h      1.000     0
         -8.69678423   -5.61186301    0.00000000    h      1.000     0
        -11.41194273    2.74206821    0.00000000    h      1.000     0
         -8.99305549    5.12697818    0.00000000    h      1.000     0
          2.36251671   -0.04667624   11.36963176    h      1.000     0
         -2.26134078   -0.09000766   11.43386356    h      1.000     0
         -4.44148002   -5.56620722    7.74468351    h      1.000     0
         -5.67764437   -3.20047797    9.85896580    h      1.000     0
         -4.36645789    5.17032849    7.51661246    h      1.000     0
         -5.58166518    2.89152665    9.72543775    h      1.000     0
 
       center of nuclear mass  :    0.02764207   -0.32379759    0.00000000
       center of nuclear charge:    0.02749610   -0.32290736    0.00000000

              +--------------------------------------------------+
              |               basis set information              |
              +--------------------------------------------------+

              we will work with the 1s 3p 5d 7f 9g ... basis set
              ...i.e. with spherical basis functions...

   type   atoms  prim   cont   basis
   ---------------------------------------------------------------------------
    c       36     50     30   cc-pVTZ   [4s3p2d1f|18s5p2d1f]
    n       24     50     30   cc-pVTZ   [4s3p2d1f|18s5p2d1f]
    o       12     50     30   cc-pVTZ   [4s3p2d1f|18s5p2d1f]
    h       36     16     14   cc-pVTZ   [3s2p1d|5s2p1d]
   ---------------------------------------------------------------------------
   total:  108   4176   2664
   ---------------------------------------------------------------------------

   total number of primitive shells          :   86
   total number of contracted shells         :  936
   total number of cartesian basis functions : 3060
   total number of SCF-basis functions       : 2664


 integral neglect threshold       :  0.11E-13
 integral storage threshold THIZE :  0.10E-04
 integral storage threshold THIME :         5

 RI-J AUXILIARY BASIS SET information:

              we will work with the 1s 3p 5d 7f 9g ... basis set
              ...i.e. with spherical basis functions...

   type   atoms  prim   cont   basis
   ---------------------------------------------------------------------------
    c       36     70     49   cc-pVTZ   [6s4p3d1f1g|12s5p4d2f1g]
    n       24     70     49   cc-pVTZ   [6s4p3d1f1g|12s5p4d2f1g]
    o       12     70     49   cc-pVTZ   [6s4p3d1f1g|12s5p4d2f1g]
    h       36     16     11   cc-pVTZ   [3s1p1d|5s2p1d]
   ---------------------------------------------------------------------------
   total:  108   5616   3924
   ---------------------------------------------------------------------------

   total number of primitive shells          :   80
   total number of contracted shells         : 1260
   total number of cartesian basis functions : 4824
   total number of SCF-basis functions       : 3924


 symmetry group of the molecule :   c1 

 the group has the following generators :
   c1(z)

    1 symmetry operations found

 there are 1 real representations :   a   

 maximum number of shells which are related by symmetry :  1


    mo occupation :
   irrep   mo's   occupied
    a     2664      258
 
 number of basis functions   :         2664
 number of occupied orbitals :          258
 
  
           ------------------
           density functional
           ------------------
 PBE functional
 exchange:    LDA + PBE
 correlation: LDA (PW) + PBE
 grinp -> nfun, dfgga, dfhybrid 
           6 T F
 iterations will be done with small grid
  
 spherical integration : Lebedev's spherical grid
 spherical gridsize    :           5
    i.e. gridpoints    :         590
 value for diffuse not defined
 radial integration    : Chebyshev 2nd kind (scaling 3)
 radial gridsize       :           8
 integration cells     :         108
 partition function    : becke
 partition sharpness   :           3
  

 <rddim> : input of entry tasksize
           from data group '$pardft' failed !

               Default values taken

 <rddim> : input of entry memdiv
           from data group '$pardft' failed !

               Default values taken
  RIDFT: memory allocation for DFT gridpoints
  MEMORY is divided by 1 as DEFAULT
 Each node can hold at most  the            1 -th part
 of the gridpoints    

 biggest AO integral is expected to be     4.866064444
  
           ------------------------
               RI-J - INFORMATION
           ------------------------
 
 
 **************************************************
 *      MEMORY ALLOCATION FOR PARALLEL RI-DFT     *
 **************************************************
 
 
MEMORY FOR (MU NU/ ALPHA), SEQUENTIAL RUN               7877 MByte
 
            DIFFERENCE IN MEMORY NEED:       DIAG./SLAVE  
 
      TOTAL DIFFERENCE :                    407 MByte
 
      difference in xcore:                  124 MByte
      difference in fatmat:                 103 MByte
      getcor calls skipped by slaves:       180 MByte
 
 
           Integral memory available for diagonal.      7877 MByte
 
           Integral memory available for slave             0 MByte
 
         MEMORY FOR (MU NU/ ALPHA) ON DIAGONALIZER      7877 MByte
 
         MEMORY FOR (MU NU/ ALPHA) ON ONE SLAVE            0 MByte
 
         TOTAL MEMORY FOR (MU NU/ ALPHA),ALL NODES      7877 MByte
 
 Contributions to RI integral batches: 
  neglected integral batches:      276340
  direct contribution:             105223
  memory contribution:       56953
 Memory core needed for (P|Q) and Cholesky    118 MByte
 Memory core minimum needed except of (P|Q)     8 MByte
 Total minimum memory core needed (sum)       126 MByte
     number of direct tasks:         160
  
 ****************************************
 Memory allocated for RI-J  8002 MByte
 ****************************************
                                            

          ------------------------
          nuclear repulsion energy  :   13462.6561478    
          ------------------------

 
          -----------------
          -S integrals
          -----------------

 1e-integrals will be neglected if expon. factor < 0.109214E-14
 
          -----------------
          -T+V integrals
          -----------------

 1e-integrals will be neglected if expon. factor < 0.109214E-14
 Difference densities >>NOT<< switched on in parallel ridft!

 automatic virtual orbital shift switched on 
      shift if e(lumo)-e(homo) < 0.10000000    


 DIIS switched on: error vector is FDS-SDF
 Max. Iterations for DIIS is     :   4
 DIIS matrix (see manual) 
    Scaling factor of diagonals  :  1.200
    threshold for scaling factor :  0.000

 scf convergence criterion : increment of total energy < .1000000D-08
                  and increment of one-electron energy < .1000000D-05


 <geterg> : there is no data group $energy 

  MOs are in ASCII format !


 reading orbital data $scfmo  from file mos . 

 orbital characterization : expanded
 
 mo provided and orthogonalized by Cholesky decomposition

 DSCF restart information will be dumped onto file mos


 Starting SCF iterations


 ITERATION  ENERGY          1e-ENERGY        2e-ENERGY     RMS[dD(SAO)]   TOL
   1  -3592.9459037511    -31666.994956     14611.392904    0.000D+00 0.109D-13
                            Exc = -472.881769054     Coul =  15084.2746731    
                              N = 516.00093615    
                            current damping = 0.700
 
          max. resid. norm for Fia-block=  4.346D-01 for orbital    177a         
          max. resid. fock norm         =  3.923D+00 for orbital   2516a         

 ITERATION  ENERGY          1e-ENERGY        2e-ENERGY     RMS[dD(SAO)]   TOL
   2  -3605.4056946497    -31737.243718     14669.181876    0.195D-02 0.109D-13
                            Exc = -472.597139328     Coul =  15141.7790151    
                              N = 516.00077865    
                            current damping = 0.650
 
          Norm of current diis error:  6.7465    
          max. resid. norm for Fia-block=  1.597D-01 for orbital      1a         
          max. resid. fock norm         =  3.975D-01 for orbital   2653a         

 ITERATION  ENERGY          1e-ENERGY        2e-ENERGY     RMS[dD(SAO)]   TOL
   3  -3607.1314536129    -31759.940948     14690.153347    0.985D-03 0.109D-13
                            Exc = -474.711788344     Coul =  15164.8651353    
                              N = 516.00071759    
                            current damping = 0.550
 
          Norm of current diis error:  3.2459    
          max. resid. norm for Fia-block=  6.487D-02 for orbital      3a         
          max. resid. fock norm         =  8.701D-02 for orbital   1188a         

 ITERATION  ENERGY          1e-ENERGY        2e-ENERGY     RMS[dD(SAO)]   TOL
   4  -3607.6163144701    -31768.555116     14698.282653    0.774D-03 0.109D-13
                            Exc = -474.198747517     Coul =  15172.4814009    
                              N = 516.00069038    
                            current damping = 0.450
 
          Norm of current diis error:  1.5401    
          max. resid. norm for Fia-block=  3.374D-02 for orbital     88a         
          max. resid. fock norm         =  6.993D-02 for orbital   2653a         

 ITERATION  ENERGY          1e-ENERGY        2e-ENERGY     RMS[dD(SAO)]   TOL
   5  -3607.6821166188    -31765.899687     14695.561422    0.407D-03 0.109D-13
                            Exc = -474.820761888     Coul =  15170.3821841    
                              N = 516.00068386    
                            current damping = 0.500
 
          Norm of current diis error:  1.1337    
          max. resid. norm for Fia-block=  1.360D-02 for orbital    245a         
          max. resid. fock norm         =  1.630D-02 for orbital    245a         
          mo-orthogonalization: Cholesky decomposition

 ITERATION  ENERGY          1e-ENERGY        2e-ENERGY     RMS[dD(SAO)]   TOL
   6  -3607.7420564375    -31772.367120     14701.968916    0.207D-03 0.109D-13
                            Exc = -474.856631279     Coul =  15176.8255476    
                              N = 516.00068817    
                            current damping = 0.550
 
          Norm of current diis error: 0.21314    
          max. resid. norm for Fia-block=  3.484D-03 for orbital    191a         
          max. resid. fock norm         =  5.626D-03 for orbital    210a         

 ITERATION  ENERGY          1e-ENERGY        2e-ENERGY     RMS[dD(SAO)]   TOL
   7  -3607.7439648143    -31770.924465     14700.524353    0.709D-04 0.109D-13
                            Exc = -474.742358134     Coul =  15175.2667108    
                              N = 516.00068387    
                            current damping = 0.600
 
          Norm of current diis error: 0.97103E-01
          max. resid. norm for Fia-block=  1.375D-03 for orbital     82a         
          max. resid. fock norm         =  2.721D-03 for orbital   2657a         

 ITERATION  ENERGY          1e-ENERGY        2e-ENERGY     RMS[dD(SAO)]   TOL
   8  -3607.7443201950    -31771.173114     14700.772646    0.200D-04 0.109D-13
                            Exc = -474.761394803     Coul =  15175.5340405    
                              N = 516.00068429    
                            current damping = 0.650
 
          Norm of current diis error: 0.31140E-01
          max. resid. norm for Fia-block=  1.164D-03 for orbital    246a         
          max. resid. fock norm         =  1.812D-03 for orbital   2531a         

 ITERATION  ENERGY          1e-ENERGY        2e-ENERGY     RMS[dD(SAO)]   TOL
   9  -3607.7443196690    -31771.426897     14701.026430    0.846D-05 0.109D-13
                            Exc = -474.784391204     Coul =  15175.8108208    
                              N = 516.00068455    
                            current damping = 0.700
 
          Norm of current diis error: 0.32384E-01
          max. resid. norm for Fia-block=  4.699D-04 for orbital    246a         
          max. resid. fock norm         =  7.020D-04 for orbital   2548a         

 ITERATION  ENERGY          1e-ENERGY        2e-ENERGY     RMS[dD(SAO)]   TOL
  10  -3607.7443635864    -31771.479736     14701.079225    0.403D-05 0.109D-13
                            Exc = -474.785013534     Coul =  15175.8642386    
                              N = 516.00068460    
                            current damping = 0.550
 
          Norm of current diis error: 0.12014E-01
          max. resid. norm for Fia-block=  1.816D-04 for orbital    228a         
          max. resid. fock norm         =  3.208D-04 for orbital    204a         
          mo-orthogonalization: Cholesky decomposition

 ITERATION  ENERGY          1e-ENERGY        2e-ENERGY     RMS[dD(SAO)]   TOL
  11  -3607.7443694394    -31771.373375     14700.972858    0.257D-05 0.109D-13
                            Exc = -474.780368085     Coul =  15175.7532257    
                              N = 516.00068447    
                            current damping = 0.600
 
          Norm of current diis error: 0.51468E-02
          max. resid. norm for Fia-block=  1.206D-04 for orbital    246a         
          max. resid. fock norm         =  1.529D-04 for orbital    246a         

 ITERATION  ENERGY          1e-ENERGY        2e-ENERGY     RMS[dD(SAO)]   TOL
  12  -3607.7443700822    -31771.403369     14701.002851    0.137D-05 0.109D-13
                            Exc = -474.778662744     Coul =  15175.7815135    
                              N = 516.00068450    
                            current damping = 0.650
 
          Norm of current diis error: 0.34236E-02
          max. resid. norm for Fia-block=  3.749D-05 for orbital    246a         
          max. resid. fock norm         =  6.857D-05 for orbital    204a         

 ITERATION  ENERGY          1e-ENERGY        2e-ENERGY     RMS[dD(SAO)]   TOL
  13  -3607.7443705738    -31771.399396     14700.998878    0.392D-06 0.109D-13
                            Exc = -474.779488535     Coul =  15175.7783664    
                              N = 516.00068449    
                            current damping = 0.700
 
          Norm of current diis error: 0.85194E-03
          max. resid. norm for Fia-block=  1.176D-05 for orbital    246a         
          max. resid. fock norm         =  1.771D-05 for orbital    246a         

 ITERATION  ENERGY          1e-ENERGY        2e-ENERGY     RMS[dD(SAO)]   TOL
  14  -3607.7443705995    -31771.394594     14700.994076    0.155D-06 0.109D-13
                            Exc = -474.779439410     Coul =  15175.7735152    
                              N = 516.00068448    
                            current damping = 0.550
 
          Norm of current diis error: 0.30024E-03
          max. resid. norm for Fia-block=  6.173D-06 for orbital    229a         
          max. resid. fock norm         =  1.032D-05 for orbital    229a         

 DENSITY CONVERGED !


 ITERATION  ENERGY          1e-ENERGY        2e-ENERGY     RMS[dD(SAO)]   TOL
  15  -3607.7443706029    -31771.395015     14700.994496    0.505D-07 0.109D-13
                            Exc = -474.779558196     Coul =  15175.7740544    
                              N = 516.00068448    
                            current damping = 0.600
 
          Norm of current diis error: 0.12333E-03
          max. resid. norm for Fia-block=  2.862D-06 for orbital    229a         
          max. resid. fock norm         =  4.658D-06 for orbital   2518a         
          mo-orthogonalization: Cholesky decomposition

 DENSITY CONVERGED !


 ITERATION  ENERGY          1e-ENERGY        2e-ENERGY     RMS[dD(SAO)]   TOL
  16  -3607.7443706034    -31771.395276     14700.994758    0.245D-07 0.109D-13
                            Exc = -474.779564944     Coul =  15175.7743228    
                              N = 516.00068448    
                            current damping = 0.450
 
          Norm of current diis error: 0.68103E-04
          max. resid. norm for Fia-block=  1.167D-06 for orbital    246a         
          max. resid. fock norm         =  1.579D-06 for orbital   2570a         

 DENSITY CONVERGED !


 ITERATION  ENERGY          1e-ENERGY        2e-ENERGY     RMS[dD(SAO)]   TOL
  17  -3607.7443706032    -31771.395012     14700.994494    0.127D-07 0.109D-13
                            Exc = -474.779546869     Coul =  15175.7740407    
                              N = 516.00068448    
                            current damping = 0.500
 
          Norm of current diis error: 0.17351E-04
          max. resid. norm for Fia-block=  2.897D-07 for orbital    253a         
          max. resid. fock norm         =  4.650D-07 for orbital   2617a         

 DENSITY CONVERGED !


 ITERATION  ENERGY          1e-ENERGY        2e-ENERGY     RMS[dD(SAO)]   TOL
  18  -3607.7443706032    -31771.394963     14700.994445    0.345D-08 0.109D-13
                            Exc = -474.779546660     Coul =  15175.7739918    
                              N = 516.00068448    
                            current damping = 0.350
 
          Norm of current diis error: 0.96565E-05
          max. resid. norm for Fia-block=  1.075D-07 for orbital    233a         
          max. resid. fock norm         =  2.105D-07 for orbital    206a         

 ENERGY & DENSITY CONVERGED !


 ITERATION  ENERGY          1e-ENERGY        2e-ENERGY     RMS[dD(SAO)]   TOL
  19  -3607.7443464256    -31771.395026     14700.994532    0.159D-08 0.109D-13
                            Exc = -474.779525315     Coul =  15175.7740572    
                              N = 516.00019673    
                            current damping = 0.400
 
          Norm of current diis error: 0.33458E-05
          max. resid. norm for Fia-block=  5.065D-08 for orbital    233a         
          max. resid. fock norm         =  8.799D-08 for orbital   2526a         

 End of SCF iterations

   convergence criteria satisfied after   19 iterations


                  ------------------------------------------ 
                 |  total energy      =  -3607.74434642563  |
                  ------------------------------------------ 
                 :  kinetic energy    =   3584.66871985208  :
                 :  potential energy  =  -7192.41306627770  :
                 :  virial theorem    =      1.99360386315  :
                 :  wavefunction norm =      1.00000000000  :
                  .......................................... 


 <geterg> : there is no data group $energy 


 <skperg> : $end is missing 


 orbitals $scfmo  will be written to file mos

    irrep                254a        255a        256a        257a        258a   
 eigenvalues H         -0.20878    -0.20592    -0.20369    -0.20325    -0.19484
            eV          -5.6811     -5.6034     -5.5427     -5.5309     -5.3018
 occupation              2.0000      2.0000      2.0000      2.0000      2.0000 

    irrep                259a        260a        261a        262a        263a   
 eigenvalues H         -0.02178    -0.01718    -0.01677    -0.00698    -0.00664
            eV          -0.5926     -0.4675     -0.4564     -0.1898     -0.1806
 
 
 ! grave: sending quit signal to master process
 
 
 
 
 ==============================================================================
                           electrostatic moments
 ==============================================================================

 reference point for electrostatic moments:    0.00000   0.00000   0.00000

 
              nuc           elec       ->  total
 ------------------------------------------------------------------------------
                          charge      
 ------------------------------------------------------------------------------
         516.000000    -516.000000      -0.000000
 
 ------------------------------------------------------------------------------
                       dipole moment  
 ------------------------------------------------------------------------------
   x      14.187988     -14.124252       0.063736
   y    -166.620196     166.548442      -0.071753
   z      -0.000000       0.000000       0.000000
 
   | dipole moment | =     0.0960 a.u. =     0.2439 debye 
 
 ------------------------------------------------------------------------------
                     quadrupole moment
 ------------------------------------------------------------------------------
  xx   18988.853285  -19204.634082    -215.780797
  yy    6398.578484   -6778.718927    -380.140443
  zz   18517.304462  -18732.875678    -215.571216
  xy    -194.324126     192.258072      -2.066054
  xz       0.000000      -0.000000      -0.000000
  yz       0.000000       0.000000       0.000000
 
     1/3  trace=    -270.497485
     anisotropy=     164.503463
 
 ==============================================================================
 

    ridft profiling
  --------------------------------------------------------------------
             module   cpu total (s)       %  wall total (s)       %

               RIDFT          2503.5  100.00          2505.9  100.00
         Ridft_b_scf           127.7    5.10           127.6    5.09
        b_scf_prelim             0.0    0.00             0.0    0.00
        b_scf_molinp             0.0    0.00             0.0    0.00
         b_scf_init0             0.0    0.00             0.0    0.00
        b_scf_auxbas             0.0    0.00             0.0    0.00
      b_scf_symmetry             0.0    0.00             0.0    0.00
         b_scf_cosmo             0.0    0.00             0.0    0.00
        b_scf_params             3.3    0.13             3.3    0.13
          b_scf_ri-j            77.5    3.10            77.5    3.09
    b_scf_ri-j_auxpq            77.5    3.09            77.4    3.09
     ri-j_auxpq_chol             8.8    0.35             8.8    0.35
         b_scf_1elec             3.0    0.12             3.0    0.12
       b_scf_moinput            43.9    1.75            43.8    1.75
     moinput_orthmos            43.1    1.72            43.0    1.72
    b_scf_dft-dstmax             0.0    0.00             0.0    0.00
           Ridft_scf          2374.4   94.84          2376.9   94.85
          Scf_b_loop             0.0    0.00             0.0    0.00
                noga             0.0    0.00             0.0    0.00
            Scf_loop          2369.5   94.65          2371.8   94.65
     scf_loop_mkdmat            17.5    0.70            17.4    0.70
       scf_loop_ri-j           612.5   24.47           612.1   24.42
      parlp1.bc.dens             1.6    0.06             1.6    0.06
        parlp1.gs.gp            18.0    0.72            18.0    0.72
        parlp2.bc.gq             0.0    0.00             0.0    0.00
        scf_loop_dft          1200.5   47.95          1199.6   47.87
      pardft.bc.dens             0.0    0.00             0.0    0.00
        dft_grid_con             6.9    0.27             6.9    0.27
           dft_xcrhf          1189.5   47.51          1188.6   47.43
          dft_getval            71.3    2.85            71.3    2.84
          funct2 dst             1.5    0.06             1.6    0.06
      funct2 f2loop1            12.2    0.49            12.2    0.49
      funct2 f2loop2            36.5    1.46            36.5    1.46
          funct2 s+c            20.0    0.80            20.0    0.80
        funct2 cmf_2            18.4    0.74            18.4    0.74
          dft_mkdens           515.1   20.58           514.8   20.54
         dft_gga-fun             0.7    0.03             0.7    0.03
          dft_mkfock           601.4   24.02           600.9   23.98
     pardft.red.fock            87.4    3.49            87.3    3.49
     scf_loop_energy             0.1    0.01             0.1    0.01
     scf_loop_mkfock             0.2    0.01             0.2    0.01
       scf_loop_diis           271.7   10.85           271.5   10.83
       scf_loop_diag           147.1    5.88           147.0    5.87
         diag_tritrn            48.8    1.95            48.8    1.95
          diag_rdiag            97.8    3.91            97.7    3.90
     scf_loop_modump            78.5    3.14            82.5    3.29
      scf_loop_ortho            38.7    1.55            38.7    1.54
          Scf_a_loop             4.9    0.20             5.2    0.21
         Ridft_a_scf             1.4    0.06             1.4    0.06
         a_scf_fanal             1.4    0.05             1.4    0.05
 


    ------------------------------------------------------------------------
         total  cpu-time : 41 minutes and 49 seconds
         total wall-time : 41 minutes and 52 seconds
    ------------------------------------------------------------------------


   ****  ridft : all done  ****


    2016-01-31 12:34:09.021 

