=================================== SLURM JOB ===================================
Thu Aug 27 19:40:16 PDT 2015

The job will be started on the following node(s):
c-4-14

Slurm User:         magee
Run Directory:      /work/magee/793293
Job ID:             793293
Job Name:           _comp3b_fragB_rpa.pbe.def2-tzvp
Partition:          mf_nes2.8
Number of nodes:    1
Submitted From:     gplogin1.local:/data12/cmf/magee/RPA_Benchmarking/matt_calcs/S12L/frags/comp3b/fragB/rpa.pbe.def2-tzvp
=================================== SLURM JOB ===================================

--- SLURM job-script output ---
 operating system is UNIX !
 hostname is         c-4-14.local

 ridft (c-4-14.local) : TURBOMOLE V7.0( ) 6 Jul 2015 at 18:30:05
 Copyright (C) 2015 TURBOMOLE GmbH, Karlsruhe


    2015-08-27 19:40:16.300 



                                  r i d f t

                        DFT program with RI approximation 
                                for coulomb part 




                                                 
                                 References:     
                                                 
          TURBOMOLE:                             
              R. Ahlrichs, M. Baer, M. Haeser, H. Horn, and
              C. Koelmel
              Electronic structure calculations on workstation
              computers: the program system TURBOMOLE
              Chem. Phys. Lett. 162: 165 (1989)
          Density Functional:                              
              O. Treutler and R. Ahlrichs                      
              Efficient Molecular Numerical Integration Schemes
              J. Chem. Phys. 102: 346 (1995)                   
          Parallel Version:                                
              Performance of parallel TURBOMOLE for Density    
              Functional Calculations                          
              M. v. Arnim and R. Ahlrichs                      
              J. Comp. Chem. 19: 1746 (1998)                   
          RI-J Method:                                     
              Auxiliary Basis Sets to approximate Coulomb      
              Potentials                                       
              Chem. Phys. Lett. 240: 283 (1995)                
              K. Eichkorn, O. Treutler, H. Oehm, M. Haeser     
              and R. Ahlrichs                                  
              Chem. Phys. Lett. 242: 652 (1995)                
                                                           
              Auxiliary Basis Sets for Main Row Atoms and their
              Use to approximate Coulomb Potentials            
              K. Eichkorn, F. Weigend, O. Treutler and         
              R. Ahlrichs                                      
              Theo. Chem. Acc. 97: 119 (1997)                   
                                                           
              Accurate Coulomb-fitting basis sets for H to Rn 
              F. Weigend                                        
              Phys. Chem. Chem. Phys. 8: 1057 (2006)            
                                                           
          Multipole accelerated RI-J (MARI-J):             
              Fast evaluation of the Coulomb potential for     
              electron densities using multipole accelerated   
              resolution of identity approximation             
              M. Sierka, A. Hogekamp and R. Ahlrichs           
              J. Chem. Phys. 118: 9136 (2003)                  
          RI-JK Method:                                     
              A fully direct RI-HF algorithm: Implementation,
              optimised auxiliary basis sets, demonstration of
              accuracy and efficiency                         
              F. Weigend                                      
              Phys. Chem. Chem. Phys. 4: 4285 (2002)           
          Two-component HF and DFT with spin-orbit coupling:  
              Self-consistent treatment of spin-orbit         
              interactions with efficient Hartree-Fock and    
              density functional methods                      
              M. K. Armbruster, F. Weigend, C. van Wüllen and 
              W. Klopper                                      
              Phys. Chem. Chem. Phys. 10: 1748 (2008)         
          Relativistic all-electron 2c calculations           
              An efficient implementation of two-component    
              relativistic exact-decoupling methods for large 
              molecules                                       
              D. Peng, N. Middendorf, F. Weigend, M. Reiher   
              J. Chem. Phys. 138, 184105 (2013)               
                                         


 


              +--------------------------------------------------+
              |      general information about current run       |
              +--------------------------------------------------+

 
 PBE functional
 exchange:    LDA + PBE
 correlation: LDA (PW) + PBE
 A DFT calculation using the RI-J approximation will be carried out.
 Allocatable memory for RI due to $ricore (MB):        3000


              +--------------------------------------------------+
              | Atomic coordinate, charge and isotop information |
              +--------------------------------------------------+

                    atomic coordinates            atom    charge  isotop
          2.29077327    1.67392645    0.00000000    c      6.000     0
         -0.42283783    1.89006819    0.00000000    c      6.000     0
          2.00416570   -2.84846554    0.00000000    c      6.000     0
         -1.89569130   -0.36332853    0.00000000    c      6.000     0
         -0.67454461   -2.65085257    0.00000000    c      6.000     0
          3.50423981   -0.72739016    0.00000000    c      6.000     0
         -4.67103058   -0.30001814    0.00000000    n      7.000     0
          3.30333201    3.96359173    0.00000000    n      7.000     0
          1.26591744    5.55612118    0.00000000    o      8.000     0
         -1.03666240    4.32350426    0.00000000    n      7.000     0
          6.74724407   -0.91316884    0.00000000    cl    17.000     0
         -5.67445394    1.79859374    0.00000000    o      8.000     0
         -5.79266475   -2.34826497    0.00000000    o      8.000     0
          2.87220091   -4.70406291    0.00000000    h      1.000     0
         -1.81998778   -4.35025387    0.00000000    h      1.000     0
 
       center of nuclear mass  :    0.50666566    0.57190243    0.00000000
       center of nuclear charge:    0.46151856    0.53226704    0.00000000

              +--------------------------------------------------+
              |               basis set information              |
              +--------------------------------------------------+

              we will work with the 1s 3p 5d 7f 9g ... basis set
              ...i.e. with spherical basis functions...

   type   atoms  prim   cont   basis
   ---------------------------------------------------------------------------
    c        6     46     31   def2-TZVP   [5s3p2d1f|11s6p2d1f]
    n        3     46     31   def2-TZVP   [5s3p2d1f|11s6p2d1f]
    o        3     46     31   def2-TZVP   [5s3p2d1f|11s6p2d1f]
    cl       1     63     37   def2-TZVP   [5s5p2d1f|14s9p3d1f]
    h        2      8      6   def2-TZVP   [3s1p|5s1p]
   ---------------------------------------------------------------------------
   total:   15    631    421
   ---------------------------------------------------------------------------

   total number of primitive shells          :   93
   total number of contracted shells         :  153
   total number of cartesian basis functions :  486
   total number of SCF-basis functions       :  421


 integral neglect threshold       :  0.69E-13
 integral storage threshold THIZE :  0.10E-04
 integral storage threshold THIME :         5

 RI-J AUXILIARY BASIS SET information:

              we will work with the 1s 3p 5d 7f 9g ... basis set
              ...i.e. with spherical basis functions...

   type   atoms  prim   cont   basis
   ---------------------------------------------------------------------------
    c        6     70     49   def2-TZVP   [6s4p3d1f1g|12s5p4d2f1g]
    n        3     70     49   def2-TZVP   [6s4p3d1f1g|12s5p4d2f1g]
    o        3     70     49   def2-TZVP   [6s4p3d1f1g|12s5p4d2f1g]
    cl       1     77     51   def2-TZVP   [8s4p3d1f1g|14s5p5d2f1g]
    h        2     16     11   def2-TZVP   [3s1p1d|5s2p1d]
   ---------------------------------------------------------------------------
   total:   15    949    661
   ---------------------------------------------------------------------------

   total number of primitive shells          :  107
   total number of contracted shells         :  207
   total number of cartesian basis functions :  819
   total number of SCF-basis functions       :  661


 symmetry group of the molecule :   c1 

 the group has the following generators :
   c1(z)

    1 symmetry operations found

 there are 1 real representations :   a   

 maximum number of shells which are related by symmetry :  1


    mo occupation :
   irrep   mo's   occupied
    a      421       50
 
 number of basis functions   :          421
 number of occupied orbitals :           50
 
  
           ------------------
           density functional
           ------------------
 PBE functional
 exchange:    LDA + PBE
 correlation: LDA (PW) + PBE
 iterations will be done with small grid
  
 spherical integration : Lebedev's spherical grid
 spherical gridsize    :           5
    i.e. gridpoints    :         590
 value for diffuse not defined
 radial integration    : Chebyshev 2nd kind (scaling 3)
 radial gridsize       :           8
 integration cells     :          15
 partition function    : becke
 partition sharpness   :           3
  

 biggest AO integral is expected to be    10.437462037
  
           ------------------------
               RI-J - INFORMATION
           ------------------------
 Contributions to RI integral batches: 
  neglected integral batches:        2231
  direct contribution:                  0
  memory contribution:        9550
 Memory core needed for (P|Q) and Cholesky      4 MByte
 Memory core minimum needed except of (P|Q)     1 MByte
 Total minimum memory core needed (sum)         5 MByte
  
 ****************************************
 Memory allocated for RI-J   616 MByte
 ****************************************
                                            

          ------------------------
          nuclear repulsion energy  :   846.265151275    
          ------------------------

 
          -----------------
          -S,T+V- integrals
          -----------------

 1e-integrals will be neglected if expon. factor < 0.687646E-14
 
   Difference densities algorithm switched on.
   The maximal number of linear combinations of
   difference densities is          20 .

 automatic virtual orbital shift switched on 
      shift if e(lumo)-e(homo) < 0.10000000    


 DIIS switched on: error vector is FDS-SDF
 Max. Iterations for DIIS is     :   4
 DIIS matrix (see manual) 
    Scaling factor of diagonals  :  1.200
    threshold for scaling factor :  0.000

 scf convergence criterion : increment of total energy < .1000000D-08
                  and increment of one-electron energy < .1000000D-05


 <geterg> : there is no data group $energy 

  MOs are in ASCII format !


 reading orbital data $scfmo  from file mos . 

 orbital characterization : expanded
 
 mo provided and orthogonalized by Cholesky decomposition

 DSCF restart information will be dumped onto file mos


 Starting SCF iterations

          Overall gridpoints after grid construction =         87457

 ITERATION  ENERGY          1e-ENERGY        2e-ENERGY     NORM[dD(SAO)]  TOL
   1  -1076.4863816472    -3137.1838163     1214.4322834    0.000D+00 0.686D-13
                            Exc = -106.280168846     Coul =  1320.71245225    
                              N = 100.00003122    
                            current damping = 0.700
 
          max. resid. norm for Fia-block=  4.212D-01 for orbital     33a         
          max. resid. fock norm         =  1.055D+01 for orbital    259a         

 ITERATION  ENERGY          1e-ENERGY        2e-ENERGY     NORM[dD(SAO)]  TOL
   2  -1078.7723991649    -3153.0074313     1227.9698808    0.386D+01 0.614D-13
                            Exc = -106.680751707     Coul =  1334.65063254    
                              N = 100.00002010    
                            current damping = 0.650
 
          Norm of current diis error:  2.6741    
          max. resid. norm for Fia-block=  1.528D-01 for orbital     18a         
          max. resid. fock norm         =  3.226D-01 for orbital    295a         

 ITERATION  ENERGY          1e-ENERGY        2e-ENERGY     NORM[dD(SAO)]  TOL
   3  -1079.0675099046    -3157.1514566     1231.8187954    0.164D+01 0.350D-13
                            Exc = -107.018214779     Coul =  1338.83701021    
                              N = 100.00002170    
                            current damping = 0.550
 
          Norm of current diis error:  1.3297    
          max. resid. norm for Fia-block=  6.070D-02 for orbital     41a         
          max. resid. fock norm         =  9.329D-02 for orbital    290a         

 ITERATION  ENERGY          1e-ENERGY        2e-ENERGY     NORM[dD(SAO)]  TOL
   4  -1079.1705254939    -3158.0127200     1232.5770432    0.110D+01 0.304D-13
                            Exc = -106.938575461     Coul =  1339.51561867    
                              N = 100.00002315    
                            current damping = 0.450
 
          Norm of current diis error: 0.60143    
          max. resid. norm for Fia-block=  3.861D-02 for orbital     18a         
          max. resid. fock norm         =  5.718D-02 for orbital    273a         

 ITERATION  ENERGY          1e-ENERGY        2e-ENERGY     NORM[dD(SAO)]  TOL
   5  -1079.1904981062    -3158.8178953     1233.3622459    0.482D+00 0.278D-13
                            Exc = -107.046939170     Coul =  1340.40918509    
                              N = 100.00002479    
                            current damping = 0.350
 
          Norm of current diis error: 0.35413    
          max. resid. norm for Fia-block=  1.097D-02 for orbital     36a         
          max. resid. fock norm         =  2.423D-02 for orbital    413a         
          mo-orthogonalization: Cholesky decomposition

 ITERATION  ENERGY          1e-ENERGY        2e-ENERGY     NORM[dD(SAO)]  TOL
   6  -1079.1956150750    -3159.0271567     1233.5663904    0.171D+00 0.261D-13
                            Exc = -107.052267666     Coul =  1340.61865802    
                              N = 100.00002547    
                            current damping = 0.200
 
          Norm of current diis error: 0.18658    
          max. resid. norm for Fia-block=  7.747D-03 for orbital     49a         
          max. resid. fock norm         =  1.320D-02 for orbital    416a         

 ITERATION  ENERGY          1e-ENERGY        2e-ENERGY     NORM[dD(SAO)]  TOL
   7  -1079.1957856964    -3159.0947173     1233.6337804    0.125D+00 0.253D-13
                            Exc = -107.033275180     Coul =  1340.66705554    
                              N = 100.00002547    
                            current damping = 0.050
 
          Norm of current diis error: 0.18246    
          max. resid. norm for Fia-block=  4.691D-03 for orbital     44a         
          max. resid. fock norm         =  1.457D-02 for orbital    416a         
          irrep a   : virtual orbitals shifted by    0.00299

 ITERATION  ENERGY          1e-ENERGY        2e-ENERGY     NORM[dD(SAO)]  TOL
   8  -1079.1968640411    -3159.0196944     1233.5576791    0.510D-01 0.251D-13
                            Exc = -107.036238912     Coul =  1340.59391798    
                              N = 100.00002590    
                            current damping = 0.100
 
          Norm of current diis error: 0.12389    
          max. resid. norm for Fia-block=  3.459D-03 for orbital     44a         
          max. resid. fock norm         =  9.994D-03 for orbital    416a         

 ITERATION  ENERGY          1e-ENERGY        2e-ENERGY     NORM[dD(SAO)]  TOL
   9  -1079.1975678139    -3159.0141241     1233.5514050    0.163D-01 0.251D-13
                            Exc = -107.044483398     Coul =  1340.59588842    
                              N = 100.00002561    
                            current damping = 0.050
 
          Norm of current diis error: 0.49983E-01
          max. resid. norm for Fia-block=  1.382D-03 for orbital     33a         
          max. resid. fock norm         =  3.491D-03 for orbital    417a         
          irrep a   : virtual orbitals shifted by    0.00292

 ITERATION  ENERGY          1e-ENERGY        2e-ENERGY     NORM[dD(SAO)]  TOL
  10  -1079.1976538270    -3159.0600724     1233.5972673    0.856D-02 0.250D-13
                            Exc = -107.039951752     Coul =  1340.63721909    
                              N = 100.00002573    
                            current damping = 0.100
 
          Norm of current diis error: 0.29760E-01
          max. resid. norm for Fia-block=  1.073D-03 for orbital     47a         
          max. resid. fock norm         =  1.782D-03 for orbital    421a         
          mo-orthogonalization: Cholesky decomposition

 ITERATION  ENERGY          1e-ENERGY        2e-ENERGY     NORM[dD(SAO)]  TOL
  11  -1079.1976629982    -3159.0287038     1233.5658895    0.749D-02 0.249D-13
                            Exc = -107.042900099     Coul =  1340.60878961    
                              N = 100.00002569    
                            current damping = 0.150
 
          Norm of current diis error: 0.24378E-01
          max. resid. norm for Fia-block=  1.006D-03 for orbital     47a         
          max. resid. fock norm         =  1.617D-03 for orbital    421a         

 ITERATION  ENERGY          1e-ENERGY        2e-ENERGY     NORM[dD(SAO)]  TOL
  12  -1079.1976889273    -3159.0341374     1233.5712972    0.237D-02 0.248D-13
                            Exc = -107.042078936     Coul =  1340.61337614    
                              N = 100.00002570    
                            current damping = 0.200
 
          Norm of current diis error: 0.13455E-01
          max. resid. norm for Fia-block=  5.093D-04 for orbital     47a         
          max. resid. fock norm         =  7.360D-04 for orbital    383a         

 ITERATION  ENERGY          1e-ENERGY        2e-ENERGY     NORM[dD(SAO)]  TOL
  13  -1079.1976975622    -3159.0345253     1233.5716765    0.106D-02 0.248D-13
                            Exc = -107.041181365     Coul =  1340.61285786    
                              N = 100.00002569    
                            current damping = 0.050
 
          Norm of current diis error: 0.64019E-02
          max. resid. norm for Fia-block=  2.027D-04 for orbital     45a         
          max. resid. fock norm         =  3.242D-04 for orbital     40a         
          irrep a   : virtual orbitals shifted by    0.00308

 ITERATION  ENERGY          1e-ENERGY        2e-ENERGY     NORM[dD(SAO)]  TOL
  14  -1079.1976981949    -3159.0363801     1233.5735307    0.849D-03 0.247D-13
                            Exc = -107.042306475     Coul =  1340.61583715    
                              N = 100.00002569    
                            current damping = 0.050
 
          Norm of current diis error: 0.57006E-02
          max. resid. norm for Fia-block=  1.289D-04 for orbital     45a         
          max. resid. fock norm         =  2.125D-04 for orbital     40a         
          irrep a   : virtual orbitals shifted by    0.00304

 ITERATION  ENERGY          1e-ENERGY        2e-ENERGY     NORM[dD(SAO)]  TOL
  15  -1079.1976994504    -3159.0363145     1233.5734638    0.177D-03 0.248D-13
                            Exc = -107.041703063     Coul =  1340.61516685    
                              N = 100.00002570    
                            current damping = 0.100
 
          Norm of current diis error: 0.29800E-02
          max. resid. norm for Fia-block=  1.021D-04 for orbital     44a         
          max. resid. fock norm         =  2.920D-04 for orbital    416a         
          mo-orthogonalization: Cholesky decomposition

 ITERATION  ENERGY          1e-ENERGY        2e-ENERGY     NORM[dD(SAO)]  TOL
  16  -1079.1976996857    -3159.0352962     1233.5724452    0.488D-04 0.248D-13
                            Exc = -107.041847635     Coul =  1340.61429284    
                              N = 100.00002569    
                            current damping = 0.050
 
          Norm of current diis error: 0.21691E-02
          max. resid. norm for Fia-block=  4.942D-05 for orbital     44a         
          max. resid. fock norm         =  1.497D-04 for orbital    416a         
          irrep a   : virtual orbitals shifted by    0.00305

 ITERATION  ENERGY          1e-ENERGY        2e-ENERGY     NORM[dD(SAO)]  TOL
  17  -1079.1976998758    -3159.0357077     1233.5728566    0.236D-04 0.248D-13
                            Exc = -107.041726725     Coul =  1340.61458332    
                              N = 100.00002570    
                            current damping = 0.100
 
          Norm of current diis error: 0.11694E-02
          max. resid. norm for Fia-block=  4.164D-05 for orbital     47a         
          max. resid. fock norm         =  7.047D-05 for orbital    421a         

 ITERATION  ENERGY          1e-ENERGY        2e-ENERGY     NORM[dD(SAO)]  TOL
  18  -1079.1976998880    -3159.0353820     1233.5725308    0.122D-04 0.248D-13
                            Exc = -107.041802235     Coul =  1340.61433303    
                              N = 100.00002570    
                            current damping = 0.150
 
          Norm of current diis error: 0.98904E-03
          max. resid. norm for Fia-block=  4.406D-05 for orbital     47a         
          max. resid. fock norm         =  6.475D-05 for orbital    383a         

 ITERATION  ENERGY          1e-ENERGY        2e-ENERGY     NORM[dD(SAO)]  TOL
  19  -1079.1976999250    -3159.0357876     1233.5729364    0.686D-05 0.247D-13
                            Exc = -107.041809166     Coul =  1340.61474561    
                              N = 100.00002570    
                            current damping = 0.200
 
          Norm of current diis error: 0.61587E-03
          max. resid. norm for Fia-block=  2.298D-05 for orbital     47a         
          max. resid. fock norm         =  3.359D-05 for orbital    383a         

 ITERATION  ENERGY          1e-ENERGY        2e-ENERGY     NORM[dD(SAO)]  TOL
  20  -1079.1976999433    -3159.0356219     1233.5727707    0.501D-05 0.246D-13
                            Exc = -107.041763301     Coul =  1340.61453400    
                              N = 100.00002570    
                            current damping = 0.250
 
          Norm of current diis error: 0.31749E-03
          max. resid. norm for Fia-block=  1.048D-05 for orbital     45a         
          max. resid. fock norm         =  1.982D-05 for orbital    419a         
          mo-orthogonalization: Cholesky decomposition

 ITERATION  ENERGY          1e-ENERGY        2e-ENERGY     NORM[dD(SAO)]  TOL
  21  -1079.1976999471    -3159.0356143     1233.5727631    0.313D-05 0.246D-13
                            Exc = -107.041798829     Coul =  1340.61456192    
                              N = 100.00002570    
                            current damping = 0.100
 
          Norm of current diis error: 0.18858E-03
          max. resid. norm for Fia-block=  7.217D-06 for orbital     44a         
          max. resid. fock norm         =  1.784D-05 for orbital    416a         

 ITERATION  ENERGY          1e-ENERGY        2e-ENERGY     NORM[dD(SAO)]  TOL
  22  -1079.1976999466    -3159.0356576     1233.5728064    0.313D-05 0.686D-13
                            Exc = -107.041777435     Coul =  1340.61458379    
                              N = 100.00002570    
                            current damping = 0.150
 
          Norm of current diis error: 0.20731E-03
          max. resid. norm for Fia-block=  3.859D-06 for orbital     44a         
          max. resid. fock norm         =  1.222D-05 for orbital    416a         

 ITERATION  ENERGY          1e-ENERGY        2e-ENERGY     NORM[dD(SAO)]  TOL
  23  -1079.1976999488    -3159.0356300     1233.5727788    0.813D-04 0.435D-13
                            Exc = -107.041780861     Coul =  1340.61455962    
                              N = 100.00002570    
                            current damping = 0.200
 
          Norm of current diis error: 0.67638E-04
          max. resid. norm for Fia-block=  2.157D-06 for orbital     50a         
          max. resid. fock norm         =  3.323D-06 for orbital    409a         

 ITERATION  ENERGY          1e-ENERGY        2e-ENERGY     NORM[dD(SAO)]  TOL
  24  -1079.1976999487    -3159.0356403     1233.5727890    0.414D-04 0.388D-13
                            Exc = -107.041785640     Coul =  1340.61457467    
                              N = 100.00002570    
                            current damping = 0.250
 
          Norm of current diis error: 0.68738E-04
          max. resid. norm for Fia-block=  2.704D-06 for orbital     47a         
          max. resid. fock norm         =  3.958D-06 for orbital    383a         

 ITERATION  ENERGY          1e-ENERGY        2e-ENERGY     NORM[dD(SAO)]  TOL
  25  -1079.1976999489    -3159.0356232     1233.5727720    0.276D-04 0.371D-13
                            Exc = -107.041784883     Coul =  1340.61455687    
                              N = 100.00002570    
                            current damping = 0.300
 
          Norm of current diis error: 0.42003E-04
          max. resid. norm for Fia-block=  1.577D-06 for orbital     47a         
          max. resid. fock norm         =  2.607D-06 for orbital    398a         
          mo-orthogonalization: Cholesky decomposition

 ITERATION  ENERGY          1e-ENERGY        2e-ENERGY     NORM[dD(SAO)]  TOL
  26  -1079.1976999489    -3159.0356366     1233.5727854    0.191D-04 0.363D-13
                            Exc = -107.041787735     Coul =  1340.61457311    
                              N = 100.00002570    
                            current damping = 0.350
 
          Norm of current diis error: 0.40072E-04
          max. resid. norm for Fia-block=  8.865D-07 for orbital     45a         
          max. resid. fock norm         =  1.883D-06 for orbital    419a         

 ENERGY CONVERGED !

          Overall gridpoints after grid construction =        266780

 ITERATION  ENERGY          1e-ENERGY        2e-ENERGY     NORM[dD(SAO)]  TOL
  27  -1079.1977112833    -3159.0356338     1233.5727712    0.156D-05 0.360D-13
                            Exc = -107.041796172     Coul =  1340.61456738    
                              N = 100.00000114    
                            current damping = 0.400
 
          Norm of current diis error: 0.59843E-05
          max. resid. norm for Fia-block=  2.911D-07 for orbital     44a         
          max. resid. fock norm         =  8.483D-07 for orbital    416a         

 End of SCF iterations

   convergence criteria satisfied after   27 iterations


                  ------------------------------------------ 
                 |  total energy      =  -1079.19771128328  |
                  ------------------------------------------ 
                 :  kinetic energy    =   1076.20096377053  :
                 :  potential energy  =  -2155.39867505381  :
                 :  virial theorem    =      1.99722317099  :
                 :  wavefunction norm =      1.00000000000  :
                  .......................................... 


 <geterg> : there is no data group $energy 


 <skperg> : $end is missing 


 orbitals $scfmo  will be written to file mos

    irrep                 46a         47a         48a         49a         50a   
 eigenvalues H         -0.30176    -0.29239    -0.27798    -0.25917    -0.25842
            eV          -8.2112     -7.9564     -7.5642     -7.0523     -7.0319
 occupation              2.0000      2.0000      2.0000      2.0000      2.0000 

    irrep                 51a         52a         53a         54a         55a   
 eigenvalues H         -0.16608    -0.12095    -0.07379    -0.05385    -0.04459
            eV          -4.5194     -3.2913     -2.0078     -1.4654     -1.2133
 
 
 
 
 ==============================================================================
                           electrostatic moments
 ==============================================================================

 reference point for electrostatic moments:    0.00000   0.00000   0.00000

 
              nuc           elec       ->  total
 ------------------------------------------------------------------------------
                          charge      
 ------------------------------------------------------------------------------
         100.000000    -100.000000      -0.000000
 
 ------------------------------------------------------------------------------
                       dipole moment  
 ------------------------------------------------------------------------------
   x      46.151856     -44.828037       1.323818
   y      53.226704     -54.546547      -1.319843
   z       0.000000       0.000000       0.000000
 
   | dipole moment | =     1.8694 a.u. =     4.7514 debye 
 
 ------------------------------------------------------------------------------
                     quadrupole moment
 ------------------------------------------------------------------------------
  xx    1715.612739   -1783.689883     -68.077143
  yy     746.693912    -807.072181     -60.378269
  zz       0.000000     -57.264090     -57.264090
  xy      26.719392     -28.624885      -1.905493
  xz       0.000000       0.000000       0.000000
  yz       0.000000       0.000000       0.000000
 
     1/3  trace=     -61.906501
     anisotropy=      10.190150
 
 ==============================================================================
 
 


    ------------------------------------------------------------------------
         total  cpu-time :  2 minutes and 10 seconds
         total wall-time :  2 minutes and 10 seconds
    ------------------------------------------------------------------------


   ****  ridft : all done  ****


    2015-08-27 19:42:26.283 

 ridft ended normally
Job Done
