           Doing BLAS/Lapack in the master proc. with  8 CPUs.
           SMPCPUS    set: Shared-memory Parallelization with   8 CPUs.

           SMP Parallelization Reference:
           C. van Wullen, J. Comput. Chem. 32 (2011) 1195--1201
 operating system is UNIX !

 ridft (c-18-211.gp.local) : TURBOMOLE V7.2 ( 21454 ) 4 Oct 2017 at 12:48:15
 Copyright (C) 2017 TURBOMOLE GmbH, Karlsruhe


    2018-04-28 21:07:25.619 



                                  r i d f t

                        DFT program with RI approximation 
                                for coulomb part 




                                                 
                                 References:     
                                                 
          TURBOMOLE:                             
              R. Ahlrichs, M. Baer, M. Haeser, H. Horn, and
              C. Koelmel
              Electronic structure calculations on workstation
              computers: the program system TURBOMOLE
              Chem. Phys. Lett. 162: 165 (1989)
          Density Functional:                              
              O. Treutler and R. Ahlrichs                      
              Efficient Molecular Numerical Integration Schemes
              J. Chem. Phys. 102: 346 (1995)                   
          Parallel Version:                                
              Performance of parallel TURBOMOLE for Density    
              Functional Calculations                          
              M. v. Arnim and R. Ahlrichs                      
              J. Comp. Chem. 19: 1746 (1998)                   
          RI-J Method:                                     
              Auxiliary Basis Sets to approximate Coulomb      
              Potentials                                       
              Chem. Phys. Lett. 240: 283 (1995)                
              K. Eichkorn, O. Treutler, H. Oehm, M. Haeser     
              and R. Ahlrichs                                  
              Chem. Phys. Lett. 242: 652 (1995)                
                                                           
              Auxiliary Basis Sets for Main Row Atoms and their
              Use to approximate Coulomb Potentials            
              K. Eichkorn, F. Weigend, O. Treutler and         
              R. Ahlrichs                                      
              Theo. Chem. Acc. 97: 119 (1997)                   
                                                           
              Accurate Coulomb-fitting basis sets for H to Rn 
              F. Weigend                                        
              Phys. Chem. Chem. Phys. 8: 1057 (2006)            
                                                           
          Multipole accelerated RI-J (MARI-J):             
              Fast evaluation of the Coulomb potential for     
              electron densities using multipole accelerated   
              resolution of identity approximation             
              M. Sierka, A. Hogekamp and R. Ahlrichs           
              J. Chem. Phys. 118: 9136 (2003)                  
          RI-JK Method:                                     
              A fully direct RI-HF algorithm: Implementation,
              optimised auxiliary basis sets, demonstration of
              accuracy and efficiency                         
              F. Weigend                                      
              Phys. Chem. Chem. Phys. 4: 4285 (2002)           
          Two-component HF and DFT with spin-orbit coupling:  
              Self-consistent treatment of spin-orbit         
              interactions with efficient Hartree-Fock and    
              density functional methods                      
              M. K. Armbruster, F. Weigend, C. van Wüllen and 
              W. Klopper                                      
              Phys. Chem. Chem. Phys. 10: 1748 (2008)         
          Relativistic all-electron 2c calculations           
              An efficient implementation of two-component    
              relativistic exact-decoupling methods for large 
              molecules                                       
              D. Peng, N. Middendorf, F. Weigend, M. Reiher   
              J. Chem. Phys. 138, 184105 (2013)               
                                         




              +--------------------------------------------------+
              |      general information about current run       |
              +--------------------------------------------------+

 

 DENSITY CONVERGENCE CHECK SWITCHED ON !
 SCF CONVERGENCE IF RMS(delta[D]) <     0.1000000000E-06

 TPSS meta-GGA functional
 exchange:    LDA + TPSS
 correlation: LDA (PW) + TPSS
 A DFT calculation using the RI-J approximation will be carried out.
 Allocatable memory for RI due to $ricore (MB):                  5000


              +--------------------------------------------------+
              | Atomic coordinate, charge and isotop information |
              +--------------------------------------------------+

                    atomic coordinates            atom    charge  isotop
          1.47426450   -1.15257181   -2.28195181    c      0.000     0
          1.69355668   -2.14982727   -4.05184613    h      0.000     0
          0.90318091    1.41917229   -2.28259152    c      0.000     0
          0.67456464    2.41538710   -4.05167501    h      0.000     0
          0.61848710    2.70583813    0.00000000    c      0.000     0
          0.17284385    4.70001197    0.00000000    h      0.000     0
          0.90318091    1.41917229    2.28259152    c      0.000     0
          0.67456464    2.41538710    4.05167501    h      0.000     0
          1.47426450   -1.15257181    2.28195181    c      0.000     0
          1.69355668   -2.14982727    4.05184613    h      0.000     0
          1.76056016   -2.43771145    0.00000000    c      0.000     0
          2.20811802   -4.43181160    0.00000000    h      0.000     0
         -5.18508954   -0.50883251    0.00000000    o      8.000     0
         -4.87365513   -2.29409747    0.00000000    h      1.000     0
         -3.50833376    0.19337144    0.00000000    h      1.000     0
 
       center of nuclear mass  :    0.01512133    0.00179001    0.00000000
       center of nuclear charge:   -4.98627052   -0.61713861    0.00000000

              +--------------------------------------------------+
              |               basis set information              |
              +--------------------------------------------------+

              we will work with the 1s 3p 5d 7f 9g ... basis set
              ...i.e. with spherical basis functions...

   type   atoms  prim   cont   basis
   ---------------------------------------------------------------------------
    c        6     50     30   cc-pVTZ   [4s3p2d1f|18s5p2d1f]
    h        8     16     14   cc-pVTZ   [3s2p1d|5s2p1d]
    o        1     50     30   cc-pVTZ   [4s3p2d1f|18s5p2d1f]
   ---------------------------------------------------------------------------
   total:   15    478    322
   ---------------------------------------------------------------------------

   total number of primitive shells          :   60
   total number of contracted shells         :  118
   total number of cartesian basis functions :  365
   total number of SCF-basis functions       :  322


 integral neglect threshold       :  0.91E-13
 integral storage threshold THIZE :  0.10E-04
 integral storage threshold THIME :         5

 RI-J AUXILIARY BASIS SET information:

              we will work with the 1s 3p 5d 7f 9g ... basis set
              ...i.e. with spherical basis functions...

   type   atoms  prim   cont   basis
   ---------------------------------------------------------------------------
    c        6     70     49   cc-pVTZ   [6s4p3d1f1g|12s5p4d2f1g]
    h        8     16     11   cc-pVTZ   [3s1p1d|5s2p1d]
    o        1     70     49   cc-pVTZ   [6s4p3d1f1g|12s5p4d2f1g]
   ---------------------------------------------------------------------------
   total:   15    618    431
   ---------------------------------------------------------------------------

   total number of primitive shells          :   56
   total number of contracted shells         :  145
   total number of cartesian basis functions :  523
   total number of SCF-basis functions       :  431


 symmetry group of the molecule :   c1 

 the group has the following generators :
   c1(z)

    1 symmetry operations found

 there are 1 real representations :   a   

 maximum number of shells which are related by symmetry :  1


    mo occupation :
   irrep   mo's   occupied
    a      322        5
 
 number of basis functions   :                    322
 number of occupied orbitals :                      5
 
  
           ------------------
           density functional
           ------------------
 Dummy atoms with grid-point found.
 DFT quadrature threshold dgrenze tightened by factor 1/10.

 TPSS meta-GGA functional
 exchange:    LDA + TPSS
 correlation: LDA (PW) + TPSS
 Dummy atoms with grid-point found.
 DFT quadrature threshold dgrenze tightened by factor 1/10.

 Dummy atoms with grid-point found.
 DFT quadrature threshold dgrenze tightened by factor 1/10.


 iterations will be done with small grid
  
 spherical integration : Lebedev's spherical grid
 spherical gridsize    :                     5
    i.e. gridpoints    :                   590
 value for diffuse not defined
 radial integration    : Chebyshev 2nd kind (scaling 3)
 radial gridsize       :                     8
 integration cells     :                    15
 partition function    : becke
 partition sharpness   :                     3
  
 found dummy atom(s) with basis: included in dft

 biggest AO integral is expected to be     4.866064444
  
           ------------------------
               RI-J - INFORMATION
           ------------------------
 Contributions to RI integral batches: 
  neglected integral batches:                   461
  direct contribution:                            0
  memory contribution:                  6560
 Memory core needed for (P|Q) and Cholesky      2 MByte
 Memory core minimum needed except of (P|Q)     1 MByte
 Total minimum memory core needed (sum)         2 MByte
  
 ****************************************
 Memory allocated for RI-J   249 MByte
 ****************************************
                                            

          ------------------------
          nuclear repulsion energy  :   9.16766819325    
          ------------------------


         -----------------
         -S,T+V- integrals
         -----------------

 1e-integrals will be neglected if expon. factor < 0.915606E-14
 Difference densities >>NOT<< switched on in parallel ridft!

 DIIS switched on: error vector is FDS-SDF
 Max. Iterations for DIIS is     :   4
 DIIS matrix (see manual) 
    Scaling factor of diagonals  :  1.200
    threshold for scaling factor :  0.000

 scf convergence criterion : increment of total energy < .1000000D-08
                  and increment of one-electron energy < .1000000D-05

  MOs are in ASCII format !


 automatic virtual orbital shift switched on 
      shift if e(lumo)-e(homo) < 0.10000000    


 reading orbital data $scfmo  from file mos
 orbital characterization : expanded
 mo provided and orthogonalized by Cholesky decomposition

 DSCF restart information will be dumped onto file mos


 Starting SCF iterations

          Overall gridpoints after grid construction =         95923

 ITERATION  ENERGY          1e-ENERGY        2e-ENERGY     RMS[dD(SAO)]   TOL
   1  -76.215040578909    -124.38013322     38.997424450    0.000D+00 0.913D-13
                            Exc = -9.51961927374     Coul =  48.5170437235    
                              N = 9.9999764143    
                            current damping = 0.700
 
          max. resid. norm for Fia-block=  3.053D-01 for orbital      4a         
          max. resid. fock norm         =  1.491D+01 for orbital    311a         

 ITERATION  ENERGY          1e-ENERGY        2e-ENERGY     RMS[dD(SAO)]   TOL
   2  -76.416070546722    -123.18927581     37.605537074    0.122D-02 0.913D-13
                            Exc = -9.33649011520     Coul =  46.9420271891    
                              N = 9.9999739467    
                            current damping = 0.650
 
          Norm of current diis error: 0.89631    
          max. resid. norm for Fia-block=  1.336D-01 for orbital      1a         
          max. resid. fock norm         =  1.358D-01 for orbital      1a         

 ITERATION  ENERGY          1e-ENERGY        2e-ENERGY     RMS[dD(SAO)]   TOL
   3  -76.451149704719    -123.31214809     37.693330196    0.763D-03 0.913D-13
                            Exc = -9.36715996865     Coul =  47.0604901650    
                              N = 9.9999750638    
                            current damping = 0.600
 
          Norm of current diis error: 0.40660    
          max. resid. norm for Fia-block=  5.475D-02 for orbital      1a         
          max. resid. fock norm         =  5.635D-02 for orbital      1a         

 ITERATION  ENERGY          1e-ENERGY        2e-ENERGY     RMS[dD(SAO)]   TOL
   4  -76.460313255068    -123.03722731     37.409245866    0.472D-03 0.913D-13
                            Exc = -9.33699725501     Coul =  46.7462431211    
                              N = 9.9999743231    
                            current damping = 0.650
 
          Norm of current diis error: 0.15303    
          max. resid. norm for Fia-block=  2.045D-02 for orbital      1a         
          max. resid. fock norm         =  2.268D-02 for orbital    144a         

 ITERATION  ENERGY          1e-ENERGY        2e-ENERGY     RMS[dD(SAO)]   TOL
   5  -76.461698753481    -123.10882062     37.479453669    0.184D-03 0.913D-13
                            Exc = -9.35043024838     Coul =  46.8298839177    
                              N = 9.9999746866    
                            current damping = 0.700
 
          Norm of current diis error: 0.63848E-01
          max. resid. norm for Fia-block=  8.273D-03 for orbital      1a         
          max. resid. fock norm         =  8.525D-03 for orbital      1a         
          mo-orthogonalization: Cholesky decomposition

 ITERATION  ENERGY          1e-ENERGY        2e-ENERGY     RMS[dD(SAO)]   TOL
   6  -76.461974215200    -123.06728097     37.437638559    0.872D-04 0.913D-13
                            Exc = -9.34611118177     Coul =  46.7837497406    
                              N = 9.9999745100    
                            current damping = 0.750
 
          Norm of current diis error: 0.25610E-01
          max. resid. norm for Fia-block=  3.386D-03 for orbital      1a         
          max. resid. fock norm         =  3.601D-03 for orbital    130a         

 ITERATION  ENERGY          1e-ENERGY        2e-ENERGY     RMS[dD(SAO)]   TOL
   7  -76.462016849745    -123.07300087     37.443315827    0.325D-04 0.913D-13
                            Exc = -9.34747707341     Coul =  46.7907929007    
                              N = 9.9999745348    
                            current damping = 0.800
 
          Norm of current diis error: 0.11045E-01
          max. resid. norm for Fia-block=  1.450D-03 for orbital      1a         
          max. resid. fock norm         =  1.492D-03 for orbital      1a         

 ITERATION  ENERGY          1e-ENERGY        2e-ENERGY     RMS[dD(SAO)]   TOL
   8  -76.462025263935    -123.06991744     37.440223987    0.148D-04 0.913D-13
                            Exc = -9.34730127689     Coul =  46.7875252643    
                              N = 9.9999745201    
                            current damping = 0.850
 
          Norm of current diis error: 0.49005E-02
          max. resid. norm for Fia-block=  6.450D-04 for orbital      1a         
          max. resid. fock norm         =  7.071D-04 for orbital    130a         

 ITERATION  ENERGY          1e-ENERGY        2e-ENERGY     RMS[dD(SAO)]   TOL
   9  -76.462026824775    -123.07081018     37.441115159    0.606D-05 0.913D-13
                            Exc = -9.34753013636     Coul =  46.7886452952    
                              N = 9.9999745239    
                            current damping = 0.900
 
          Norm of current diis error: 0.22647E-02
          max. resid. norm for Fia-block=  2.982D-04 for orbital      1a         
          max. resid. fock norm         =  3.073D-04 for orbital      1a         

 ITERATION  ENERGY          1e-ENERGY        2e-ENERGY     RMS[dD(SAO)]   TOL
  10  -76.462027173642    -123.06967358     37.439978217    0.300D-05 0.913D-13
                            Exc = -9.34742215486     Coul =  46.7874003719    
                              N = 9.9999745186    
                            current damping = 0.950
 
          Norm of current diis error: 0.11032E-02
          max. resid. norm for Fia-block=  1.455D-04 for orbital      2a         
          max. resid. fock norm         =  1.744D-04 for orbital    130a         
          mo-orthogonalization: Cholesky decomposition

 ITERATION  ENERGY          1e-ENERGY        2e-ENERGY     RMS[dD(SAO)]   TOL
  11  -76.462027244504    -123.07024063     37.440545192    0.121D-05 0.913D-13
                            Exc = -9.34752118727     Coul =  46.7880663790    
                              N = 9.9999745212    
                            current damping = 1.000
 
          Norm of current diis error: 0.52893E-03
          max. resid. norm for Fia-block=  6.881D-05 for orbital      1a         
          max. resid. fock norm         =  8.459D-05 for orbital    321a         

 ITERATION  ENERGY          1e-ENERGY        2e-ENERGY     RMS[dD(SAO)]   TOL
  12  -76.462027263198    -123.06996491     37.440269449    0.664D-06 0.913D-13
                            Exc = -9.34749374431     Coul =  46.7877631934    
                              N = 9.9999745200    
                            current damping = 1.050
 
          Norm of current diis error: 0.25988E-03
          max. resid. norm for Fia-block=  3.436D-05 for orbital      1a         
          max. resid. fock norm         =  5.186D-05 for orbital    321a         

 ITERATION  ENERGY          1e-ENERGY        2e-ENERGY     RMS[dD(SAO)]   TOL
  13  -76.462027267301    -123.07001089     37.440315433    0.289D-06 0.913D-13
                            Exc = -9.34750492384     Coul =  46.7878203567    
                              N = 9.9999745202    
                            current damping = 1.100
 
          Norm of current diis error: 0.13103E-03
          max. resid. norm for Fia-block=  1.762D-05 for orbital      1a         
          max. resid. fock norm         =  2.783D-05 for orbital    321a         

 ITERATION  ENERGY          1e-ENERGY        2e-ENERGY     RMS[dD(SAO)]   TOL
  14  -76.462027268388    -123.06998888     37.440293417    0.152D-06 0.913D-13
                            Exc = -9.34750435753     Coul =  46.7877977745    
                              N = 9.9999745201    
                            current damping = 1.150
 
          Norm of current diis error: 0.69113E-04
          max. resid. norm for Fia-block=  9.228D-06 for orbital      1a         
          max. resid. fock norm         =  1.515D-05 for orbital    321a         

 DENSITY CONVERGED !


 ITERATION  ENERGY          1e-ENERGY        2e-ENERGY     RMS[dD(SAO)]   TOL
  15  -76.462027268672    -123.07000088     37.440305414    0.737D-07 0.913D-13
                            Exc = -9.34750723340     Coul =  46.7878126476    
                              N = 9.9999745202    
                            current damping = 1.200
 
          Norm of current diis error: 0.36706E-04
          max. resid. norm for Fia-block=  4.950D-06 for orbital      1a         
          max. resid. fock norm         =  8.214D-06 for orbital    321a         
          mo-orthogonalization: Cholesky decomposition

 DENSITY CONVERGED !


 ITERATION  ENERGY          1e-ENERGY        2e-ENERGY     RMS[dD(SAO)]   TOL
  16  -76.462027268755    -123.06998668     37.440291215    0.423D-07 0.913D-13
                            Exc = -9.34750594009     Coul =  46.7877971553    
                              N = 9.9999745201    
                            current damping = 1.250
 
          Norm of current diis error: 0.20642E-04
          max. resid. norm for Fia-block=  2.698D-06 for orbital      1a         
          max. resid. fock norm         =  4.725D-06 for orbital    321a         

 ENERGY & DENSITY CONVERGED !

          Overall gridpoints after grid construction =        233244

 ITERATION  ENERGY          1e-ENERGY        2e-ENERGY     RMS[dD(SAO)]   TOL
  17  -76.462016160522    -123.06999414     37.440309789    0.200D-07 0.913D-13
                            Exc = -9.34749618860     Coul =  46.7878059780    
                              N = 10.000001893    
                            current damping = 1.300
 
          Norm of current diis error: 0.11093E-04
          max. resid. norm for Fia-block=  1.499D-06 for orbital      1a         
          max. resid. fock norm         =  2.602D-06 for orbital    321a         

 End of SCF iterations

   convergence criteria satisfied after    17 iterations


                  ------------------------------------------ 
                 |  total energy      =    -76.46201616052  |
                  ------------------------------------------ 
                 :  kinetic energy    =     76.13851425254  :
                 :  potential energy  =   -152.60053041306  :
                 :  virial theorem    =      1.99576911617  :
                 :  wavefunction norm =      1.00000000000  :
                  .......................................... 


 <geterg> : there is no data group $energy 


 <skperg> : $end is missing 


 orbitals $scfmo  will be written to file mos

    irrep                  1a          2a          3a          4a          5a   
 eigenvalues H        -18.87847    -0.94335    -0.47699    -0.33960    -0.25789
            eV        -513.7134    -25.6700    -12.9796     -9.2410     -7.0175
 occupation              2.0000      2.0000      2.0000      2.0000      2.0000 

    irrep                  6a          7a          8a          9a         10a   
 eigenvalues H         -0.00695     0.05787     0.08311     0.08994     0.12534
            eV          -0.1892      1.5747      2.2614      2.4473      3.4107
 
 
 
 
 ==============================================================================
                           electrostatic moments
 ==============================================================================

 reference point for electrostatic moments:    0.00000   0.00000   0.00000

 
              nuc           elec       ->  total
 ------------------------------------------------------------------------------
                          charge      
 ------------------------------------------------------------------------------
          10.000000     -10.000000       0.000000
 
 ------------------------------------------------------------------------------
                       dipole moment  
 ------------------------------------------------------------------------------
   x     -49.862705      50.488162       0.625457
   y      -6.171386       5.813047      -0.358340
   z       0.000000       0.000000       0.000000
 
   | dipole moment | =     0.7208 a.u. =     1.8322 debye 
 
 ------------------------------------------------------------------------------
                     quadrupole moment
 ------------------------------------------------------------------------------
  xx     251.142149    -261.757138     -10.614989
  yy       7.371560     -10.525328      -3.153768
  zz       0.000000      -5.497491      -5.497491
  xy      31.608965     -29.666194       1.942771
  xz       0.000000       0.000000       0.000000
  yz       0.000000       0.000000       0.000000
 
     1/3  trace=      -6.422083
     anisotropy=       7.416125
 
 ==============================================================================
 


    ------------------------------------------------------------------------
         total  cpu-time :  4 minutes and 30 seconds
         total wall-time :  31.50 seconds
    ------------------------------------------------------------------------

   ****  ridft : all done  ****


    2018-04-28 21:07:57.104 

