           Doing BLAS/Lapack in the master proc. with  8 CPUs.
           SMPCPUS    set: Shared-memory Parallelization with   8 CPUs.

           SMP Parallelization Reference:
           C. van Wullen, J. Comput. Chem. 32 (2011) 1195--1201
 operating system is UNIX !

 ridft (c-18-131.gp.local) : TURBOMOLE V7.2 ( 21454 ) 4 Oct 2017 at 12:48:15
 Copyright (C) 2017 TURBOMOLE GmbH, Karlsruhe


    2018-04-24 21:16:09.039 



                                  r i d f t

                        DFT program with RI approximation 
                                for coulomb part 




                                                 
                                 References:     
                                                 
          TURBOMOLE:                             
              R. Ahlrichs, M. Baer, M. Haeser, H. Horn, and
              C. Koelmel
              Electronic structure calculations on workstation
              computers: the program system TURBOMOLE
              Chem. Phys. Lett. 162: 165 (1989)
          Density Functional:                              
              O. Treutler and R. Ahlrichs                      
              Efficient Molecular Numerical Integration Schemes
              J. Chem. Phys. 102: 346 (1995)                   
          Parallel Version:                                
              Performance of parallel TURBOMOLE for Density    
              Functional Calculations                          
              M. v. Arnim and R. Ahlrichs                      
              J. Comp. Chem. 19: 1746 (1998)                   
          RI-J Method:                                     
              Auxiliary Basis Sets to approximate Coulomb      
              Potentials                                       
              Chem. Phys. Lett. 240: 283 (1995)                
              K. Eichkorn, O. Treutler, H. Oehm, M. Haeser     
              and R. Ahlrichs                                  
              Chem. Phys. Lett. 242: 652 (1995)                
                                                           
              Auxiliary Basis Sets for Main Row Atoms and their
              Use to approximate Coulomb Potentials            
              K. Eichkorn, F. Weigend, O. Treutler and         
              R. Ahlrichs                                      
              Theo. Chem. Acc. 97: 119 (1997)                   
                                                           
              Accurate Coulomb-fitting basis sets for H to Rn 
              F. Weigend                                        
              Phys. Chem. Chem. Phys. 8: 1057 (2006)            
                                                           
          Multipole accelerated RI-J (MARI-J):             
              Fast evaluation of the Coulomb potential for     
              electron densities using multipole accelerated   
              resolution of identity approximation             
              M. Sierka, A. Hogekamp and R. Ahlrichs           
              J. Chem. Phys. 118: 9136 (2003)                  
          RI-JK Method:                                     
              A fully direct RI-HF algorithm: Implementation,
              optimised auxiliary basis sets, demonstration of
              accuracy and efficiency                         
              F. Weigend                                      
              Phys. Chem. Chem. Phys. 4: 4285 (2002)           
          Two-component HF and DFT with spin-orbit coupling:  
              Self-consistent treatment of spin-orbit         
              interactions with efficient Hartree-Fock and    
              density functional methods                      
              M. K. Armbruster, F. Weigend, C. van Wüllen and 
              W. Klopper                                      
              Phys. Chem. Chem. Phys. 10: 1748 (2008)         
          Relativistic all-electron 2c calculations           
              An efficient implementation of two-component    
              relativistic exact-decoupling methods for large 
              molecules                                       
              D. Peng, N. Middendorf, F. Weigend, M. Reiher   
              J. Chem. Phys. 138, 184105 (2013)               
                                         




              +--------------------------------------------------+
              |      general information about current run       |
              +--------------------------------------------------+

 

 DENSITY CONVERGENCE CHECK SWITCHED ON !
 SCF CONVERGENCE IF RMS(delta[D]) <     0.1000000000E-06

 TPSS meta-GGA functional
 exchange:    LDA + TPSS
 correlation: LDA (PW) + TPSS
 A DFT calculation using the RI-J approximation will be carried out.
 Allocatable memory for RI due to $ricore (MB):                   500


              +--------------------------------------------------+
              | Atomic coordinate, charge and isotop information |
              +--------------------------------------------------+

                    atomic coordinates            atom    charge  isotop
         -1.36873741   -1.33213565    4.31588478    c      6.000     0
          0.63365972   -1.19042022    3.87995234    h      1.000     0
         -1.79844605   -3.23519151    4.96176218    h      1.000     0
         -1.83233107   -0.04172430    5.84636928    h      1.000     0
         -3.05178489   -0.73213518    2.08638798    c      6.000     0
         -5.36176507   -0.78427808    2.25658391    o      8.000     0
         -1.80170339   -0.14438344   -0.07713824    n      7.000     0
          0.10168352   -0.14280001   -0.06923998    h      1.000     0
         -3.13340021    0.47260838   -2.37832061    c      6.000     0
         -5.14075800    0.33437653   -1.97788696    h      1.000     0
         -2.70288461    2.38665349   -3.00106244    h      1.000     0
         -2.65624839   -0.83967180   -3.89015920    h      1.000     0
          3.97367278   -0.11037319   -0.29305247    o      8.000     0
          5.04132512   -1.45766972   -0.86979576    h      1.000     0
          5.06924457    1.33374336   -0.24789086    h      1.000     0
 
       center of nuclear mass  :   -1.55291118   -0.42069004    0.91466919
       center of nuclear charge:   -1.44649904   -0.41141146    0.87888091

              +--------------------------------------------------+
              |               basis set information              |
              +--------------------------------------------------+

              we will work with the 1s 3p 5d 7f 9g ... basis set
              ...i.e. with spherical basis functions...

   type   atoms  prim   cont   basis
   ---------------------------------------------------------------------------
    c        3     77     57   def2-QZVP   [7s4p3d2f1g|15s8p3d2f1g]
    h        9     33     30   def2-QZVP   [4s3p2d1f|7s3p2d1f]
    o        2     77     57   def2-QZVP   [7s4p3d2f1g|15s8p3d2f1g]
    n        1     77     57   def2-QZVP   [7s4p3d2f1g|15s8p3d2f1g]
   ---------------------------------------------------------------------------
   total:   15    759    612
   ---------------------------------------------------------------------------

   total number of primitive shells          :  100
   total number of contracted shells         :  192
   total number of cartesian basis functions :  747
   total number of SCF-basis functions       :  612


 integral neglect threshold       :  0.45E-13
 integral storage threshold THIZE :  0.10E-04
 integral storage threshold THIME :         5

 RI-J AUXILIARY BASIS SET information:

              we will work with the 1s 3p 5d 7f 9g ... basis set
              ...i.e. with spherical basis functions...

   type   atoms  prim   cont   basis
   ---------------------------------------------------------------------------
    c        3     70     49   def2-QZVP   [6s4p3d1f1g|12s5p4d2f1g]
    h        9     16     11   def2-QZVP   [3s1p1d|5s2p1d]
    o        2     70     49   def2-QZVP   [6s4p3d1f1g|12s5p4d2f1g]
    n        1     70     49   def2-QZVP   [6s4p3d1f1g|12s5p4d2f1g]
   ---------------------------------------------------------------------------
   total:   15    564    393
   ---------------------------------------------------------------------------

   total number of primitive shells          :   80
   total number of contracted shells         :  135
   total number of cartesian basis functions :  474
   total number of SCF-basis functions       :  393


 symmetry group of the molecule :   c1 

 the group has the following generators :
   c1(z)

    1 symmetry operations found

 there are 1 real representations :   a   

 maximum number of shells which are related by symmetry :  1


    mo occupation :
   irrep   mo's   occupied
    a      612       25
 
 number of basis functions   :                    612
 number of occupied orbitals :                     25
 
  
           ------------------
           density functional
           ------------------
 TPSS meta-GGA functional
 exchange:    LDA + TPSS
 correlation: LDA (PW) + TPSS

 iterations will be done with small grid
  
 spherical integration : Lebedev's spherical grid
 spherical gridsize    :                     5
    i.e. gridpoints    :                   590
 value for diffuse not defined
 radial integration    : Chebyshev 2nd kind (scaling 3)
 radial gridsize       :                     8
 integration cells     :                    15
 partition function    : becke
 partition sharpness   :                     3
  

 biggest AO integral is expected to be     6.990327543
  
           ------------------------
               RI-J - INFORMATION
           ------------------------
 Contributions to RI integral batches: 
  neglected integral batches:                  3882
  direct contribution:                         4094
  memory contribution:                 10552
 Memory core needed for (P|Q) and Cholesky      2 MByte
 Memory core minimum needed except of (P|Q)     2 MByte
 Total minimum memory core needed (sum)         3 MByte
  
 ****************************************
 Memory allocated for RI-J   443 MByte
 ****************************************
                                            

          ------------------------
          nuclear repulsion energy  :   243.511940059    
          ------------------------


         -----------------
         -S,T+V- integrals
         -----------------

 1e-integrals will be neglected if expon. factor < 0.447384E-14
 Difference densities >>NOT<< switched on in parallel ridft!

 DIIS switched on: error vector is FDS-SDF
 Max. Iterations for DIIS is     :   4
 DIIS matrix (see manual) 
    Scaling factor of diagonals  :  1.200
    threshold for scaling factor :  0.000

 scf convergence criterion : increment of total energy < .1000000D-08
                  and increment of one-electron energy < .1000000D-05

  MOs are in ASCII format !


 automatic virtual orbital shift switched on 
      shift if e(lumo)-e(homo) < 0.10000000    


 reading orbital data $scfmo  from file mos
 orbital characterization : expanded
 mo provided and orthogonalized by Cholesky decomposition

 DSCF restart information will be dumped onto file mos


 Starting SCF iterations

          Overall gridpoints after grid construction =         69350

 ITERATION  ENERGY          1e-ENERGY        2e-ENERGY     RMS[dD(SAO)]   TOL
   1  -323.79008341670    -921.06976130     353.76773783    0.000D+00 0.446D-13
                            Exc = -43.5467127458     Coul =  397.314450575    
                              N = 50.000001440    
                            current damping = 0.700
 
          max. resid. norm for Fia-block=  8.958D-01 for orbital      8a         
          max. resid. fock norm         =  6.350D+01 for orbital    503a         

 ITERATION  ENERGY          1e-ENERGY        2e-ENERGY     RMS[dD(SAO)]   TOL
   2  -324.91489180804    -923.45557657     355.02874470    0.327D-02 0.446D-13
                            Exc = -43.5574812239     Coul =  398.586225923    
                              N = 49.999998401    
                            current damping = 0.650
 
          Norm of current diis error:  3.0804    
          max. resid. norm for Fia-block=  1.629D-01 for orbital      2a         
          max. resid. fock norm         =  3.449D-01 for orbital    520a         

 ITERATION  ENERGY          1e-ENERGY        2e-ENERGY     RMS[dD(SAO)]   TOL
   3  -325.09076545833    -924.97810625     356.37540073    0.182D-02 0.446D-13
                            Exc = -43.8112553464     Coul =  400.186656079    
                              N = 49.999997412    
                            current damping = 0.550
 
          Norm of current diis error:  1.4554    
          max. resid. norm for Fia-block=  6.290D-02 for orbital      2a         
          max. resid. fock norm         =  6.674D-02 for orbital    520a         

 ITERATION  ENERGY          1e-ENERGY        2e-ENERGY     RMS[dD(SAO)]   TOL
   4  -325.14586586787    -924.67425925     356.01645332    0.135D-02 0.446D-13
                            Exc = -43.7683132024     Coul =  399.784766526    
                              N = 49.999996762    
                            current damping = 0.600
 
          Norm of current diis error: 0.60503    
          max. resid. norm for Fia-block=  3.491D-02 for orbital      8a         
          max. resid. fock norm         =  7.704D-02 for orbital    585a         

 ITERATION  ENERGY          1e-ENERGY        2e-ENERGY     RMS[dD(SAO)]   TOL
   5  -325.15347552226    -925.15114181     356.48572623    0.549D-03 0.446D-13
                            Exc = -43.8666309296     Coul =  400.352357163    
                              N = 49.999995836    
                            current damping = 0.650
 
          Norm of current diis error: 0.36212    
          max. resid. norm for Fia-block=  1.259D-02 for orbital     25a         
          max. resid. fock norm         =  1.775D-02 for orbital    591a         
          mo-orthogonalization: Cholesky decomposition

 ITERATION  ENERGY          1e-ENERGY        2e-ENERGY     RMS[dD(SAO)]   TOL
   6  -325.15737910888    -925.24848445     356.57916529    0.348D-03 0.446D-13
                            Exc = -43.8698425773     Coul =  400.449007865    
                              N = 49.999995937    
                            current damping = 0.500
 
          Norm of current diis error: 0.10062    
          max. resid. norm for Fia-block=  4.369D-03 for orbital     17a         
          max. resid. fock norm         =  7.452D-03 for orbital    585a         

 ITERATION  ENERGY          1e-ENERGY        2e-ENERGY     RMS[dD(SAO)]   TOL
   7  -325.15768969463    -925.08646455     356.41683480    0.168D-03 0.446D-13
                            Exc = -43.8540827163     Coul =  400.270917514    
                              N = 49.999995625    
                            current damping = 0.550
 
          Norm of current diis error: 0.47472E-01
          max. resid. norm for Fia-block=  1.648D-03 for orbital     13a         
          max. resid. fock norm         =  3.281D-03 for orbital    585a         

 ITERATION  ENERGY          1e-ENERGY        2e-ENERGY     RMS[dD(SAO)]   TOL
   8  -325.15774373803    -925.14595606     356.47627226    0.394D-04 0.446D-13
                            Exc = -43.8619863664     Coul =  400.338258625    
                              N = 49.999995613    
                            current damping = 0.600
 
          Norm of current diis error: 0.10775E-01
          max. resid. norm for Fia-block=  5.638D-04 for orbital      8a         
          max. resid. fock norm         =  1.391D-03 for orbital    585a         

 ITERATION  ENERGY          1e-ENERGY        2e-ENERGY     RMS[dD(SAO)]   TOL
   9  -325.15774723867    -925.16217790     356.49249061    0.140D-04 0.446D-13
                            Exc = -43.8640538123     Coul =  400.356544418    
                              N = 49.999995608    
                            current damping = 0.450
 
          Norm of current diis error: 0.46174E-02
          max. resid. norm for Fia-block=  2.672D-04 for orbital     25a         
          max. resid. fock norm         =  4.793D-04 for orbital    526a         

 ITERATION  ENERGY          1e-ENERGY        2e-ENERGY     RMS[dD(SAO)]   TOL
  10  -325.15774746625    -925.15787221     356.48818468    0.991D-05 0.446D-13
                            Exc = -43.8635083312     Coul =  400.351693015    
                              N = 49.999995599    
                            current damping = 0.500
 
          Norm of current diis error: 0.45222E-02
          max. resid. norm for Fia-block=  1.743D-04 for orbital     24a         
          max. resid. fock norm         =  3.080D-04 for orbital    583a         
          mo-orthogonalization: Cholesky decomposition

 ITERATION  ENERGY          1e-ENERGY        2e-ENERGY     RMS[dD(SAO)]   TOL
  11  -325.15774799552    -925.15730274     356.48761469    0.212D-05 0.446D-13
                            Exc = -43.8637228807     Coul =  400.351337567    
                              N = 49.999995592    
                            current damping = 0.350
 
          Norm of current diis error: 0.15702E-02
          max. resid. norm for Fia-block=  7.511D-05 for orbital     13a         
          max. resid. fock norm         =  1.016D-04 for orbital    599a         

 ITERATION  ENERGY          1e-ENERGY        2e-ENERGY     RMS[dD(SAO)]   TOL
  12  -325.15774804574    -925.16062337     356.49093527    0.746D-06 0.446D-13
                            Exc = -43.8640437073     Coul =  400.354978977    
                              N = 49.999995595    
                            current damping = 0.400
 
          Norm of current diis error: 0.44415E-03
          max. resid. norm for Fia-block=  2.315D-05 for orbital     22a         
          max. resid. fock norm         =  5.273D-05 for orbital    612a         

 ITERATION  ENERGY          1e-ENERGY        2e-ENERGY     RMS[dD(SAO)]   TOL
  13  -325.15774804985    -925.16054927     356.49086117    0.365D-06 0.446D-13
                            Exc = -43.8640250551     Coul =  400.354886221    
                              N = 49.999995594    
                            current damping = 0.450
 
          Norm of current diis error: 0.17760E-03
          max. resid. norm for Fia-block=  6.588D-06 for orbital     25a         
          max. resid. fock norm         =  1.551D-05 for orbital    611a         

 ITERATION  ENERGY          1e-ENERGY        2e-ENERGY     RMS[dD(SAO)]   TOL
  14  -325.15774805059    -925.16024891     356.49056080    0.161D-06 0.446D-13
                            Exc = -43.8640040711     Coul =  400.354564868    
                              N = 49.999995594    
                            current damping = 0.300
 
          Norm of current diis error: 0.47371E-04
          max. resid. norm for Fia-block=  2.207D-06 for orbital     24a         
          max. resid. fock norm         =  5.378D-06 for orbital    585a         

 DENSITY CONVERGED !


 ITERATION  ENERGY          1e-ENERGY        2e-ENERGY     RMS[dD(SAO)]   TOL
  15  -325.15774805061    -925.16026203     356.49057392    0.343D-07 0.446D-13
                            Exc = -43.8640077420     Coul =  400.354581661    
                              N = 49.999995594    
                            current damping = 0.350
 
          Norm of current diis error: 0.40880E-04
          max. resid. norm for Fia-block=  1.361D-06 for orbital     24a         
          max. resid. fock norm         =  1.992D-06 for orbital    576a         
          mo-orthogonalization: Cholesky decomposition

 DENSITY CONVERGED !


 ITERATION  ENERGY          1e-ENERGY        2e-ENERGY     RMS[dD(SAO)]   TOL
  16  -325.15774805065    -925.16028517     356.49059706    0.207D-07 0.446D-13
                            Exc = -43.8640076518     Coul =  400.354604712    
                              N = 49.999995594    
                            current damping = 0.200
 
          Norm of current diis error: 0.11523E-04
          max. resid. norm for Fia-block=  3.847D-07 for orbital     25a         
          max. resid. fock norm         =  8.440D-07 for orbital    592a         

 ENERGY & DENSITY CONVERGED !

          Overall gridpoints after grid construction =        228710

 ITERATION  ENERGY          1e-ENERGY        2e-ENERGY     RMS[dD(SAO)]   TOL
  17  -325.15766976055    -925.16029462     356.49068480    0.599D-08 0.446D-13
                            Exc = -43.8639312883     Coul =  400.354616086    
                              N = 49.999999847    
                            current damping = 0.050
 
          Norm of current diis error: 0.66288E-05
          max. resid. norm for Fia-block=  1.502D-07 for orbital     25a         
          max. resid. fock norm         =  1.848D-07 for orbital    318a         

 End of SCF iterations

   convergence criteria satisfied after    17 iterations


                  ------------------------------------------ 
                 |  total energy      =   -325.15766976055  |
                  ------------------------------------------ 
                 :  kinetic energy    =    323.92880245664  :
                 :  potential energy  =   -649.08647221719  :
                 :  virial theorem    =      1.99622070331  :
                 :  wavefunction norm =      1.00000000000  :
                  .......................................... 


 <geterg> : there is no data group $energy 


 <skperg> : $end is missing 


 orbitals $scfmo  will be written to file mos

    irrep                 21a         22a         23a         24a         25a   
 eigenvalues H         -0.32870    -0.30198    -0.30194    -0.20718    -0.19478
            eV          -8.9443     -8.2175     -8.2163     -5.6376     -5.3002
 occupation              2.0000      2.0000      2.0000      2.0000      2.0000 

    irrep                 26a         27a         28a         29a         30a   
 eigenvalues H         -0.03087     0.01035     0.02903     0.03726     0.03859
            eV          -0.8401      0.2818      0.7899      1.0138      1.0500
 
 
 
 
 ==============================================================================
                           electrostatic moments
 ==============================================================================

 reference point for electrostatic moments:    0.00000   0.00000   0.00000

 
              nuc           elec       ->  total
 ------------------------------------------------------------------------------
                          charge      
 ------------------------------------------------------------------------------
          50.000000     -50.000000       0.000000
 
 ------------------------------------------------------------------------------
                       dipole moment  
 ------------------------------------------------------------------------------
   x     -72.324952      74.763229       2.438277
   y     -20.570573      20.754947       0.184374
   z      43.944045     -44.676442      -0.732397
 
   | dipole moment | =     2.5526 a.u. =     6.4880 debye 
 
 ------------------------------------------------------------------------------
                     quadrupole moment
 ------------------------------------------------------------------------------
  xx     603.966468    -635.357856     -31.391388
  yy      42.690258     -69.355887     -26.665630
  zz     316.011456    -344.086254     -28.074798
  xy      46.012919     -47.400715      -1.387797
  xz    -128.284384     131.542840       3.258455
  yz     -88.752067      89.213560       0.461492
 
     1/3  trace=     -28.710605
     anisotropy=       7.478544
 
 ==============================================================================
 


    ------------------------------------------------------------------------
         total  cpu-time :  8 minutes and 34 seconds
         total wall-time :  1 minutes and  9 seconds
    ------------------------------------------------------------------------

   ****  ridft : all done  ****


    2018-04-24 21:17:17.693 

