
   OpenMP run-time library returned nthreads =  8

 ricc2 (c-15-34.local) : TURBOMOLE V7.2 ( 21471 ) 11 Oct 2017 at 17:04:51
 Copyright (C) 2017 TURBOMOLE GmbH, Karlsruhe


    2018-04-03 13:44:38.031 



                              R I C C 2 - PROGRAM

                          the quantum chemistry groups
                             at the universities in
                           Karlsruhe, Bochum & Mainz
                                   Germany



   *-----------------------------------------------------------------------*
   |                     program will use  8 thread(s)                     |
   *-----------------------------------------------------------------------*


              +--------------------------------------------------+
              | Atomic coordinate, charge and isotop information |
              +--------------------------------------------------+

                    atomic coordinates            atom    charge  isotop
          0.00000000    2.67618808    0.00000000    c      6.000     0
          0.00000000   -2.67618808    0.00000000    c      6.000     0
          2.33598888   -1.28360826    0.00000000    c      6.000     0
          2.33598888    1.28360826    0.00000000    c      6.000     0
         -2.33598888   -1.28360826    0.00000000    c      6.000     0
         -2.33598888    1.28360826    0.00000000    c      6.000     0
          0.00000000   -5.31498375    0.00000000    c      6.000     0
          0.00000000    5.31498375    0.00000000    c      6.000     0
          2.28826396    6.71755280    0.00000000    c      6.000     0
         -2.28826396    6.71755280    0.00000000    c      6.000     0
          2.28826396   -6.71755280    0.00000000    c      6.000     0
         -2.28826396   -6.71755280    0.00000000    c      6.000     0
         -4.17903009    7.84282142    0.00000000    n      7.000     0
          4.17903009    7.84282142    0.00000000    n      7.000     0
          4.17903009   -7.84282142    0.00000000    n      7.000     0
         -4.17903009   -7.84282142    0.00000000    n      7.000     0
          4.10398763    2.32451333    0.00000000    h      1.000     0
          4.10398763   -2.32451333    0.00000000    h      1.000     0
         -4.10398763   -2.32451333    0.00000000    h      1.000     0
         -4.10398763    2.32451333    0.00000000    h      1.000     0
 
       center of nuclear mass  :    0.00000000    0.00000000    0.00000000
       center of nuclear charge:    0.00000000    0.00000000    0.00000000

              +--------------------------------------------------+
              |               basis set information              |
              +--------------------------------------------------+

              we will work with the 1s 3p 5d 7f 9g ... basis set
              ...i.e. with spherical basis functions...

   type   atoms  prim   cont   basis
   ---------------------------------------------------------------------------
    c       12     77     55   cc-pVQZ   [5s4p3d2f1g|21s6p3d2f1g]
    n        4     77     55   cc-pVQZ   [5s4p3d2f1g|21s6p3d2f1g]
    h        4     32     30   cc-pVQZ   [4s3p2d1f|6s3p2d1f]
   ---------------------------------------------------------------------------
   total:   20   1360   1000
   ---------------------------------------------------------------------------

   total number of primitive shells          :   78
   total number of contracted shells         :  280
   total number of cartesian basis functions : 1260
   total number of SCF-basis functions       : 1000


 symmetry group of the molecule :   c1 

 the group has the following generators :
   c1(z)

    1 symmetry operations found

 there are 1 real representations :   a   


   =========================================================================


     restricted closed shell calculation for the wavefunction models:
               MP2        - Second Order Moeller Plesset PT


     global parameters for ricc2 program:

        hard restart (reuse of interm.) :  disabled
        soft restart (reuse of vectors) :  disabled
        threshold for vector function   :    0.100000E-05
        convergence threshold energy    :    0.100000E-06
        linear dependence threshold     :    0.100000E-13
        global print level              :      1
        maximum number of iterations    :   300
        maximum number DIIS vectors     :    10
        max. dim. of reduced space      :   100
        core memory limit (MB)          : 60000


     MP2 energy only: Energy will be calculated directly from T2 amplitudes!

     Scratch Directory : 


   =========================================================================

    der. integral neglect threshold  :  0.10E-07
    integral neglect threshold       :  0.26E-11
    integral storage threshold THIZE :  0.10E-04
    integral storage threshold THIME :         5


                  +------------------------------------------+
                  |     Auxiliary basis set information      |
                  +------------------------------------------+

              we will work with the 1s 3p 5d 7f 9g ... basis set
              ...i.e. with spherical basis functions...

   type   atoms  prim   cont   basis
   ---------------------------------------------------------------------------
    c       12    132    132   cc-pVQZ   [8s7p6d5f3g1h|8s7p6d5f3g1h]
    n        4    132    132   cc-pVQZ   [8s7p6d5f3g1h|8s7p6d5f3g1h]
    h        4     55     55   cc-pVQZ   [5s4p3d2f1g|5s4p3d2f1g]
   ---------------------------------------------------------------------------
   total:   20   2332   2332
   ---------------------------------------------------------------------------

   total number of primitive shells          :   75
   total number of contracted shells         :  540
   total number of cartesian basis functions : 3176
   total number of SCF-basis functions       : 2332


 maximum number of shells which are related by symmetry :  1


 The symmetry information takes   1 MB

*---------------------------------------------------------------------*
|               simplified C1 algorithm will be applied               |
*---------------------------------------------------------------------*
  MOs are in ASCII format !


 reading orbital data $scfmo  from file mos
 orbital characterization : scfconv=9



              +--------------------------------------------+
              | list of orbitals that will be kept frozen: |
              +--------------------------------------------+
              |   irrep   index      energy     occ/vir    |
              +--------------------------------------------+
              |   a         1      -15.6202     occupied   |
              |   a         2      -15.6202     occupied   |
              |   a         3      -15.6202     occupied   |
              |   a         4      -15.6202     occupied   |
              |   a         5      -11.3678     occupied   |
              |   a         6      -11.3678     occupied   |
              |   a         7      -11.3610     occupied   |
              |   a         8      -11.3610     occupied   |
              |   a         9      -11.3226     occupied   |
              |   a        10      -11.3226     occupied   |
              |   a        11      -11.3225     occupied   |
              |   a        12      -11.3225     occupied   |
              |   a        13      -11.3209     occupied   |
              |   a        14      -11.3208     occupied   |
              |   a        15      -11.3193     occupied   |
              |   a        16      -11.3193     occupied   |
              +--------------------------------------------+



   Molecular Orbital Statistic:
   ============================

   -----------------------------
   orbitals in total:
   -----------------------------
    frozen occupied :     16
    active occupied :     36
    active virtual  :    948
    frozen virtual  :      0
    all together    :   1000
   -----------------------------


     time in riccmos       cpu:  5.34 sec    wall:  1.50 sec    ratio:  3.6

     total memory allocated for calculation of (Q|P)**(-1/2) : 63 MiB


     calculation of (P|Q) ...
     time in lp2sym        cpu:  1.56 sec    wall:  0.19 sec    ratio:  8.0


     calculation of the Cholesky decomposition of (P|Q)**(-1) ...
     time in invmetri      cpu:  6.29 sec    wall:  0.92 sec    ratio:  6.8

   threshold for RMS(d[D]) in SCF was     :  0.10E-06
   integral neglect threshold             :  0.26E-11
   derivative integral neglect threshold  :  0.10E-07


   =========================================================================

     Energy of reference wave function is  -674.7053969393000
     Maximum orbital residual is           0.2884208032217E-06


     Number of symmetry-nonredundant auxiliary basis functions:     2332

     Block lengths for integral files:
        frozen occupied (BOI):        1 MiB
        active occupied (BJI):        1 MiB
        active virtual  (BAI):       17 MiB
        frozen virtual  (BGI):        0 MiB
               general  (BTI):       18 MiB

   =========================================================================




   **************************************************************************
   *                                                                        *
   *          OPTIMIZATION OF THE GROUND STATE CLUSTER AMPLITUDES           *
   *                                                                        *
   **************************************************************************


   Iter.   MP2 energy       Norm(Omega)    Norm(t1)  Norm(t2)     cpu    wall
   ...........................................................................
    1   -677.4520874242     ------          0.00000   0.57691    4.20    0.53
   ...........................................................................


     time in total         cpu:  4 min 13 s  wall:  0 min 32 s  ratio:  7.9


     **********************************************************************
     *                                                                    *
     *   RHF  energy                             :   -674.7053969393      *
     *   MP2 correlation energy (doubles)        :     -2.7466904849      *
     *                                                                    *
     *   Final MP2 energy                        :   -677.4520874242      *
     *                                                                    *
     *    E(S)   =     -1.6940698443      E(T)   =     -1.0526206406      *
     *    E(OS)  =     -2.0449433911      E(SS)  =     -0.7017470937      *
     *                                                                    *
     *   SCS-MP2 energy                          :   -677.3932447066      *
     *   (computed with  C(OS) =   1.2000  and  C(SS) =   0.3333)         *
     *                                                                    *
     *   SOS-MP2 energy                          :   -677.3638233478      *
     *   (computed with  C(OS) =   1.3000)                                *
     *                                                                    *
     *   Norm of MP1 T2 amplitudes               :      0.5769086915      *
     *                                                                    *
     **********************************************************************



    ------------------------------------------------------------------------
         total  cpu-time :  6 minutes and 42 seconds
         total wall-time :  52.95 seconds
    ------------------------------------------------------------------------

   ****  ricc2 : all done  ****


    2018-04-03 13:45:30.914 

