Using Slurm to start processes with PMI2
Found environment variable SKIP_PARASTAT
   -> do NOT perform a parallel statistics run for the task
      distribution, use automatic task generation instead
STARTING dscf ON 32 PROCESSORS!
RUNNING PROGRAM /beegfs/modfac/apps/TURBOMOLE/7.0_intel_GA/bin/em64t-unknown-linux-gnu_mpi/dscf_mpi.
PLEASE WAIT UNTIL dscf HAS FINISHED.
Look for the output in slave1.output.
  this is node-proc. number 1 running on node c-5-27.local
  the total number of node-proc. spawned is           32
  parallel platform: MPP, or cluster with fast interconnect

 dscf (c-5-27.local) : TURBOMOLE V7.0.2( ) 15 Jan 2016 at 17:47:42
 Copyright (C) 2016 TURBOMOLE GmbH, Karlsruhe


    2018-02-19 17:15:53.650 


 SCF run will be profiled !



                             d s c f - program

                   idea & directorship : reinhart ahlrichs
                   program development : marco haeser
                                         michael baer
                           dft version : oliver treutler
           parallelized version : malte v. arnim, gina corongiu, GMD 


                          quantum chemistry group
                          universitaet  karlsruhe
                                  germany




                          References             
                                                 
          TURBOMOLE:                             
              R. Ahlrichs, M. Baer, M. Haeser, H. Horn, and
              C. Koelmel
              Electronic structure calculations on workstation
              computers: the program system TURBOMOLE
              Chem. Phys. Lett. 162: 165 (1989)
          Density Functional:                              
              O. Treutler and R. Ahlrichs                      
              Efficient Molecular Numerical Integration Schemes
              J. Chem. Phys. 102: 346 (1995)                   
          Parallel Version:                                
              Performance of parallel TURBOMOLE for Density    
              Functional Calculations                          
              M. v. Arnim and R. Ahlrichs                      
              J. Comp. Chem. 19: 1746 (1998)                   
                                         




              +--------------------------------------------------+
              | Atomic coordinate, charge and isotop information |
              +--------------------------------------------------+

                    atomic coordinates            atom    charge  isotop
          3.97940282    0.35506949   -1.19530840    c      6.000     0
          6.19090152    0.16772540    2.63989889    c      6.000     0
          8.71006308   -0.04201742    1.27188435    c      6.000     0
          6.42201396    0.19166849   -2.70111425    c      6.000     0
          8.32316372   -1.20602629   -1.22240112    n      7.000     0
          4.40544146    1.59163541    1.18067482    o      8.000     0
          9.99711346   -1.17398055   -2.17565549    h      1.000     0
         10.01363654   -1.21173539    2.37185051    h      1.000     0
          6.08982629   -0.82981161   -4.46890676    h      1.000     0
          2.56464943    1.48043183   -2.18778153    h      1.000     0
          6.40908551    1.18083206    4.42239846    h      1.000     0
          7.04667911    2.12593565   -3.16482104    h      1.000     0
          9.54362721    1.86173948    1.11313392    h      1.000     0
          5.41899358   -1.72891114    3.00900390    h      1.000     0
          3.21288341   -1.54823616   -0.84978299    h      1.000     0
 
       center of nuclear mass  :    6.33306754    0.19291384    0.00007844
       center of nuclear charge:    6.36700959    0.17670498   -0.01978764

              +--------------------------------------------------+
              |               basis set information              |
              +--------------------------------------------------+

              we will work with the 1s 3p 5d 7f 9g ... basis set
              ...i.e. with spherical basis functions...

   type   atoms  prim   cont   basis
   ---------------------------------------------------------------------------
    c        4     77     55   cc-pVQZ   [5s4p3d2f1g|21s6p3d2f1g]
    n        1     77     55   cc-pVQZ   [5s4p3d2f1g|21s6p3d2f1g]
    o        1     77     55   cc-pVQZ   [5s4p3d2f1g|21s6p3d2f1g]
    h        9     32     30   cc-pVQZ   [4s3p2d1f|6s3p2d1f]
   ---------------------------------------------------------------------------
   total:   15    750    600
   ---------------------------------------------------------------------------

   total number of primitive shells          :  111
   total number of contracted shells         :  180
   total number of cartesian basis functions :  735
   total number of SCF-basis functions       :  600


 integral neglect threshold       :  0.45E-11
 integral storage threshold THIZE :  0.10E-04
 integral storage threshold THIME :         5


 DENSITY CONVERGENCE CHECK SWITCHED ON !
 SCF CONVERGENCE IF RMS(delta[D]) <     0.1000000000E-06


 symmetry group of the molecule :   c1 

 the group has the following generators :
   c1(z)

    1 symmetry operations found

 there are 1 real representations :   a   

 maximum number of shells which are related by symmetry :  1


    mo occupation :
   irrep   mo's   occupied
    a      600       24
 
 number of basis functions   :          600
 number of occupied orbitals :           24
 
 No pre-computed optimal task distribution found
   ... using automatic task generation

          ------------------------
          nuclear repulsion energy  :   262.344364900    
          ------------------------

 
          -----------------
          -S integrals
          -----------------

 1e-integrals will be neglected if expon. factor < 0.454689E-12
 
          -----------------
          -T+V integrals
          -----------------

 1e-integrals will be neglected if expon. factor < 0.454689E-12
 
   Difference densities algorithm switched on.
   The maximal number of linear combinations of
   difference densities is          20 .

 automatic virtual orbital shift switched on 
      shift if e(lumo)-e(homo) < 0.10000000    


 DIIS switched on: error vector is FDS-SDF
 Max. Iterations for DIIS is     :   5
 DIIS matrix (see manual) 
    Scaling factor of diagonals  :  1.200
    threshold for scaling factor :  0.000

 scf convergence criterion : increment of total energy < .1000000D-06
                  and increment of one-electron energy < .1000000D-03


 <geterg> : there is no data group $energy 

  MOs are in ASCII format !


 reading orbital data $scfmo  from file mos . 

 orbital characterization : expanded
 
 mo provided and orthogonalized by Cholesky decomposition

 DSCF restart information will be dumped onto file mos


  STARTING INTEGRAL EVALUATION FOR 1st SCF ITERATION
  time elapsed for pre-SCF steps : cpu            0.989 sec
                                   wall           1.272 sec

 
                                              current damping :  0.300
 ITERATION  ENERGY          1e-ENERGY        2e-ENERGY     RMS[dD(SAO)]   TOL
   1  -285.01360732725    -902.91095367     355.55298144    0.000D+00 0.454D-11
          max. resid. norm for Fia-block=  2.979D-01 for orbital      1a         
          max. resid. fock norm         =  1.037D+01 for orbital    566a         
          Delta Eig. =   884.8032214125 eV 
 
                                              current damping :  0.250
 ITERATION  ENERGY          1e-ENERGY        2e-ENERGY     RMS[dD(SAO)]   TOL
   2  -285.99455381687    -907.98924623     359.65032751    0.344D-02 0.311D-11
          Norm of current diis error:  2.2088    
          max. resid. norm for Fia-block=  1.023D-01 for orbital      7a         
          max. resid. fock norm         =  2.781D-01 for orbital    573a         
          Delta Eig. =   201.5466088532 eV 
 
                                              current damping :  0.150
 ITERATION  ENERGY          1e-ENERGY        2e-ENERGY     RMS[dD(SAO)]   TOL
   3  -286.09799774564    -909.00205475     360.55969211    0.137D-02 0.240D-11
          Norm of current diis error: 0.78275    
          max. resid. norm for Fia-block=  3.951D-02 for orbital     22a         
          max. resid. fock norm         =  4.185D-02 for orbital     22a         
          Delta Eig. =    48.3199472556 eV 
 
                                              current damping :  0.100
 ITERATION  ENERGY          1e-ENERGY        2e-ENERGY     RMS[dD(SAO)]   TOL
   4  -286.11775987728    -909.08643251     360.62430773    0.738D-03 0.203D-11
          Norm of current diis error: 0.21325    
          max. resid. norm for Fia-block=  1.343D-02 for orbital     24a         
          max. resid. fock norm         =  2.467D-02 for orbital    571a         
          Delta Eig. =     4.9052772534 eV 
 
                                              current damping :  0.100
 ITERATION  ENERGY          1e-ENERGY        2e-ENERGY     RMS[dD(SAO)]   TOL
   5  -286.11972540004    -909.30599890     360.84190860    0.255D-03 0.186D-11
          Norm of current diis error: 0.67249E-01
          max. resid. norm for Fia-block=  5.397D-03 for orbital     24a         
          max. resid. fock norm         =  7.452D-03 for orbital    565a         
 mo-orthogonalization: Cholesky decomposition
          Delta Eig. =     1.0249825878 eV 
 
                                              current damping :  0.150
 ITERATION  ENERGY          1e-ENERGY        2e-ENERGY     RMS[dD(SAO)]   TOL
   6  -286.11997171605    -909.22969775     360.76536113    0.107D-03 0.176D-11
          Norm of current diis error: 0.26390E-01
          max. resid. norm for Fia-block=  2.765D-03 for orbital     24a         
          max. resid. fock norm         =  2.954D-03 for orbital     24a         
          Delta Eig. =     0.1554588002 eV 
 
                                              current damping :  0.200
 ITERATION  ENERGY          1e-ENERGY        2e-ENERGY     RMS[dD(SAO)]   TOL
   7  -286.12001073268    -909.25264094     360.78826531    0.346D-04 0.170D-11
          Norm of current diis error: 0.87306E-02
          max. resid. norm for Fia-block=  1.132D-03 for orbital     24a         
          max. resid. fock norm         =  1.145D-03 for orbital     24a         
          Delta Eig. =     0.0218948075 eV 
 
                                              current damping :  0.250
 ITERATION  ENERGY          1e-ENERGY        2e-ENERGY     RMS[dD(SAO)]   TOL
   8  -286.12001627648    -909.25018031     360.78579913    0.128D-04 0.164D-11
          Norm of current diis error: 0.29677E-02
          max. resid. norm for Fia-block=  4.678D-04 for orbital     24a         
          max. resid. fock norm         =  4.868D-04 for orbital     24a         
          Delta Eig. =     0.0052807072 eV 
 
                                              current damping :  0.100
 ITERATION  ENERGY          1e-ENERGY        2e-ENERGY     RMS[dD(SAO)]   TOL
   9  -286.12001695017    -909.24926118     360.78487933    0.385D-05 0.158D-11
          Norm of current diis error: 0.11170E-02
          max. resid. norm for Fia-block=  1.644D-04 for orbital     24a         
          max. resid. fock norm         =  1.677D-04 for orbital     24a         
          Delta Eig. =     0.0035866994 eV 
 
                                              current damping :  0.150
 ITERATION  ENERGY          1e-ENERGY        2e-ENERGY     RMS[dD(SAO)]   TOL
  10  -286.12001704878    -909.24964011     360.78525816    0.147D-05 0.152D-11
          Norm of current diis error: 0.32560E-03
          max. resid. norm for Fia-block=  4.585D-05 for orbital     24a         
          max. resid. fock norm         =  4.881D-05 for orbital     24a         
 mo-orthogonalization: Cholesky decomposition
          Delta Eig. =     0.0017142664 eV 
 
                                              current damping :  0.200
 ITERATION  ENERGY          1e-ENERGY        2e-ENERGY     RMS[dD(SAO)]   TOL
  11  -286.12001705546    -909.24936416     360.78498220    0.417D-06 0.148D-11
          Norm of current diis error: 0.11092E-03
          max. resid. norm for Fia-block=  1.390D-05 for orbital     24a         
          max. resid. fock norm         =  1.465D-05 for orbital     24a         
          Delta Eig. =     0.0005123546 eV 
 
                                              current damping :  0.250
 ITERATION  ENERGY          1e-ENERGY        2e-ENERGY     RMS[dD(SAO)]   TOL
  12  -286.12001705634    -909.24944747     360.78506551    0.159D-06 0.146D-11
          Norm of current diis error: 0.43797E-04
          max. resid. norm for Fia-block=  6.172D-06 for orbital     24a         
          max. resid. fock norm         =  6.411D-06 for orbital     24a         
          Delta Eig. =     0.0001417942 eV 

 ENERGY & DENSITY CONVERGED !

 
                                              current damping :  0.300
 ITERATION  ENERGY          1e-ENERGY        2e-ENERGY     RMS[dD(SAO)]   TOL
  13  -286.12001705665    -909.24944711     360.78506515    0.714D-07 0.142D-11
          max. resid. norm for Fia-block=  1.793D-06 for orbital     24a         
          max. resid. fock norm         =  1.854D-06 for orbital     24a         

 convergence criteria satisfied after 13 iterations


                  ------------------------------------------ 
                 |  total energy      =   -286.12001705665  |
                  ------------------------------------------ 
                 :  kinetic energy    =    285.69912984288  :
                 :  potential energy  =   -571.81914689953  :
                 :  virial theorem    =      1.99852898368  :
                 :  wavefunction norm =      1.00000000000  :
                  .......................................... 


 <geterg> : there is no data group $energy 


 <skperg> : $end is missing 


 orbitals $scfmo  will be written to file mos

    irrep                 20a         21a         22a         23a         24a   
 eigenvalues H         -0.50228    -0.48776    -0.46023    -0.41489    -0.37694
            eV         -13.6679    -13.2726    -12.5235    -11.2898    -10.2571
 occupation              2.0000      2.0000      2.0000      2.0000      2.0000 

    irrep                 25a         26a         27a         28a         29a   
 eigenvalues H          0.11170     0.13248     0.13650     0.15277     0.17654
            eV           3.0395      3.6049      3.7143      4.1572      4.8038
 
 
 
 
 ==============================================================================
                           electrostatic moments
 ==============================================================================

 reference point for electrostatic moments:    0.00000   0.00000   0.00000

 
              nuc           elec       ->  total
 ------------------------------------------------------------------------------
                          charge      
 ------------------------------------------------------------------------------
          48.000000     -48.000000       0.000000
 
 ------------------------------------------------------------------------------
                       dipole moment  
 ------------------------------------------------------------------------------
   x     305.616461    -305.116771       0.499690
   y       8.481839      -8.593393      -0.111554
   z      -0.949807       0.657665      -0.292142
 
   | dipole moment | =     0.5895 a.u. =     1.4983 debye 
 
 ------------------------------------------------------------------------------
                     quadrupole moment
 ------------------------------------------------------------------------------
  xx    2133.190520   -2153.555834     -20.365313
  yy      52.097181     -82.920673     -30.823492
  zz     201.186684    -226.723829     -25.537145
  xy       6.573142      -5.660538       0.912604
  xz       1.717199      -2.339397      -0.622198
  yz      18.865816     -20.121727      -1.255911
 
     1/3  trace=     -25.575317
     anisotropy=       9.509221
 
 ==============================================================================
 
 
 ! grave: sending quit signal to master process
 

    dscf profiling
  --------------------------------------------------------------------
             module   cpu total (s)       %  wall total (s)       %

          dscf.total           161.0  100.00           162.1  100.00
        dscf.prepare             0.8    0.53             1.0    0.61
      prepare.oneint             0.2    0.10             0.2    0.10
     prepare.moinput             0.0    0.01             0.0    0.01
     prepare.orthmos             0.6    0.34             0.6    0.34
            dscf.scf           160.1   99.43           161.0   99.31
             scf.pre             0.0    0.00             0.0    0.01
        scf.makedmat             0.3    0.21             0.4    0.26
          scf.shlupf           147.6   91.69           147.6   91.06
      shlupf.bc.dens             0.6    0.40             0.6    0.40
         dscf.client             0.0    0.00             0.0    0.00
         dscf.shloop           145.7   90.50           145.7   89.88
           shlupf.gs             0.6    0.36             0.6    0.36
          scf.symcar             0.1    0.06             0.1    0.05
        scf.makefock             0.1    0.07             0.6    0.36
          scf.newerg             0.0    0.00             0.0    0.01
          scf.newcnv             2.1    1.29             2.1    1.31
           scf.fdiag             6.0    3.73             6.0    3.71
         diag_tritrn             1.9    1.21             1.9    1.20
          diag_rdiag             4.0    2.50             4.0    2.48
          scf.modump             3.0    1.86             3.2    1.97
           ortho_all             0.5    0.33             0.5    0.33
            scf.post             0.3    0.18             0.4    0.22
        dscf.postscf             0.1    0.05             0.1    0.08
 


    ------------------------------------------------------------------------
         total  cpu-time :  2 minutes and 41 seconds
         total wall-time :  2 minutes and 43 seconds
    ------------------------------------------------------------------------


   ****  dscf : all done  ****


    2018-02-19 17:18:36.182 

