
 eiger (gplogin2.gp.local) : TURBOMOLE V7.3 ( 22118 ) 1 Jul 2018 at 20:38:15
 Copyright (C) 2018 TURBOMOLE GmbH, Karlsruhe


    2019-05-14 12:32:22.423 

                                                                                
  
Total energy =   -191.1693513612 H =     -5201.9856876 eV
 
 HOMO-LUMO Separation
   HOMO:    14.    14 a     -0.47076214 H =    -12.81010 eV
   LUMO:    15.    15 a     +0.10330812 H =     +2.81116 eV
   Gap :                    +0.57407027 H =    +15.62126 eV
 
Number of MOs=    345, Electrons=     28.00, Symmetry: c1   
 
   Nr.   Orbital    Occupation       Energy
   31.    31 a                     +0.537581 H =       +14.628 eV
   30.    30 a                     +0.512291 H =       +13.940 eV
   29.    29 a                     +0.503570 H =       +13.703 eV
   28.    28 a                     +0.481018 H =       +13.089 eV
   27.    27 a                     +0.473848 H =       +12.894 eV
   26.    26 a                     +0.467300 H =       +12.716 eV
   25.    25 a                     +0.459803 H =       +12.512 eV
   24.    24 a                     +0.440324 H =       +11.982 eV
   23.    23 a                     +0.337278 H =        +9.178 eV
   22.    22 a                     +0.294448 H =        +8.012 eV
   21.    21 a                     +0.270677 H =        +7.366 eV
   20.    20 a                     +0.234393 H =        +6.378 eV
   19.    19 a                     +0.194810 H =        +5.301 eV
   18.    18 a                     +0.180526 H =        +4.912 eV
   17.    17 a                     +0.149730 H =        +4.074 eV
   16.    16 a                     +0.142769 H =        +3.885 eV
   15.    15 a                     +0.103308 H =        +2.811 eV
   14.    14 a        2.000        -0.470762 H =       -12.810 eV
   13.    13 a        2.000        -0.478916 H =       -13.032 eV
   12.    12 a        2.000        -0.520253 H =       -14.157 eV
   11.    11 a        2.000        -0.556575 H =       -15.145 eV
   10.    10 a        2.000        -0.609661 H =       -16.590 eV
    9.     9 a        2.000        -0.632122 H =       -17.201 eV
    8.     8 a        2.000        -0.685418 H =       -18.651 eV
    7.     7 a        2.000        -0.715259 H =       -19.463 eV
    6.     6 a        2.000        -0.939649 H =       -25.569 eV
    5.     5 a        2.000        -1.317994 H =       -35.864 eV
    4.     4 a        2.000        -1.378649 H =       -37.515 eV
    3.     3 a        2.000       -11.280099 H =      -306.947 eV
    2.     2 a        2.000       -20.528081 H =      -558.598 eV
    1.     1 a        2.000       -20.576748 H =      -559.922 eV


    ------------------------------------------------------------------------
         total  cpu-time :   0.11 seconds
         total wall-time :   0.12 seconds
    ------------------------------------------------------------------------

   ****  eiger : all done  ****


    2019-05-14 12:32:22.525 

