Using OpenMPI from /sopt/mpi/openmpi-1.8.6/intel_15.0.3/bin/mpiexec
STARTING ridft ON 8 PROCESSORS!
RUNNING PROGRAM /beegfs/modfac/apps/TURBOMOLE/7.0_intel/bin/em64t-unknown-linux-gnu_mpi/ridft_mpi.
PLEASE WAIT UNTIL ridft HAS FINISHED.
Look for the output in slave1.output.
  this is node-proc. number 1 running on node c-5-27.local
  the total number of node-proc. spawned is            7
  parallel platform: MPP, or cluster with fast interconnect

 ridft (c-5-27.local) : TURBOMOLE V7.0( ) 6 Jul 2015 at 19:34:44
 Copyright (C) 2015 TURBOMOLE GmbH, Karlsruhe


    2017-11-08 23:57:09.564 



                                  r i d f t

                        DFT program with RI approximation 
                                for coulomb part 




                                                 
                                 References:     
                                                 
          TURBOMOLE:                             
              R. Ahlrichs, M. Baer, M. Haeser, H. Horn, and
              C. Koelmel
              Electronic structure calculations on workstation
              computers: the program system TURBOMOLE
              Chem. Phys. Lett. 162: 165 (1989)
          Density Functional:                              
              O. Treutler and R. Ahlrichs                      
              Efficient Molecular Numerical Integration Schemes
              J. Chem. Phys. 102: 346 (1995)                   
          Parallel Version:                                
              Performance of parallel TURBOMOLE for Density    
              Functional Calculations                          
              M. v. Arnim and R. Ahlrichs                      
              J. Comp. Chem. 19: 1746 (1998)                   
          RI-J Method:                                     
              Auxiliary Basis Sets to approximate Coulomb      
              Potentials                                       
              Chem. Phys. Lett. 240: 283 (1995)                
              K. Eichkorn, O. Treutler, H. Oehm, M. Haeser     
              and R. Ahlrichs                                  
              Chem. Phys. Lett. 242: 652 (1995)                
                                                           
              Auxiliary Basis Sets for Main Row Atoms and their
              Use to approximate Coulomb Potentials            
              K. Eichkorn, F. Weigend, O. Treutler and         
              R. Ahlrichs                                      
              Theo. Chem. Acc. 97: 119 (1997)                   
                                                           
              Accurate Coulomb-fitting basis sets for H to Rn 
              F. Weigend                                        
              Phys. Chem. Chem. Phys. 8: 1057 (2006)            
                                                           
          Multipole accelerated RI-J (MARI-J):             
              Fast evaluation of the Coulomb potential for     
              electron densities using multipole accelerated   
              resolution of identity approximation             
              M. Sierka, A. Hogekamp and R. Ahlrichs           
              J. Chem. Phys. 118: 9136 (2003)                  
          RI-JK Method:                                     
              A fully direct RI-HF algorithm: Implementation,
              optimised auxiliary basis sets, demonstration of
              accuracy and efficiency                         
              F. Weigend                                      
              Phys. Chem. Chem. Phys. 4: 4285 (2002)           
          Two-component HF and DFT with spin-orbit coupling:  
              Self-consistent treatment of spin-orbit         
              interactions with efficient Hartree-Fock and    
              density functional methods                      
              M. K. Armbruster, F. Weigend, C. van Wüllen and 
              W. Klopper                                      
              Phys. Chem. Chem. Phys. 10: 1748 (2008)         
          Relativistic all-electron 2c calculations           
              An efficient implementation of two-component    
              relativistic exact-decoupling methods for large 
              molecules                                       
              D. Peng, N. Middendorf, F. Weigend, M. Reiher   
              J. Chem. Phys. 138, 184105 (2013)               
                                         


 


              +--------------------------------------------------+
              |      general information about current run       |
              +--------------------------------------------------+

 

 SCF run will be profiled !


 DENSITY CONVERGENCE CHECK SWITCHED ON !
 SCF CONVERGENCE IF RMS(delta[D]) <     0.1000000000E-06

 PBE functional
 exchange:    LDA + PBE
 correlation: LDA (PW) + PBE
 A DFT calculation using the RI-J approximation will be carried out.
 Allocatable memory for RI due to $ricore (MB):       13000


              +--------------------------------------------------+
              | Atomic coordinate, charge and isotop information |
              +--------------------------------------------------+

                    atomic coordinates            atom    charge  isotop
          3.97940282    0.35506949   -1.19530840    c      6.000     0
          6.19090152    0.16772540    2.63989889    c      6.000     0
          8.71006308   -0.04201742    1.27188435    c      6.000     0
          6.42201396    0.19166849   -2.70111425    c      6.000     0
          8.32316372   -1.20602629   -1.22240112    n      7.000     0
          4.40544146    1.59163541    1.18067482    o      8.000     0
          9.99711346   -1.17398055   -2.17565549    h      1.000     0
         10.01363654   -1.21173539    2.37185051    h      1.000     0
          6.08982629   -0.82981161   -4.46890676    h      1.000     0
          2.56464943    1.48043183   -2.18778153    h      1.000     0
          6.40908551    1.18083206    4.42239846    h      1.000     0
          7.04667911    2.12593565   -3.16482104    h      1.000     0
          9.54362721    1.86173948    1.11313392    h      1.000     0
          5.41899358   -1.72891114    3.00900390    h      1.000     0
          3.21288341   -1.54823616   -0.84978299    h      1.000     0
 
       center of nuclear mass  :    6.33306754    0.19291384    0.00007844
       center of nuclear charge:    6.36700959    0.17670498   -0.01978764

              +--------------------------------------------------+
              |               basis set information              |
              +--------------------------------------------------+

              we will work with the 1s 3p 5d 7f 9g ... basis set
              ...i.e. with spherical basis functions...

   type   atoms  prim   cont   basis
   ---------------------------------------------------------------------------
    c        4     50     30   cc-pVTZ   [4s3p2d1f|18s5p2d1f]
    n        1     50     30   cc-pVTZ   [4s3p2d1f|18s5p2d1f]
    o        1     50     30   cc-pVTZ   [4s3p2d1f|18s5p2d1f]
    h        9     16     14   cc-pVTZ   [3s2p1d|5s2p1d]
   ---------------------------------------------------------------------------
   total:   15    444    306
   ---------------------------------------------------------------------------

   total number of primitive shells          :   86
   total number of contracted shells         :  114
   total number of cartesian basis functions :  345
   total number of SCF-basis functions       :  306


 integral neglect threshold       :  0.97E-13
 integral storage threshold THIZE :  0.10E-04
 integral storage threshold THIME :         5

 RI-J AUXILIARY BASIS SET information:

              we will work with the 1s 3p 5d 7f 9g ... basis set
              ...i.e. with spherical basis functions...

   type   atoms  prim   cont   basis
   ---------------------------------------------------------------------------
    c        4     70     49   cc-pVTZ   [6s4p3d1f1g|12s5p4d2f1g]
    n        1     70     49   cc-pVTZ   [6s4p3d1f1g|12s5p4d2f1g]
    o        1     70     49   cc-pVTZ   [6s4p3d1f1g|12s5p4d2f1g]
    h        9     16     11   cc-pVTZ   [3s1p1d|5s2p1d]
   ---------------------------------------------------------------------------
   total:   15    564    393
   ---------------------------------------------------------------------------

   total number of primitive shells          :   80
   total number of contracted shells         :  135
   total number of cartesian basis functions :  474
   total number of SCF-basis functions       :  393


 symmetry group of the molecule :   c1 

 the group has the following generators :
   c1(z)

    1 symmetry operations found

 there are 1 real representations :   a   

 maximum number of shells which are related by symmetry :  1


    mo occupation :
   irrep   mo's   occupied
    a      306       24
 
 number of basis functions   :          306
 number of occupied orbitals :           24
 
  
           ------------------
           density functional
           ------------------
 PBE functional
 exchange:    LDA + PBE
 correlation: LDA (PW) + PBE
 grinp -> nfun, dfgga, dfhybrid 
           6 T F
 iterations will be done with small grid
  
 spherical integration : Lebedev's spherical grid
 spherical gridsize    :           5
    i.e. gridpoints    :         590
 value for diffuse not defined
 radial integration    : Chebyshev 2nd kind (scaling 3)
 radial gridsize       :           8
 integration cells     :          15
 partition function    : becke
 partition sharpness   :           3
  

 <rddim> : input of entry tasksize
           from data group '$pardft' failed !

               Default values taken

 <rddim> : input of entry memdiv
           from data group '$pardft' failed !

               Default values taken
  RIDFT: memory allocation for DFT gridpoints
  MEMORY is divided by 1 as DEFAULT
 Each node can hold at most  the            1 -th part
 of the gridpoints    

 biggest AO integral is expected to be     4.866064444
  
           ------------------------
               RI-J - INFORMATION
           ------------------------
 
 
 **************************************************
 *      MEMORY ALLOCATION FOR PARALLEL RI-DFT     *
 **************************************************
 
 
MEMORY FOR (MU NU/ ALPHA), SEQUENTIAL RUN              12999 MByte
 
            DIFFERENCE IN MEMORY NEED:       DIAG./SLAVE  
 
      TOTAL DIFFERENCE :                      5 MByte
 
      difference in xcore:                    2 MByte
      difference in fatmat:                   2 MByte
      getcor calls skipped by slaves:         3 MByte
 
 
           Integral memory available for diagonal.     12999 MByte
 
           Integral memory available for slave             0 MByte
 
         MEMORY FOR (MU NU/ ALPHA) ON DIAGONALIZER     12999 MByte
 
         MEMORY FOR (MU NU/ ALPHA) ON ONE SLAVE            0 MByte
 
         TOTAL MEMORY FOR (MU NU/ ALPHA),ALL NODES     12999 MByte
 
 Contributions to RI integral batches: 
  neglected integral batches:         223
  direct contribution:                  0
  memory contribution:        6332
 Memory core needed for (P|Q) and Cholesky      2 MByte
 Memory core minimum needed except of (P|Q)     1 MByte
 Total minimum memory core needed (sum)         2 MByte
  
 ****************************************
 Memory allocated for RI-J 13001 MByte
 ****************************************
                                            

          ------------------------
          nuclear repulsion energy  :   262.344364900    
          ------------------------

 
          -----------------
          -S integrals
          -----------------

 1e-integrals will be neglected if expon. factor < 0.968684E-14
 
          -----------------
          -T+V integrals
          -----------------

 1e-integrals will be neglected if expon. factor < 0.968684E-14
 Difference densities >>NOT<< switched on in parallel ridft!

 automatic virtual orbital shift switched on 
      shift if e(lumo)-e(homo) < 0.10000000    


 DIIS switched on: error vector is FDS-SDF
 Max. Iterations for DIIS is     :   4
 DIIS matrix (see manual) 
    Scaling factor of diagonals  :  1.200
    threshold for scaling factor :  0.000

 scf convergence criterion : increment of total energy < .1000000D-08
                  and increment of one-electron energy < .1000000D-05


 <geterg> : there is no data group $energy 

  MOs are in ASCII format !


 reading orbital data $scfmo  from file mos . 

 orbital characterization : expanded
 
 mo provided and orthogonalized by Cholesky decomposition

 DSCF restart information will be dumped onto file mos


 Starting SCF iterations


 ITERATION  ENERGY          1e-ENERGY        2e-ENERGY     RMS[dD(SAO)]   TOL
   1  -286.44763089134    -902.94651894     354.15452315    0.000D+00 0.966D-13
                            Exc = -39.6919804091     Coul =  393.846503562    
                              N = 48.000062811    
                            current damping = 0.700
 
          max. resid. norm for Fia-block=  2.952D-01 for orbital      1a         
          max. resid. fock norm         =  4.531D+00 for orbital    298a         

 ITERATION  ENERGY          1e-ENERGY        2e-ENERGY     RMS[dD(SAO)]   TOL
   2  -287.33658829230    -907.24125724     357.56030405    0.302D-02 0.966D-13
                            Exc = -39.9051177447     Coul =  397.465421793    
                              N = 48.000059944    
                            current damping = 0.650
 
          Norm of current diis error:  1.8997    
          max. resid. norm for Fia-block=  1.227D-01 for orbital      1a         
          max. resid. fock norm         =  2.173D-01 for orbital    302a         

 ITERATION  ENERGY          1e-ENERGY        2e-ENERGY     RMS[dD(SAO)]   TOL
   3  -287.47979675992    -909.02885086     359.20468920    0.203D-02 0.966D-13
                            Exc = -40.1421452858     Coul =  399.346834484    
                              N = 48.000055653    
                            current damping = 0.550
 
          Norm of current diis error: 0.94476    
          max. resid. norm for Fia-block=  5.231D-02 for orbital     22a         
          max. resid. fock norm         =  5.690D-02 for orbital     27a         

 ITERATION  ENERGY          1e-ENERGY        2e-ENERGY     RMS[dD(SAO)]   TOL
   4  -287.52568167897    -909.00388232     359.13383574    0.170D-02 0.966D-13
                            Exc = -40.1434124052     Coul =  399.277248149    
                              N = 48.000057558    
                            current damping = 0.600
 
          Norm of current diis error: 0.38269    
          max. resid. norm for Fia-block=  2.583D-02 for orbital      7a         
          max. resid. fock norm         =  3.939D-02 for orbital    301a         

 ITERATION  ENERGY          1e-ENERGY        2e-ENERGY     RMS[dD(SAO)]   TOL
   5  -287.53319403704    -909.89391162     360.01635268    0.725D-03 0.966D-13
                            Exc = -40.2341550275     Coul =  400.250507707    
                              N = 48.000056040    
                            current damping = 0.650
 
          Norm of current diis error: 0.18138    
          max. resid. norm for Fia-block=  1.087D-02 for orbital     22a         
          max. resid. fock norm         =  1.140D-02 for orbital     23a         
          mo-orthogonalization: Cholesky decomposition

 ITERATION  ENERGY          1e-ENERGY        2e-ENERGY     RMS[dD(SAO)]   TOL
   6  -287.53511894627    -909.67981712     359.80033328    0.551D-03 0.966D-13
                            Exc = -40.2208297569     Coul =  400.021163034    
                              N = 48.000056700    
                            current damping = 0.700
 
          Norm of current diis error: 0.57940E-01
          max. resid. norm for Fia-block=  4.020D-03 for orbital     24a         
          max. resid. fock norm         =  4.212D-03 for orbital     24a         

 ITERATION  ENERGY          1e-ENERGY        2e-ENERGY     RMS[dD(SAO)]   TOL
   7  -287.53533701151    -909.70760943     359.82790752    0.188D-03 0.966D-13
                            Exc = -40.2242136230     Coul =  400.052121143    
                              N = 48.000056621    
                            current damping = 0.750
 
          Norm of current diis error: 0.24795E-01
          max. resid. norm for Fia-block=  1.503D-03 for orbital     10a         
          max. resid. fock norm         =  1.946D-03 for orbital     10a         

 ITERATION  ENERGY          1e-ENERGY        2e-ENERGY     RMS[dD(SAO)]   TOL
   8  -287.53537251411    -909.75216533     359.87242791    0.666D-04 0.966D-13
                            Exc = -40.2284154419     Coul =  400.100843353    
                              N = 48.000056670    
                            current damping = 0.600
 
          Norm of current diis error: 0.10228E-01
          max. resid. norm for Fia-block=  7.755D-04 for orbital     24a         
          max. resid. fock norm         =  8.065D-04 for orbital     24a         

 ITERATION  ENERGY          1e-ENERGY        2e-ENERGY     RMS[dD(SAO)]   TOL
   9  -287.53537980050    -909.74454767     359.86480297    0.408D-04 0.966D-13
                            Exc = -40.2285137062     Coul =  400.093316679    
                              N = 48.000056625    
                            current damping = 0.650
 
          Norm of current diis error: 0.45282E-02
          max. resid. norm for Fia-block=  2.783D-04 for orbital     22a         
          max. resid. fock norm         =  2.876D-04 for orbital     23a         

 ITERATION  ENERGY          1e-ENERGY        2e-ENERGY     RMS[dD(SAO)]   TOL
  10  -287.53538082084    -909.74671272     359.86696700    0.159D-04 0.966D-13
                            Exc = -40.2285314676     Coul =  400.095498470    
                              N = 48.000056656    
                            current damping = 0.700
 
          Norm of current diis error: 0.26884E-02
          max. resid. norm for Fia-block=  1.524D-04 for orbital      7a         
          max. resid. fock norm         =  2.368D-04 for orbital    248a         
          mo-orthogonalization: Cholesky decomposition

 ITERATION  ENERGY          1e-ENERGY        2e-ENERGY     RMS[dD(SAO)]   TOL
  11  -287.53538114230    -909.75145489     359.87170885    0.406D-05 0.966D-13
                            Exc = -40.2290170656     Coul =  400.100725916    
                              N = 48.000056645    
                            current damping = 0.550
 
          Norm of current diis error: 0.67432E-03
          max. resid. norm for Fia-block=  4.046D-05 for orbital      8a         
          max. resid. fock norm         =  6.432D-05 for orbital     10a         

 ITERATION  ENERGY          1e-ENERGY        2e-ENERGY     RMS[dD(SAO)]   TOL
  12  -287.53538116510    -909.75020167     359.87045560    0.285D-05 0.966D-13
                            Exc = -40.2289823119     Coul =  400.099437915    
                              N = 48.000056645    
                            current damping = 0.600
 
          Norm of current diis error: 0.43343E-03
          max. resid. norm for Fia-block=  3.146D-05 for orbital     24a         
          max. resid. fock norm         =  3.558D-05 for orbital     24a         

 ITERATION  ENERGY          1e-ENERGY        2e-ENERGY     RMS[dD(SAO)]   TOL
  13  -287.53538117257    -909.75026202     359.87051595    0.106D-05 0.966D-13
                            Exc = -40.2289825717     Coul =  400.099498517    
                              N = 48.000056644    
                            current damping = 0.650
 
          Norm of current diis error: 0.22345E-03
          max. resid. norm for Fia-block=  1.041D-05 for orbital     13a         
          max. resid. fock norm         =  1.464D-05 for orbital    153a         

 ITERATION  ENERGY          1e-ENERGY        2e-ENERGY     RMS[dD(SAO)]   TOL
  14  -287.53538117397    -909.75091634     359.87117026    0.277D-06 0.966D-13
                            Exc = -40.2290249896     Coul =  400.100195253    
                              N = 48.000056645    
                            current damping = 0.500
 
          Norm of current diis error: 0.11096E-03
          max. resid. norm for Fia-block=  7.406D-06 for orbital     23a         
          max. resid. fock norm         =  1.179D-05 for orbital     22a         

 ITERATION  ENERGY          1e-ENERGY        2e-ENERGY     RMS[dD(SAO)]   TOL
  15  -287.53538117413    -909.75090248     359.87115640    0.182D-06 0.966D-13
                            Exc = -40.2290340902     Coul =  400.100190492    
                              N = 48.000056644    
                            current damping = 0.550
 
          Norm of current diis error: 0.85720E-04
          max. resid. norm for Fia-block=  4.255D-06 for orbital     23a         
          max. resid. fock norm         =  5.349D-06 for orbital     23a         
          mo-orthogonalization: Cholesky decomposition

 ITERATION  ENERGY          1e-ENERGY        2e-ENERGY     RMS[dD(SAO)]   TOL
  16  -287.53538117444    -909.75074916     359.87100309    0.150D-06 0.966D-13
                            Exc = -40.2290202221     Coul =  400.100023308    
                              N = 48.000056644    
                            current damping = 0.400
 
          Norm of current diis error: 0.12440E-04
          max. resid. norm for Fia-block=  4.101D-07 for orbital     12a         
          max. resid. fock norm         =  4.200D-07 for orbital     12a         

 DENSITY CONVERGED !


 ITERATION  ENERGY          1e-ENERGY        2e-ENERGY     RMS[dD(SAO)]   TOL
  17  -287.53538117445    -909.75077509     359.87102901    0.185D-07 0.966D-13
                            Exc = -40.2290215712     Coul =  400.100050585    
                              N = 48.000056644    
                            current damping = 0.450
 
          Norm of current diis error: 0.37907E-05
          max. resid. norm for Fia-block=  2.658D-07 for orbital      8a         
          max. resid. fock norm         =  4.427D-07 for orbital    302a         

 ENERGY & DENSITY CONVERGED !


 ITERATION  ENERGY          1e-ENERGY        2e-ENERGY     RMS[dD(SAO)]   TOL
  18  -287.53538635421    -909.75077790     359.87102665    0.802D-08 0.966D-13
                            Exc = -40.2290269751     Coul =  400.100053624    
                              N = 48.000013795    
                            current damping = 0.500
 
          Norm of current diis error: 0.31446E-05
          max. resid. norm for Fia-block=  1.412D-07 for orbital     24a         
          max. resid. fock norm         =  1.804D-07 for orbital    302a         

 End of SCF iterations

   convergence criteria satisfied after   18 iterations


                  ------------------------------------------ 
                 |  total energy      =   -287.53538635421  |
                  ------------------------------------------ 
                 :  kinetic energy    =    285.62235059782  :
                 :  potential energy  =   -573.15773695203  :
                 :  virial theorem    =      1.99334678148  :
                 :  wavefunction norm =      1.00000000000  :
                  .......................................... 


 <geterg> : there is no data group $energy 


 <skperg> : $end is missing 


 orbitals $scfmo  will be written to file mos

    irrep                 20a         21a         22a         23a         24a   
 eigenvalues H         -0.31326    -0.30677    -0.26394    -0.20983    -0.18880
            eV          -8.5243     -8.3476     -7.1822     -5.7098     -5.1377
 occupation              2.0000      2.0000      2.0000      2.0000      2.0000 

    irrep                 25a         26a         27a         28a         29a   
 eigenvalues H          0.01437     0.04057     0.04664     0.05302     0.07329
            eV           0.3910      1.1039      1.2692      1.4427      1.9944
 
 
 ! grave: sending quit signal to master process
 
 
 
 
 ==============================================================================
                           electrostatic moments
 ==============================================================================

 reference point for electrostatic moments:    0.00000   0.00000   0.00000

 
              nuc           elec       ->  total
 ------------------------------------------------------------------------------
                          charge      
 ------------------------------------------------------------------------------
          48.000000     -48.000000      -0.000000
 
 ------------------------------------------------------------------------------
                       dipole moment  
 ------------------------------------------------------------------------------
   x     305.616461    -305.163137       0.453323
   y       8.481839      -8.566837      -0.084998
   z      -0.949807       0.686382      -0.263425
 
   | dipole moment | =     0.5311 a.u. =     1.3500 debye 
 
 ------------------------------------------------------------------------------
                     quadrupole moment
 ------------------------------------------------------------------------------
  xx    2133.190520   -2154.183596     -20.993076
  yy      52.097181     -82.799989     -30.702808
  zz     201.186684    -226.968662     -25.781977
  xy       6.573142      -6.027598       0.545544
  xz       1.717199      -2.391540      -0.674341
  yz      18.865816     -19.783477      -0.917662
 
     1/3  trace=     -25.825954
     anisotropy=       8.688895
 
 ==============================================================================
 

    ridft profiling
  --------------------------------------------------------------------
             module   cpu total (s)       %  wall total (s)       %

               RIDFT            42.5  100.00            42.6  100.00
         Ridft_b_scf            19.2   45.23            19.2   45.18
        b_scf_prelim             0.0    0.00             0.0    0.00
        b_scf_molinp             0.0    0.02             0.0    0.02
         b_scf_init0             0.0    0.00             0.0    0.00
        b_scf_auxbas             0.0    0.02             0.0    0.02
      b_scf_symmetry             0.0    0.05             0.0    0.12
         b_scf_cosmo             0.0    0.00             0.0    0.00
        b_scf_params            18.1   42.67            18.1   42.56
          b_scf_ri-j             1.0    2.28             1.0    2.28
    b_scf_ri-j_auxpq             1.0    2.28             1.0    2.28
     ri-j_auxpq_chol             0.0    0.02             0.0    0.02
         b_scf_1elec             0.0    0.07             0.0    0.07
       b_scf_moinput             0.0    0.12             0.0    0.12
     moinput_orthmos             0.0    0.10             0.0    0.10
    b_scf_dft-dstmax             0.0    0.00             0.0    0.00
           Ridft_scf            23.2   54.73            23.3   54.76
          Scf_b_loop             0.0    0.00             0.0    0.00
                noga             0.0    0.00             0.0    0.00
            Scf_loop            23.2   54.62            23.3   54.65
     scf_loop_mkdmat             0.0    0.09             0.0    0.09
       scf_loop_ri-j             2.9    6.81             2.9    6.80
      parlp1.bc.dens             0.0    0.00             0.0    0.01
        parlp1.gs.gp             0.6    1.39             0.6    1.40
        parlp2.bc.gq             0.0    0.00             0.0    0.00
        scf_loop_dft            18.4   43.38            18.4   43.25
      pardft.bc.dens             0.0    0.00             0.0    0.00
        dft_grid_con             0.1    0.24             0.1    0.24
           dft_xcrhf            17.8   41.81            17.8   41.73
          dft_getval             2.8    6.49             2.8    6.49
          funct2 dst             0.0    0.10             0.1    0.12
      funct2 f2loop1             0.9    2.18             0.9    2.22
      funct2 f2loop2             1.0    2.33             1.0    2.38
          funct2 s+c             0.6    1.35             0.5    1.29
        funct2 cmf_2             0.5    1.14             0.5    1.12
          dft_mkdens             7.3   17.15             7.3   17.09
         dft_gga-fun             0.1    0.21             0.1    0.23
          dft_mkfock             7.5   17.66             7.5   17.69
     pardft.red.fock             2.0    4.60             1.9    4.58
     scf_loop_energy             0.0    0.01             0.0    0.01
     scf_loop_mkfock             0.0    0.00             0.0    0.00
       scf_loop_diis             0.2    0.58             0.3    0.59
       scf_loop_diag             0.9    2.20             0.9    2.19
         diag_tritrn             0.2    0.48             0.2    0.48
          diag_rdiag             0.7    1.70             0.7    1.70
     scf_loop_modump             0.6    1.36             0.6    1.36
      scf_loop_ortho             0.1    0.14             0.1    0.14
          Scf_a_loop             0.0    0.10             0.0    0.10
         Ridft_a_scf             0.0    0.04             0.0    0.06
         a_scf_fanal             0.0    0.04             0.0    0.04
 


    ------------------------------------------------------------------------
         total  cpu-time :  42.54 seconds
         total wall-time :  42.65 seconds
    ------------------------------------------------------------------------


   ****  ridft : all done  ****


    2017-11-08 23:57:52.208 

