
   OpenMP run-time library returned nthreads = 28
 operating system is UNIX !

 dscf (c-13-32) : TURBOMOLE V7.3 ( 22142 ) 4 Jul 2018 at 18:12:42
 Copyright (C) 2018 TURBOMOLE GmbH, Karlsruhe


    2019-04-01 21:37:58.267 



                             d s c f - program

                   idea & directorship : reinhart ahlrichs
                   program development : marco haeser
                                         michael baer
                           dft version : oliver treutler


                          quantum chemistry group
                          universitaet  karlsruhe
                                  germany




                          References             
                                                 
          TURBOMOLE:                             
              R. Ahlrichs, M. Baer, M. Haeser, H. Horn, and
              C. Koelmel
              Electronic structure calculations on workstation
              computers: the program system TURBOMOLE
              Chem. Phys. Lett. 162: 165 (1989)
          Density Functional:                              
              O. Treutler and R. Ahlrichs                      
              Efficient Molecular Numerical Integration Schemes
              J. Chem. Phys. 102: 346 (1995)                   
          Parallel Version:                                
              Performance of parallel TURBOMOLE for Density    
              Functional Calculations                          
              M. v. Arnim and R. Ahlrichs                      
              J. Comp. Chem. 19: 1746 (1998)                   
                                         




              +--------------------------------------------------+
              | Atomic coordinate, charge and isotop information |
              +--------------------------------------------------+

                    atomic coordinates            atom    charge  isotop
         -0.39453209   -0.40982618   -1.95096453    o      0.000     0
          1.34383326   -0.73111946   -1.46257697    h      0.000     0
         -1.93162773   -1.40061046   -0.01030692    c      0.000     0
         -3.88809486   -1.01800933   -0.50757525    h      0.000     0
         -1.71538636   -3.44275281    0.20510540    h      0.000     0
         -1.55832695   -0.52060957    1.82291575    h      0.000     0
          3.72935655    3.59657218    0.81693084    c      6.000     0
          4.68630182    5.41344764    0.75103541    h      1.000     0
          2.95354059    3.32041540    2.70264440    h      1.000     0
          2.16154942    3.57859470   -0.50872250    h      1.000     0
          5.45964721    1.41405412    0.21993572    c      6.000     0
          4.65803523   -0.70227058   -0.31879031    o      8.000     0
          7.96568280    1.90864132    0.33180630    n      7.000     0
          8.52884471    3.62910116    0.89435356    h      1.000     0
          9.82216115   -0.05688419   -0.08911852    c      6.000     0
          9.14836572   -1.28697746   -1.58611602    h      1.000     0
         11.59920148    0.80015165   -0.65322766    h      1.000     0
         10.12359158   -1.19927448    1.59665994    h      1.000     0
 
       center of nuclear mass  :    4.07713128    0.57285919   -0.16290077
       center of nuclear charge:    6.40731116    1.29300590    0.21638592

              +--------------------------------------------------+
              |               basis set information              |
              +--------------------------------------------------+

              we will work with the 1s 3p 5d 7f 9g ... basis set
              ...i.e. with spherical basis functions...

   type   atoms  prim   cont   basis
   ---------------------------------------------------------------------------
    o        2     77     55   cc-pVQZ   [5s4p3d2f1g|21s6p3d2f1g]
    h       11     32     30   cc-pVQZ   [4s3p2d1f|6s3p2d1f]
    c        4     77     55   cc-pVQZ   [5s4p3d2f1g|21s6p3d2f1g]
    n        1     77     55   cc-pVQZ   [5s4p3d2f1g|21s6p3d2f1g]
   ---------------------------------------------------------------------------
   total:   18    891    715
   ---------------------------------------------------------------------------

   total number of primitive shells          :  111
   total number of contracted shells         :  215
   total number of cartesian basis functions :  875
   total number of SCF-basis functions       :  715


 integral neglect threshold       :  0.38E-13
 integral storage threshold THIZE :  0.10E-04
 integral storage threshold THIME :         5


 DENSITY CONVERGENCE CHECK SWITCHED ON !
 SCF CONVERGENCE IF RMS(delta[D]) <     0.1000000000E-06


 symmetry group of the molecule :   c1 

 the group has the following generators :
   c1(z)

    1 symmetry operations found

 there are 1 real representations :   a   

 maximum number of shells which are related by symmetry :  1


    mo occupation :
   irrep   mo's   occupied
    a      715       20
 
 number of basis functions   :                    715
 number of occupied orbitals :                     20
 

 automatic virtual orbital shift switched on 
      shift if e(lumo)-e(homo) < 0.10000000    


          ------------------------
          nuclear repulsion energy  :   180.738736894    
          ------------------------


         -----------------
         -S,T+V- integrals
         -----------------

 1e-integrals will be neglected if expon. factor < 0.381938E-14
 
   Difference densities algorithm switched on.
   The maximal number of linear combinations of
   difference densities is                    20 .

 DIIS switched on: error vector is FDS-SDF
 Max. Iterations for DIIS is     :   5
 DIIS matrix (see manual) 
    Scaling factor of diagonals  :  1.200
    threshold for scaling factor :  0.000

 scf convergence criterion : increment of total energy < .1000000D-08
                  and increment of one-electron energy < .1000000D-05

  MOs are in ASCII format !


 reading orbital data $scfmo  from file mos
 orbital characterization : scfconv=9

 DSCF restart information will be dumped onto file mos

 
                                              current damping :  0.700
 ITERATION  ENERGY          1e-ENERGY        2e-ENERGY     RMS[dD(SAO)]   TOL
   1  -247.05893857697    -694.60960103     266.81192556    0.000D+00 0.381D-13
          max. resid. norm for Fia-block=  1.160D-01 for orbital      1a         
          max. resid. fock norm         =  3.558D-01 for orbital    685a         
          Delta Eig. =    29.7300127356 eV 
 
                                              current damping :  0.650
 ITERATION  ENERGY          1e-ENERGY        2e-ENERGY     RMS[dD(SAO)]   TOL
   2  -247.10521672020    -694.02622930     266.18227569    0.674D-03 0.247D-13
          Norm of current diis error: 0.60970    
          max. resid. norm for Fia-block=  5.187D-02 for orbital      1a         
          max. resid. fock norm         =  1.660D-01 for orbital    679a         
          Delta Eig. =    12.9819115420 eV 
 
                                              current damping :  0.600
 ITERATION  ENERGY          1e-ENERGY        2e-ENERGY     RMS[dD(SAO)]   TOL
   3  -247.11466700348    -694.10811139     266.25470749    0.311D-03 0.187D-13
          Norm of current diis error: 0.27312    
          max. resid. norm for Fia-block=  2.412D-02 for orbital      1a         
          max. resid. fock norm         =  5.425D-02 for orbital    660a         
          Delta Eig. =     5.5730015963 eV 
 
                                              current damping :  0.650
 ITERATION  ENERGY          1e-ENERGY        2e-ENERGY     RMS[dD(SAO)]   TOL
   4  -247.11687229327    -694.10442082     266.24881164    0.149D-03 0.164D-13
          Norm of current diis error: 0.11513    
          max. resid. norm for Fia-block=  8.174D-03 for orbital      1a         
          max. resid. fock norm         =  2.243D-02 for orbital    661a         
          Delta Eig. =     2.0252499582 eV 
 
                                              current damping :  0.500
 ITERATION  ENERGY          1e-ENERGY        2e-ENERGY     RMS[dD(SAO)]   TOL
   5  -247.11728016388    -694.08713400     266.23111694    0.552D-04 0.152D-13
          Norm of current diis error: 0.50167E-01
          max. resid. norm for Fia-block=  3.469D-03 for orbital     13a         
          max. resid. fock norm         =  8.634D-03 for orbital    661a         
 mo-orthogonalization: Cholesky decomposition
          Delta Eig. =     0.8156854157 eV 
 
                                              current damping :  0.350
 ITERATION  ENERGY          1e-ENERGY        2e-ENERGY     RMS[dD(SAO)]   TOL
   6  -247.11737268090    -694.08545741     266.22934784    0.276D-04 0.143D-13
          Norm of current diis error: 0.20145E-01
          max. resid. norm for Fia-block=  1.541D-03 for orbital     13a         
          max. resid. fock norm         =  3.148D-03 for orbital    662a         
          Delta Eig. =     0.3088653428 eV 
 
                                              current damping :  0.200
 ITERATION  ENERGY          1e-ENERGY        2e-ENERGY     RMS[dD(SAO)]   TOL
   7  -247.11739101898    -694.08440016     266.22827225    0.118D-04 0.134D-13
          Norm of current diis error: 0.73107E-02
          max. resid. norm for Fia-block=  6.229D-04 for orbital     13a         
          max. resid. fock norm         =  7.976D-04 for orbital    662a         
          Delta Eig. =     0.0864924996 eV 
 
                                              current damping :  0.050
 ITERATION  ENERGY          1e-ENERGY        2e-ENERGY     RMS[dD(SAO)]   TOL
   8  -247.11739411238    -694.08417081     266.22803980    0.468D-05 0.125D-13
          Norm of current diis error: 0.24139E-02
          max. resid. norm for Fia-block=  2.251D-04 for orbital     13a         
          max. resid. fock norm         =  2.282D-04 for orbital     13a         
          Delta Eig. =     0.0197162970 eV 
 
                                              current damping :  0.050
 ITERATION  ENERGY          1e-ENERGY        2e-ENERGY     RMS[dD(SAO)]   TOL
   9  -247.11739454353    -694.08410118     266.22796974    0.168D-05 0.118D-13
          Norm of current diis error: 0.73989E-03
          max. resid. norm for Fia-block=  6.702D-05 for orbital     18a         
          max. resid. fock norm         =  7.367D-05 for orbital     19a         
          Delta Eig. =     0.0040811043 eV 
 
                                              current damping :  0.100
 ITERATION  ENERGY          1e-ENERGY        2e-ENERGY     RMS[dD(SAO)]   TOL
  10  -247.11739458179    -694.08414606     266.22801458    0.491D-06 0.113D-13
          Norm of current diis error: 0.29412E-03
          max. resid. norm for Fia-block=  3.026D-05 for orbital     20a         
          max. resid. fock norm         =  3.796D-05 for orbital    693a         
 mo-orthogonalization: Cholesky decomposition
          Delta Eig. =     0.0023219110 eV 
 
                                              current damping :  0.150
 ITERATION  ENERGY          1e-ENERGY        2e-ENERGY     RMS[dD(SAO)]   TOL
  11  -247.11739458608    -694.08412008     266.22798860    0.148D-06 0.110D-13
          Norm of current diis error: 0.14222E-03
          max. resid. norm for Fia-block=  1.111D-05 for orbital     19a         
          max. resid. fock norm         =  1.510D-05 for orbital    666a         
          Delta Eig. =     0.0008065296 eV 

 DENSITY CONVERGED !

 
                                              current damping :  0.200
 ITERATION  ENERGY          1e-ENERGY        2e-ENERGY     RMS[dD(SAO)]   TOL
  12  -247.11739458701    -694.08413129     266.22799981    0.662D-07 0.108D-13
          Norm of current diis error: 0.39018E-04
          max. resid. norm for Fia-block=  4.674D-06 for orbital     20a         
          max. resid. fock norm         =  4.859D-06 for orbital     20a         
          Delta Eig. =     0.0000610404 eV 

 ENERGY & DENSITY CONVERGED !

 
                                              current damping :  0.250
 ITERATION  ENERGY          1e-ENERGY        2e-ENERGY     RMS[dD(SAO)]   TOL
  13  -247.11739458714    -694.08412936     266.22799788    0.292D-07 0.109D-13
          max. resid. norm for Fia-block=  1.737D-06 for orbital     19a         
          max. resid. fock norm         =  1.842D-06 for orbital     19a         

 convergence criteria satisfied after    13 iterations


                  ------------------------------------------ 
                 |  total energy      =   -247.11739458714  |
                  ------------------------------------------ 
                 :  kinetic energy    =    246.85737702225  :
                 :  potential energy  =   -493.97477160939  :
                 :  virial theorem    =      1.99894779740  :
                 :  wavefunction norm =      1.00000000000  :
                  .......................................... 


 orbitals $scfmo  will be written to file mos

    irrep                 16a         17a         18a         19a         20a   
 eigenvalues H         -0.55740    -0.54723    -0.49957    -0.41930    -0.39120
            eV         -15.1678    -14.8911    -13.5940    -11.4098    -10.6451
 occupation              2.0000      2.0000      2.0000      2.0000      2.0000 

    irrep                 21a         22a         23a         24a         25a   
 eigenvalues H          0.08608     0.10343     0.13061     0.14655     0.15639
            eV           2.3425      2.8145      3.5540      3.9880      4.2557
 
 
 
 
 ==============================================================================
                           electrostatic moments
 ==============================================================================

 reference point for electrostatic moments:    0.00000   0.00000   0.00000

 
              nuc           elec       ->  total
 ------------------------------------------------------------------------------
                          charge      
 ------------------------------------------------------------------------------
          40.000000     -40.000000      -0.000000
 
 ------------------------------------------------------------------------------
                       dipole moment  
 ------------------------------------------------------------------------------
   x     256.292446    -255.412982       0.879464
   y      51.720236     -50.363232       1.357004
   z       8.655437      -8.255278       0.400159
 
   | dipole moment | =     1.6658 a.u. =     4.2342 debye 
 
 ------------------------------------------------------------------------------
                     quadrupole moment
 ------------------------------------------------------------------------------
  xx    1887.706732   -1897.947785     -10.241053
  yy     189.116654    -209.228404     -20.111750
  zz      20.344626     -43.275448     -22.930822
  xy     262.932072    -255.719060       7.213012
  xz      38.961089     -36.861143       2.099946
  yz      39.818000     -38.954067       0.863933
 
     1/3  trace=     -17.761208
     anisotropy=      17.457237
 
 ==============================================================================
 


    ------------------------------------------------------------------------
         total  cpu-time :  2 hours 18 minutes and 23 seconds
         total wall-time :  9 minutes and 13 seconds
    ------------------------------------------------------------------------

   ****  dscf : all done  ****


    2019-04-01 21:47:11.284 

