Using Slurm to start processes with PMI2
Parallel program ridft_mpi will be taken out of the TURBODIR directory.
STARTING ridft ON 8 PROCESSORS!
RUNNING PROGRAM /modfac/apps/TURBOMOLE/7.0_intel_GA/bin/em64t-unknown-linux-gnu_ga/ridft_mpi.
PLEASE WAIT UNTIL ridft HAS FINISHED.
Look for the output in slave1.output.
 <<<<<<<<<<<<<<< OUTPUT FROM PROCESS                      0 >>>>>>>>>>>>>>>
 distribution of control by ridft_mpi/rdgrad_mpi
 operating system is UNIX !
 hostname is         c-4-18.local

 ridft (c-4-18.local) : TURBOMOLE V7.0.2( ) 15 Jan 2016 at 16:16:51
 Copyright (C) 2016 TURBOMOLE GmbH, Karlsruhe


    2016-01-27 21:24:59.859 



                                  r i d f t

                        DFT program with RI approximation 
                                for coulomb part 




                                                 
                                 References:     
                                                 
          TURBOMOLE:                             
              R. Ahlrichs, M. Baer, M. Haeser, H. Horn, and
              C. Koelmel
              Electronic structure calculations on workstation
              computers: the program system TURBOMOLE
              Chem. Phys. Lett. 162: 165 (1989)
          Density Functional:                              
              O. Treutler and R. Ahlrichs                      
              Efficient Molecular Numerical Integration Schemes
              J. Chem. Phys. 102: 346 (1995)                   
          Parallel Version:                                
              Performance of parallel TURBOMOLE for Density    
              Functional Calculations                          
              M. v. Arnim and R. Ahlrichs                      
              J. Comp. Chem. 19: 1746 (1998)                   
          RI-J Method:                                     
              Auxiliary Basis Sets to approximate Coulomb      
              Potentials                                       
              Chem. Phys. Lett. 240: 283 (1995)                
              K. Eichkorn, O. Treutler, H. Oehm, M. Haeser     
              and R. Ahlrichs                                  
              Chem. Phys. Lett. 242: 652 (1995)                
                                                           
              Auxiliary Basis Sets for Main Row Atoms and their
              Use to approximate Coulomb Potentials            
              K. Eichkorn, F. Weigend, O. Treutler and         
              R. Ahlrichs                                      
              Theo. Chem. Acc. 97: 119 (1997)                   
                                                           
              Accurate Coulomb-fitting basis sets for H to Rn 
              F. Weigend                                        
              Phys. Chem. Chem. Phys. 8: 1057 (2006)            
                                                           
          Multipole accelerated RI-J (MARI-J):             
              Fast evaluation of the Coulomb potential for     
              electron densities using multipole accelerated   
              resolution of identity approximation             
              M. Sierka, A. Hogekamp and R. Ahlrichs           
              J. Chem. Phys. 118: 9136 (2003)                  
          RI-JK Method:                                     
              A fully direct RI-HF algorithm: Implementation,
              optimised auxiliary basis sets, demonstration of
              accuracy and efficiency                         
              F. Weigend                                      
              Phys. Chem. Chem. Phys. 4: 4285 (2002)           
          Two-component HF and DFT with spin-orbit coupling:  
              Self-consistent treatment of spin-orbit         
              interactions with efficient Hartree-Fock and    
              density functional methods                      
              M. K. Armbruster, F. Weigend, C. van Wüllen and 
              W. Klopper                                      
              Phys. Chem. Chem. Phys. 10: 1748 (2008)         
          Relativistic all-electron 2c calculations           
              An efficient implementation of two-component    
              relativistic exact-decoupling methods for large 
              molecules                                       
              D. Peng, N. Middendorf, F. Weigend, M. Reiher   
              J. Chem. Phys. 138, 184105 (2013)               
                                         


 Default GA heap smaller than $ricore!
GA heap raised to: 327680000
 par_setmem:              327680000                131072 F
 MA:  Allocated stack:    1.000000      MB/processor
 SHM: Allocated heap :    2500.000      MB/processor
 ********** GlobalArray OPTION SETTINGS : **********
 distributed memory heap/proc      =    327680000
 distributed memory stack/proc     =       131072
 *****************************************************
  Distributing input file(s)
 


              +--------------------------------------------------+
              |      general information about current run       |
              +--------------------------------------------------+

 

 SCF run will be profiled !

 DENSITY CONVERGENCE CHECK UNAVAILABLE IN GA VERSION!
 PBE functional
 exchange:    LDA + PBE
 correlation: LDA (PW) + PBE
 A DFT calculation using the RI-J approximation will be carried out.
 Allocatable memory for RI due to $ricore (MB):        2000


              +--------------------------------------------------+
              | Atomic coordinate, charge and isotop information |
              +--------------------------------------------------+

                    atomic coordinates            atom    charge  isotop
          2.29077327    1.67392645    0.00000000    c      6.000     0
         -0.42283783    1.89006819    0.00000000    c      6.000     0
          2.00416570   -2.84846554    0.00000000    c      6.000     0
         -1.89569130   -0.36332853    0.00000000    c      6.000     0
         -0.67454461   -2.65085257    0.00000000    c      6.000     0
          3.50423981   -0.72739016    0.00000000    c      6.000     0
         -4.67103058   -0.30001814    0.00000000    n      7.000     0
          3.30333201    3.96359173    0.00000000    n      7.000     0
          1.26591744    5.55612118    0.00000000    o      8.000     0
         -1.03666240    4.32350426    0.00000000    n      7.000     0
          6.74724407   -0.91316884    0.00000000    cl    17.000     0
         -5.67445394    1.79859374    0.00000000    o      8.000     0
         -5.79266475   -2.34826497    0.00000000    o      8.000     0
          2.87220091   -4.70406291    0.00000000    h      1.000     0
         -1.81998778   -4.35025387    0.00000000    h      1.000     0
 
       center of nuclear mass  :    0.50666566    0.57190243    0.00000000
       center of nuclear charge:    0.46151856    0.53226704    0.00000000

              +--------------------------------------------------+
              |               basis set information              |
              +--------------------------------------------------+

              we will work with the 1s 3p 5d 7f 9g ... basis set
              ...i.e. with spherical basis functions...

   type   atoms  prim   cont   basis
   ---------------------------------------------------------------------------
    c        6     50     30   cc-pVTZ   [4s3p2d1f|18s5p2d1f]
    n        3     50     30   cc-pVTZ   [4s3p2d1f|18s5p2d1f]
    o        3     50     30   cc-pVTZ   [4s3p2d1f|18s5p2d1f]
    cl       1    106     34   cc-pVTZ   [5s4p2d1f|41s16p2d1f]
    h        2     16     14   cc-pVTZ   [3s2p1d|5s2p1d]
   ---------------------------------------------------------------------------
   total:   15    738    422
   ---------------------------------------------------------------------------

   total number of primitive shells          :  146
   total number of contracted shells         :  144
   total number of cartesian basis functions :  489
   total number of SCF-basis functions       :  422


 integral neglect threshold       :  0.68E-13
 integral storage threshold THIZE :  0.10E-04
 integral storage threshold THIME :         5

 RI-J AUXILIARY BASIS SET information:

              we will work with the 1s 3p 5d 7f 9g ... basis set
              ...i.e. with spherical basis functions...

   type   atoms  prim   cont   basis
   ---------------------------------------------------------------------------
    c        6     70     49   cc-pVTZ   [6s4p3d1f1g|12s5p4d2f1g]
    n        3     70     49   cc-pVTZ   [6s4p3d1f1g|12s5p4d2f1g]
    o        3     70     49   cc-pVTZ   [6s4p3d1f1g|12s5p4d2f1g]
    cl       1     77     51   cc-pVTZ   [8s4p3d1f1g|14s5p5d2f1g]
    h        2     16     11   cc-pVTZ   [3s1p1d|5s2p1d]
   ---------------------------------------------------------------------------
   total:   15    949    661
   ---------------------------------------------------------------------------

   total number of primitive shells          :  107
   total number of contracted shells         :  207
   total number of cartesian basis functions :  819
   total number of SCF-basis functions       :  661


 symmetry group of the molecule :   c1 

 the group has the following generators :
   c1(z)

    1 symmetry operations found

 there are 1 real representations :   a   

 maximum number of shells which are related by symmetry :  1


    mo occupation :
   irrep   mo's   occupied
    a      422       50
 
 number of basis functions   :          422
 number of occupied orbitals :           50
 
  
           ------------------
           density functional
           ------------------
 PBE functional
 exchange:    LDA + PBE
 correlation: LDA (PW) + PBE
 grinp -> nfun, dfgga, dfhybrid 
           6 T F
 iterations will be done with small grid
  
 spherical integration : Lebedev's spherical grid
 spherical gridsize    :           5
    i.e. gridpoints    :         590
 value for diffuse not defined
 radial integration    : Chebyshev 2nd kind (scaling 3)
 radial gridsize       :           8
 integration cells     :          15
 partition function    : becke
 partition sharpness   :           3
  

 biggest AO integral is expected to be    10.299856942
  
           ------------------------
               RI-J - INFORMATION
           ------------------------
 Memory core needed for (P|Q) and Cholesky      2 MByte on GA
 Memory core minimum needed except           1 MByte 
  
 ****************************************
 Memory allocated for RI-J 1 MByte
 plus additional 823 MByte (integrals) (GA)
 plus additional 2 MByte (pqmatrix)  (GA)
 ****************************************
                                            

          ------------------------
          nuclear repulsion energy  :   846.265151275    
          ------------------------

 
          -----------------
          -S,T+V- integrals
          -----------------

 1e-integrals will be neglected if expon. factor < 0.683428E-14
 
   Difference densities algorithm switched on.
   The maximal number of linear combinations of
   difference densities is          20 .

 automatic virtual orbital shift switched on 
      shift if e(lumo)-e(homo) < 0.10000000    


 DIIS switched on: error vector is FDS-SDF
 Max. Iterations for DIIS is     :   4
 DIIS matrix (see manual) 
    Scaling factor of diagonals  :  1.200
    threshold for scaling factor :  0.000

 scf convergence criterion : increment of total energy < .1000000D-08
                  and increment of one-electron energy < .1000000D-05


 <geterg> : there is no data group $energy 

  MOs are in ASCII format !


 reading orbital data $scfmo  from file mos . 

 orbital characterization : expanded
 
 stacho: isym= 1 dev_max=0.338020E-09 threshold=0.100000E-09
redoing cholesky decomposition with diagonal scaling by 0.100000E+01
 mo provided and orthogonalized by Cholesky decomposition

 DSCF restart information will be dumped onto file mos


 Starting SCF iterations

 non-zero weights=       87457
          Overall gridpoints after grid construction =         87457

 ITERATION  ENERGY          1e-ENERGY        2e-ENERGY     NORM[dD(SAO)]  TOL
   1  -1076.4837942463    -3137.2934793     1214.5445338    0.000D+00 0.682D-13
                            Exc = -106.366057979     Coul =  1320.91059174    
                              N = 100.00002455    
                            current damping = 0.700
 
          max. resid. norm for Fia-block=  4.109D-01 for orbital     33a         
          max. resid. fock norm         =  4.496D+00 for orbital    400a         

 ITERATION  ENERGY          1e-ENERGY        2e-ENERGY     NORM[dD(SAO)]  TOL
   2  -1078.7540253872    -3152.7343245     1227.7151479    0.236D+01 0.478D-13
                            Exc = -106.619250446     Coul =  1334.33439830    
                              N = 100.00001205    
                            current damping = 0.650
 
          Norm of current diis error:  2.5911    
          max. resid. norm for Fia-block=  1.534D-01 for orbital     18a         
          max. resid. fock norm         =  4.605D-01 for orbital    412a         

 ITERATION  ENERGY          1e-ENERGY        2e-ENERGY     NORM[dD(SAO)]  TOL
   3  -1079.0536000501    -3157.1332262     1231.8144749    0.795D+00 0.354D-13
                            Exc = -106.942204826     Coul =  1338.75667975    
                              N = 100.00001286    
                            current damping = 0.550
 
          Norm of current diis error:  1.2646    
          max. resid. norm for Fia-block=  5.696D-02 for orbital     41a         
          max. resid. fock norm         =  9.718D-02 for orbital    220a         

 ITERATION  ENERGY          1e-ENERGY        2e-ENERGY     NORM[dD(SAO)]  TOL
   4  -1079.1512193277    -3157.9360530     1232.5196824    0.477D+00 0.293D-13
                            Exc = -106.870772030     Coul =  1339.39045443    
                              N = 100.00001462    
                            current damping = 0.450
 
          Norm of current diis error: 0.58368    
          max. resid. norm for Fia-block=  3.720D-02 for orbital     18a         
          max. resid. fock norm         =  7.157D-02 for orbital    412a         

 ITERATION  ENERGY          1e-ENERGY        2e-ENERGY     NORM[dD(SAO)]  TOL
   5  -1079.1707795330    -3158.7313708     1233.2954400    0.244D+00 0.264D-13
                            Exc = -106.961640642     Coul =  1340.25708065    
                              N = 100.00001597    
                            current damping = 0.350
 
          Norm of current diis error: 0.35019    
          max. resid. norm for Fia-block=  1.056D-02 for orbital     49a         
          max. resid. fock norm         =  2.370D-02 for orbital     25a         
          mo-orthogonalization: Cholesky decomposition

 ITERATION  ENERGY          1e-ENERGY        2e-ENERGY     NORM[dD(SAO)]  TOL
   6  -1079.1754614099    -3158.9418368     1233.5012241    0.110D+00 0.251D-13
                            Exc = -106.975817800     Coul =  1340.47704194    
                              N = 100.00001662    
                            current damping = 0.200
 
          Norm of current diis error: 0.18831    
          max. resid. norm for Fia-block=  7.523D-03 for orbital     49a         
          max. resid. fock norm         =  9.023D-03 for orbital     42a         

 ITERATION  ENERGY          1e-ENERGY        2e-ENERGY     NORM[dD(SAO)]  TOL
   7  -1079.1756230567    -3159.0074849     1233.5667106    0.657D-01 0.246D-13
                            Exc = -106.953164801     Coul =  1340.51987536    
                              N = 100.00001672    
                            current damping = 0.050
 
          Norm of current diis error: 0.18719    
          max. resid. norm for Fia-block=  4.564D-03 for orbital     44a         
          max. resid. fock norm         =  8.465D-03 for orbital    348a         
          irrep a   : virtual orbitals shifted by    0.00313

 ITERATION  ENERGY          1e-ENERGY        2e-ENERGY     NORM[dD(SAO)]  TOL
   8  -1079.1766784641    -3158.9542201     1233.5123903    0.365D-01 0.244D-13
                            Exc = -106.956490790     Coul =  1340.46888112    
                              N = 100.00001704    
                            current damping = 0.100
 
          Norm of current diis error: 0.12636    
          max. resid. norm for Fia-block=  3.252D-03 for orbital     44a         
          max. resid. fock norm         =  5.210D-03 for orbital    348a         

 ITERATION  ENERGY          1e-ENERGY        2e-ENERGY     NORM[dD(SAO)]  TOL
   9  -1079.1773320598    -3158.9230259     1233.4805425    0.115D-01 0.244D-13
                            Exc = -106.964756415     Coul =  1340.44529894    
                              N = 100.00001681    
                            current damping = 0.050
 
          Norm of current diis error: 0.53337E-01
          max. resid. norm for Fia-block=  1.911D-03 for orbital     47a         
          max. resid. fock norm         =  2.712D-03 for orbital    387a         
          irrep a   : virtual orbitals shifted by    0.00253

 ITERATION  ENERGY          1e-ENERGY        2e-ENERGY     NORM[dD(SAO)]  TOL
  10  -1079.1773462579    -3158.9782498     1233.5357523    0.104D-01 0.243D-13
                            Exc = -106.960617938     Coul =  1340.49637019    
                              N = 100.00001689    
                            current damping = 0.100
 
          Norm of current diis error: 0.48468E-01
          max. resid. norm for Fia-block=  1.946D-03 for orbital     47a         
          max. resid. fock norm         =  2.882D-03 for orbital    387a         
          mo-orthogonalization: Cholesky decomposition

 ITERATION  ENERGY          1e-ENERGY        2e-ENERGY     NORM[dD(SAO)]  TOL
  11  -1079.1774206789    -3158.9533090     1233.5107371    0.440D-02 0.242D-13
                            Exc = -106.962540058     Coul =  1340.47327714    
                              N = 100.00001688    
                            current damping = 0.150
 
          Norm of current diis error: 0.31467E-01
          max. resid. norm for Fia-block=  1.091D-03 for orbital     47a         
          max. resid. fock norm         =  1.565D-03 for orbital    386a         

 ITERATION  ENERGY          1e-ENERGY        2e-ENERGY     NORM[dD(SAO)]  TOL
  12  -1079.1774688617    -3158.9523088     1233.5096886    0.173D-02 0.243D-13
                            Exc = -106.962954015     Coul =  1340.47264265    
                              N = 100.00001687    
                            current damping = 0.050
 
          Norm of current diis error: 0.12650E-01
          max. resid. norm for Fia-block=  3.611D-04 for orbital     47a         
          max. resid. fock norm         =  6.035D-04 for orbital    413a         
          irrep a   : virtual orbitals shifted by    0.00280

 ITERATION  ENERGY          1e-ENERGY        2e-ENERGY     NORM[dD(SAO)]  TOL
  13  -1079.1774721363    -3158.9496052     1233.5069818    0.905D-03 0.241D-13
                            Exc = -106.961391282     Coul =  1340.46837304    
                              N = 100.00001688    
                            current damping = 0.050
 
          Norm of current diis error: 0.10038E-01
          max. resid. norm for Fia-block=  2.547D-04 for orbital     45a         
          max. resid. fock norm         =  4.705D-04 for orbital    413a         
          irrep a   : virtual orbitals shifted by    0.00286

 ITERATION  ENERGY          1e-ENERGY        2e-ENERGY     NORM[dD(SAO)]  TOL
  14  -1079.1774759143    -3158.9521890     1233.5095619    0.402D-03 0.241D-13
                            Exc = -106.962702269     Coul =  1340.47226412    
                              N = 100.00001687    
                            current damping = 0.100
 
          Norm of current diis error: 0.53212E-02
          max. resid. norm for Fia-block=  1.356D-04 for orbital     44a         
          max. resid. fock norm         =  2.098D-04 for orbital    418a         

 ITERATION  ENERGY          1e-ENERGY        2e-ENERGY     NORM[dD(SAO)]  TOL
  15  -1079.1774768617    -3158.9528892     1233.5102610    0.116D-03 0.242D-13
                            Exc = -106.962254163     Coul =  1340.47251520    
                              N = 100.00001688    
                            current damping = 0.050
 
          Norm of current diis error: 0.28461E-02
          max. resid. norm for Fia-block=  9.420D-05 for orbital     44a         
          max. resid. fock norm         =  1.514D-04 for orbital    418a         
          irrep a   : virtual orbitals shifted by    0.00283
          mo-orthogonalization: Cholesky decomposition

 ITERATION  ENERGY          1e-ENERGY        2e-ENERGY     NORM[dD(SAO)]  TOL
  16  -1079.1774769909    -3158.9514818     1233.5088535    0.638D-04 0.242D-13
                            Exc = -106.962319789     Coul =  1340.47117329    
                              N = 100.00001687    
                            current damping = 0.100
 
          Norm of current diis error: 0.22996E-02
          max. resid. norm for Fia-block=  5.425D-05 for orbital     44a         
          max. resid. fock norm         =  1.005D-04 for orbital    348a         

 ITERATION  ENERGY          1e-ENERGY        2e-ENERGY     NORM[dD(SAO)]  TOL
  17  -1079.1774771471    -3158.9520350     1233.5094066    0.215D-04 0.242D-13
                            Exc = -106.962327485     Coul =  1340.47173407    
                              N = 100.00001687    
                            current damping = 0.150
 
          Norm of current diis error: 0.14457E-02
          max. resid. norm for Fia-block=  5.563D-05 for orbital     47a         
          max. resid. fock norm         =  8.120D-05 for orbital    387a         

 ITERATION  ENERGY          1e-ENERGY        2e-ENERGY     NORM[dD(SAO)]  TOL
  18  -1079.1774772097    -3158.9518311     1233.5092026    0.915D-05 0.241D-13
                            Exc = -106.962306218     Coul =  1340.47150881    
                              N = 100.00001687    
                            current damping = 0.200
 
          Norm of current diis error: 0.95097E-03
          max. resid. norm for Fia-block=  4.144D-05 for orbital     47a         
          max. resid. fock norm         =  6.042D-05 for orbital    387a         

 ITERATION  ENERGY          1e-ENERGY        2e-ENERGY     NORM[dD(SAO)]  TOL
  19  -1079.1774772417    -3158.9521865     1233.5095580    0.497D-05 0.241D-13
                            Exc = -106.962341850     Coul =  1340.47189986    
                              N = 100.00001687    
                            current damping = 0.250
 
          Norm of current diis error: 0.60535E-03
          max. resid. norm for Fia-block=  1.675D-05 for orbital     47a         
          max. resid. fock norm         =  2.413D-05 for orbital    387a         

 ITERATION  ENERGY          1e-ENERGY        2e-ENERGY     NORM[dD(SAO)]  TOL
  20  -1079.1774772577    -3158.9519953     1233.5093668    0.310D-05 0.241D-13
                            Exc = -106.962310041     Coul =  1340.47167686    
                              N = 100.00001687    
                            current damping = 0.300
 
          Norm of current diis error: 0.30600E-03
          max. resid. norm for Fia-block=  8.269D-06 for orbital     45a         
          max. resid. fock norm         =  1.381D-05 for orbital     40a         
          mo-orthogonalization: Cholesky decomposition

 ITERATION  ENERGY          1e-ENERGY        2e-ENERGY     NORM[dD(SAO)]  TOL
  21  -1079.1774772611    -3158.9519735     1233.5093450    0.211D-05 0.241D-13
                            Exc = -106.962331771     Coul =  1340.47167676    
                              N = 100.00001687    
                            current damping = 0.150
 
          Norm of current diis error: 0.16403E-03
          max. resid. norm for Fia-block=  5.343D-06 for orbital     44a         
          max. resid. fock norm         =  8.909D-06 for orbital    418a         

 ITERATION  ENERGY          1e-ENERGY        2e-ENERGY     NORM[dD(SAO)]  TOL
  22  -1079.1774772615    -3158.9520484     1233.5094198    0.211D-05 0.682D-13
                            Exc = -106.962317721     Coul =  1340.47173755    
                              N = 100.00001687    
                            current damping = 0.200
 
          Norm of current diis error: 0.13394E-03
          max. resid. norm for Fia-block=  3.695D-06 for orbital     47a         
          max. resid. fock norm         =  5.755D-06 for orbital    348a         

 ITERATION  ENERGY          1e-ENERGY        2e-ENERGY     NORM[dD(SAO)]  TOL
  23  -1079.1774772619    -3158.9519953     1233.5093668    0.529D-04 0.432D-13
                            Exc = -106.962320217     Coul =  1340.47168697    
                              N = 100.00001687    
                            current damping = 0.250
 
          Norm of current diis error: 0.96916E-04
          max. resid. norm for Fia-block=  3.922D-06 for orbital     47a         
          max. resid. fock norm         =  5.722D-06 for orbital    387a         

 ITERATION  ENERGY          1e-ENERGY        2e-ENERGY     NORM[dD(SAO)]  TOL
  24  -1079.1774772622    -3158.9520179     1233.5093894    0.269D-04 0.414D-13
                            Exc = -106.962324952     Coul =  1340.47171436    
                              N = 100.00001687    
                            current damping = 0.300
 
          Norm of current diis error: 0.68931E-04
          max. resid. norm for Fia-block=  3.005D-06 for orbital     47a         
          max. resid. fock norm         =  4.376D-06 for orbital    387a         

 ITERATION  ENERGY          1e-ENERGY        2e-ENERGY     NORM[dD(SAO)]  TOL
  25  -1079.1774772623    -3158.9519997     1233.5093712    0.204D-04 0.401D-13
                            Exc = -106.962322147     Coul =  1340.47169336    
                              N = 100.00001687    
                            current damping = 0.350
 
          Norm of current diis error: 0.50519E-04
          max. resid. norm for Fia-block=  1.236D-06 for orbital     49a         
          max. resid. fock norm         =  2.102D-06 for orbital    418a         
          mo-orthogonalization: Cholesky decomposition

 ITERATION  ENERGY          1e-ENERGY        2e-ENERGY     NORM[dD(SAO)]  TOL
  26  -1079.1774772624    -3158.9520095     1233.5093810    0.110D-04 0.389D-13
                            Exc = -106.962323990     Coul =  1340.47170496    
                              N = 100.00001687    
                            current damping = 0.400
 
          Norm of current diis error: 0.28224E-04
          max. resid. norm for Fia-block=  8.605D-07 for orbital     44a         
          max. resid. fock norm         =  1.489D-06 for orbital    418a         

 ITERATION  ENERGY          1e-ENERGY        2e-ENERGY     NORM[dD(SAO)]  TOL
  27  -1079.1774772624    -3158.9520164     1233.5093879    0.139D-05 0.396D-13
                            Exc = -106.962321592     Coul =  1340.47170949    
                              N = 100.00001687    
                            current damping = 0.250
 
          Norm of current diis error: 0.17198E-04
          max. resid. norm for Fia-block=  6.673D-07 for orbital     47a         
          max. resid. fock norm         =  9.157D-07 for orbital    286a         

 ITERATION  ENERGY          1e-ENERGY        2e-ENERGY     NORM[dD(SAO)]  TOL
  28  -1079.1774772624    -3158.9520042     1233.5093757    0.407D-06 0.382D-13
                            Exc = -106.962322790     Coul =  1340.47169847    
                              N = 100.00001687    
                            current damping = 0.300
 
          Norm of current diis error: 0.18959E-04
          max. resid. norm for Fia-block=  5.904D-07 for orbital     47a         
          max. resid. fock norm         =  8.584D-07 for orbital    387a         

 ENERGY CONVERGED !

 non-zero weights=      266780
          Overall gridpoints after grid construction =        266780

 ITERATION  ENERGY          1e-ENERGY        2e-ENERGY     NORM[dD(SAO)]  TOL
  29  -1079.1775084103    -3158.9520078     1233.5093481    0.510D-07 0.358D-13
                            Exc = -106.962354746     Coul =  1340.47170284    
                              N = 100.00000083    
                            current damping = 0.350
 
          Norm of current diis error: 0.12800E-04
          max. resid. norm for Fia-block=  4.960D-07 for orbital     47a         
          max. resid. fock norm         =  6.985D-07 for orbital    387a         

 End of SCF iterations

   convergence criteria satisfied after   29 iterations


                  ------------------------------------------ 
                 |  total energy      =  -1079.17750841032  |
                  ------------------------------------------ 
                 :  kinetic energy    =   1074.11067456763  :
                 :  potential energy  =  -2153.28818297795  :
                 :  virial theorem    =      1.99530491156  :
                 :  wavefunction norm =      1.00000000000  :
                  .......................................... 


 <geterg> : there is no data group $energy 


 <skperg> : $end is missing 


 orbitals $scfmo  will be written to file mos

    irrep                 46a         47a         48a         49a         50a   
 eigenvalues H         -0.30006    -0.28961    -0.27503    -0.25677    -0.25635
            eV          -8.1651     -7.8808     -7.4839     -6.9870     -6.9758
 occupation              2.0000      2.0000      2.0000      2.0000      2.0000 

    irrep                 51a         52a         53a         54a         55a   
 eigenvalues H         -0.16381    -0.11812    -0.07161    -0.05099    -0.04166
            eV          -4.4575     -3.2143     -1.9486     -1.3875     -1.1335
 
 
 
 
 ==============================================================================
                           electrostatic moments
 ==============================================================================

 reference point for electrostatic moments:    0.00000   0.00000   0.00000

 
              nuc           elec       ->  total
 ------------------------------------------------------------------------------
                          charge      
 ------------------------------------------------------------------------------
         100.000000    -100.000000      -0.000000
 
 ------------------------------------------------------------------------------
                       dipole moment  
 ------------------------------------------------------------------------------
   x      46.151856     -44.900204       1.251652
   y      53.226704     -54.515456      -1.288752
   z       0.000000      -0.000000      -0.000000
 
   | dipole moment | =     1.7965 a.u. =     4.5663 debye 
 
 ------------------------------------------------------------------------------
                     quadrupole moment
 ------------------------------------------------------------------------------
  xx    1715.612739   -1783.270767     -67.658028
  yy     746.693912    -806.806878     -60.112966
  zz       0.000000     -57.092688     -57.092688
  xy      26.719392     -28.537796      -1.818404
  xz       0.000000      -0.000000      -0.000000
  yz       0.000000      -0.000000      -0.000000
 
     1/3  trace=     -61.621228
     anisotropy=       9.937706
 
 ==============================================================================
 

    ridft profiling
  --------------------------------------------------------------------
             module   cpu total (s)       %  wall total (s)       %

               RIDFT            41.8  100.00            37.1  100.00
         Ridft_b_scf             1.5    3.65             1.2    3.19
        b_scf_prelim             0.0    0.00             0.0    0.01
        b_scf_molinp             0.0    0.03             0.0    0.03
         b_scf_init0             0.0    0.00             0.0    0.00
        b_scf_auxbas             0.0    0.03             0.0    0.03
      b_scf_symmetry             0.0    0.01             0.0    0.01
         b_scf_cosmo             0.0    0.00             0.0    0.00
        b_scf_params             0.0    0.12             0.1    0.13
          b_scf_ri-j             1.1    2.71             0.9    2.47
    b_scf_ri-j_auxpq             0.7    1.70             0.5    1.33
     ri-j_auxpq_chol             0.4    1.06             0.2    0.60
         b_scf_1elec             0.0    0.07             0.0    0.08
       b_scf_moinput             0.3    0.68             0.2    0.43
     moinput_orthmos             0.3    0.64             0.1    0.39
    b_scf_dft-dstmax             0.0    0.00             0.0    0.00
           Ridft_scf            40.3   96.28            35.9   96.73
          Scf_b_loop             0.0    0.01             0.0    0.01
                noga             0.0    0.00             0.0    0.00
            Scf_loop            40.2   96.08            35.8   96.49
     scf_loop_mkdmat             0.1    0.36             0.2    0.41
       scf_loop_ri-j             2.2    5.33             2.2    6.02
    ri-j_near_lpdrc1             0.4    1.00             0.4    1.14
    ri-j_near_lpdrc2             0.4    1.00             0.4    1.13
        scf_loop_dft            28.2   67.41            28.2   75.96
        dft_grid_con             0.2    0.56             0.2    0.63
           dft_xcrhf            27.4   65.63            27.5   73.98
          dft_getval             3.9    9.32             3.9   10.50
          funct2 dst             0.1    0.20             0.1    0.19
      funct2 f2loop1             0.8    1.84             0.8    2.11
      funct2 f2loop2             1.7    4.09             1.7    4.71
          funct2 s+c             1.2    2.79             1.1    3.04
        funct2 cmf_2             1.0    2.46             1.0    2.66
          dft_mkdens            10.1   24.12            10.1   27.18
         dft_gga-fun             0.1    0.33             0.2    0.40
          dft_mkfock            13.2   31.49            13.2   35.51
     scf_loop_energy             0.0    0.04             0.0    0.03
     scf_loop_mkfock             0.0    0.01             0.0    0.02
       scf_loop_diis             1.7    4.12             0.9    2.55
       scf_loop_diag             7.1   17.08             3.8   10.21
     scf_loop_modump             0.0    0.00             0.0    0.00
      scf_loop_ortho             0.5    1.18             0.3    0.69
          Scf_a_loop             0.1    0.19             0.1    0.22
         Ridft_a_scf             0.0    0.06             0.0    0.08
         a_scf_fanal             0.0    0.06             0.0    0.08
 


    ------------------------------------------------------------------------
         total  cpu-time :  41.92 seconds
         total wall-time :  37.23 seconds
    ------------------------------------------------------------------------


   ****  ridft : all done  ****


    2016-01-27 21:25:37.087 

