
   OpenMP run-time library returned nthreads = 24

 rirpa (c-9-29) : TURBOMOLE V7.3 ( 22142 ) 4 Jul 2018 at 18:12:42
 Copyright (C) 2018 TURBOMOLE GmbH, Karlsruhe


    2019-02-25 10:46:42.614 

 
 
    *************************************************************************
    *************************** PROGRAM RIRPA *******************************
    ******                                                             ******
    ******              H. Eshuis, J. E. Bates and F. Furche           ******
    ******                                                             ******
    ****** Nov 2011                                                    ******
    ****** Copyright TURBOMOLE GmbH                                    ******
    *************************************************************************
    
    
                                References:                                  
    
                   RIRPA:                                                    
                     H. Eshuis, J. Yarkony and F. Furche                     
                     Fast computation of molecular random phase              
                     approximation correlation energies using resolution     
                     of the identity imaginary frequency integration         
                     J. Chem. Phys. 132: 234114 (2010)                       
    
                     H. Eshuis, J. E. Bates and F. Furche                    
                     Electron correlation methods based on                   
                     the random phase approximation                          
                     Theor. Chem. Acc.  131: 1084 (2012)                     
    
                   TWO-COMPONENT RIRPA:                                      
                     M. Kuehn                                                
                     Correlation energies from the                           
                     two-component random-phase approximation                
                     J. Chem. Theory Comput. 10: 623 (2014)                  
    
                   RIRPA GRADIENTS:                                          
                     Asbjoern M. Burow, Jefferson E. Bates, Filipp Furche*,  
                     and Henk Eshuis                                         
                     Analytical First-Order Molecular Properties and Forces  
                     within the Adiabatic Connection Random Phase            
                     Approximation                                           
                     J. Chem. Theory Comput. 10: 180 (2014)                  
    
    
    
      ... OpenMP parallelization enabled, threads:   24

   *-----------------------------------------------------------------------*
   |                     program will use 24 thread(s)                     |
   *-----------------------------------------------------------------------*
 
                FOUND RI-J FLAG
 
  HF exact exchange energy will be computed using RI-J.
 
  The HXX energy will NOT be computed due to nohxx option. 
 


              +--------------------------------------------------+
              | Atomic coordinate, charge and isotop information |
              +--------------------------------------------------+

                    atomic coordinates            atom    charge  isotop
         -1.00170129    2.31805571   15.84505276    n      7.000     0
          5.31260054    8.80247574  -12.26789569    n      7.000     0
         -5.74252517   -8.72741374   15.08786916    c      6.000     0
         -4.70351651  -10.31159045   15.90297894    h      1.000     0
         -7.75911269   -9.02351561   15.40229565    h      1.000     0
         -4.83412851   -6.21303683   16.10287351    c      6.000     0
         -2.50911660   -6.02458570   17.33950789    c      6.000     0
         -1.41258511   -7.71326969   17.74521999    h      1.000     0
         -1.59098968   -3.66999475   18.09590118    c      6.000     0
          0.20824256   -3.55691128   19.08011524    h      1.000     0
         -2.98868314   -1.48057959   17.62299555    c      6.000     0
         -5.36331131   -1.68293163   16.46955188    c      6.000     0
         -6.52010133   -0.01093774   16.17715671    h      1.000     0
         -6.27720278   -4.02715808   15.71622017    c      6.000     0
         -8.13399519   -4.15067540   14.84637519    h      1.000     0
         -1.91148343    1.09507496   18.24237661    c      6.000     0
         -3.31697045    2.36282002   19.06142616    h      1.000     0
         -0.30063392    0.97232014   19.52443429    h      1.000     0
          1.16576937    1.48095751   14.75656209    c      6.000     0
          2.24884660    0.12121890   15.83781087    h      1.000     0
          1.87912817    2.28831354   12.39291117    c      6.000     0
          3.59743878    1.52294874   11.58630487    h      1.000     0
          0.35672335    3.99004817   11.01374326    c      6.000     0
         -1.81730941    4.90346858   12.25761134    c      6.000     0
         -3.01516031    6.31867982   11.38873098    h      1.000     0
         -2.45234310    4.04966733   14.63320828    c      6.000     0
         -4.10882304    4.70865953   15.64068547    h      1.000     0
          0.97905751    4.71514027    8.41938944    c      6.000     0
          3.48019551    4.61072616    7.51685567    c      6.000     0
          5.01971819    4.13678801    8.78711448    h      1.000     0
          4.03574125    5.22839933    5.03444311    c      6.000     0
          5.99361279    5.22219551    4.42670163    h      1.000     0
          2.11863298    5.94397410    3.33390844    c      6.000     0
         -0.37523468    6.05787375    4.24465543    c      6.000     0
         -1.90801451    6.54103237    2.97409510    h      1.000     0
         -0.93247104    5.47330923    6.73447633    c      6.000     0
         -2.88889797    5.51223131    7.34635281    h      1.000     0
          2.70470807    6.55490059    0.67874189    c      6.000     0
          4.84118024    5.52430218   -0.51917879    c      6.000     0
          6.04707843    4.21250962    0.49193042    h      1.000     0
          5.39338444    6.08571887   -3.01523261    c      6.000     0
          7.01713589    5.19510865   -3.89469237    h      1.000     0
          3.81285694    7.68177811   -4.43742284    c      6.000     0
          1.67615842    8.72372231   -3.24108994    c      6.000     0
          0.46975975   10.04505874   -4.24467029    h      1.000     0
          1.14638868    8.18346480   -0.73487075    c      6.000     0
         -0.45949799    9.09388558    0.15672476    h      1.000     0
          4.35244875    8.17984595   -7.10282861    c      6.000     0
          6.81490818    7.99237540   -8.10778452    c      6.000     0
          8.42599045    7.63803371   -6.89494045    h      1.000     0
          7.24231209    8.29999251  -10.65682116    c      6.000     0
          9.10739620    8.16588729  -11.49142434    h      1.000     0
          2.93422847    9.10981974  -11.35539154    c      6.000     0
          1.48735408    9.53541993  -12.73973165    h      1.000     0
          2.42106266    8.82815465   -8.82460402    c      6.000     0
          0.48325162    9.04166319   -8.20138957    h      1.000     0
          1.01094286   -2.32119823  -15.83105176    n      7.000     0
         -5.33239582   -8.79516515   12.27764423    n      7.000     0
          5.72327903    8.73562219  -15.07805193    c      6.000     0
          4.68061693   10.31746071  -15.89302714    h      1.000     0
          7.73911852    9.03646443  -15.39254294    h      1.000     0
          4.82124996    6.21888502  -16.09294024    c      6.000     0
          2.49013572    6.02156372  -17.31673453    c      6.000     0
          1.38352354    7.70579594  -17.71349191    h      1.000     0
          1.57903022    3.66413182  -18.07223093    c      6.000     0
         -0.22491057    3.54436047  -19.04698368    h      1.000     0
          2.99002732    1.48048342  -17.61181574    c      6.000     0
          5.37047993    1.69214113  -16.47228438    c      6.000     0
          6.53764747    0.02550810  -16.19081488    h      1.000     0
          6.27757098    4.03953103  -15.71983843    c      6.000     0
          8.13934181    4.17038411  -14.86183333    h      1.000     0
          1.92101528   -1.09916963  -18.22869492    c      6.000     0
          3.33157682   -2.36376765  -19.04376436    h      1.000     0
          0.31151322   -0.98346404  -19.51308881    h      1.000     0
         -1.16832261   -1.49954893  -14.75441867    c      6.000     0
         -2.25999456   -0.15460202  -15.84543426    h      1.000     0
         -1.88414116   -2.30460192  -12.39072074    c      6.000     0
         -3.61326061   -1.55173837  -11.59527644    h      1.000     0
         -0.35342696   -3.98873205  -10.99915147    c      6.000     0
          1.83308349   -4.88799006  -12.23164008    c      6.000     0
          3.03858311   -6.29154180  -11.35458652    h      1.000     0
          2.47096517   -4.03639716  -14.60705718    c      6.000     0
          4.13697294   -4.68494521  -15.60552285    h      1.000     0
         -0.98115635   -4.71315813   -8.40592868    c      6.000     0
         -3.48623302   -4.62098571   -7.51256475    c      6.000     0
         -5.02374357   -4.15533682   -8.78824648    h      1.000     0
         -4.04832499   -5.24071468   -5.03214128    c      6.000     0
         -6.00827087   -5.24344541   -4.43099065    h      1.000     0
         -2.13412591   -5.94791940   -3.32484651    c      6.000     0
          0.36342967   -6.05125499   -4.22650350    c      6.000     0
          1.89248199   -6.52922443   -2.94944556    h      1.000     0
          0.92744757   -5.46253880   -6.71366004    c      6.000     0
          2.88636985   -5.49218066   -7.31804187    h      1.000     0
         -2.72492498   -6.56014302   -0.67121554    c      6.000     0
         -4.86578518   -5.53426471    0.52292871    c      6.000     0
         -6.07474915   -4.22758157   -0.49140044    h      1.000     0
         -5.41903852   -6.09456421    3.01912594    c      6.000     0
         -7.04672317   -5.20793516    3.89546387    h      1.000     0
         -3.83554995   -7.68456338    4.44494114    c      6.000     0
         -1.69655750   -8.72458344    3.25107918    c      6.000     0
         -0.48904186  -10.04362536    4.25628260    h      1.000     0
         -1.16565331   -8.18562892    0.74504856    c      6.000     0
          0.44208117   -9.09411628   -0.14519497    h      1.000     0
         -4.37447648   -8.17878446    7.11109455    c      6.000     0
         -6.83688801   -7.99375438    8.11654935    c      6.000     0
         -8.44921660   -7.64341664    6.90416363    h      1.000     0
         -7.26321216   -8.29832282   10.66619543    c      6.000     0
         -9.12842908   -8.16636904   11.50088249    h      1.000     0
         -2.95343092   -9.09843698   11.36524810    c      6.000     0
         -1.50532110   -9.51974041   12.74965163    h      1.000     0
         -2.44145026   -8.82025113    8.83391633    c      6.000     0
         -0.50321877   -9.03023917    8.21054563    h      1.000     0
 
       center of nuclear mass  :   -0.00489693    0.00008624    0.00525065
       center of nuclear charge:   -0.00488945    0.00007730    0.00524483
              +-------------------------------------------------+
              |        Rotational Constants Section             |
              +-------------------------------------------------+
                                   Center of Mass [a.u]:
              -0.00489693137834         0.00008624267251         0.00525064613609
                     Principal Moments of Inertia [a.u.]
           33654.37146784995275    122693.95358090529044    150378.93518364572083
                       Rotational constants A,B,C [a.u.]
               0.00001485691095         0.00000407518044         0.00000332493377
                     Rotational constants A,B,C [cm**-1]
               0.00178876276308         0.00049064917006         0.00040031994124
                        Rotational constants A,B,C [MHz]
              53.62575855217295        14.70929207094138        12.00128991707565

   * BASIS SET information:

              +--------------------------------------------------+
              |               basis set information              |
              +--------------------------------------------------+

              we will work with the 1s 3p 5d 7f 9g ... basis set
              ...i.e. with spherical basis functions...

   type   atoms  prim   cont   basis
   ---------------------------------------------------------------------------
    n        4     50     30   cc-pVTZ   [4s3p2d1f|18s5p2d1f]
    c       60     50     30   cc-pVTZ   [4s3p2d1f|18s5p2d1f]
    h       48     16     14   cc-pVTZ   [3s2p1d|5s2p1d]
   ---------------------------------------------------------------------------
   total:  112   3968   2592
   ---------------------------------------------------------------------------

   total number of primitive shells          :   60
   total number of contracted shells         :  928
   total number of cartesian basis functions : 2960
   total number of SCF-basis functions       : 2592


   * AUXILIARY BASIS SET information:

              +--------------------------------------------------+
              |               basis set information              |
              +--------------------------------------------------+

              we will work with the 1s 3p 5d 7f 9g ... basis set
              ...i.e. with spherical basis functions...

   type   atoms  prim   cont   basis
   ---------------------------------------------------------------------------
    n        4     81     81   cc-pVTZ   [8s6p5d3f1g|8s6p5d3f1g]
    c       60     81     81   cc-pVTZ   [8s6p5d3f1g|8s6p5d3f1g]
    h       48     30     30   cc-pVTZ   [4s3p2d1f|4s3p2d1f]
   ---------------------------------------------------------------------------
   total:  112   6624   6624
   ---------------------------------------------------------------------------

   total number of primitive shells          :   56
   total number of contracted shells         : 1952
   total number of cartesian basis functions : 8144
   total number of SCF-basis functions       : 6624


   * RIJ AUXILIARY BASIS SET information:

              +--------------------------------------------------+
              |               basis set information              |
              +--------------------------------------------------+

              we will work with the 1s 3p 5d 7f 9g ... basis set
              ...i.e. with spherical basis functions...

   type   atoms  prim   cont   basis
   ---------------------------------------------------------------------------
    n        4     70     49   cc-pVTZ   [6s4p3d1f1g|12s5p4d2f1g]
    c       60     70     49   cc-pVTZ   [6s4p3d1f1g|12s5p4d2f1g]
    h       48     16     11   cc-pVTZ   [3s1p1d|5s2p1d]
   ---------------------------------------------------------------------------
   total:  112   5248   3664
   ---------------------------------------------------------------------------

   total number of primitive shells          :   56
   total number of contracted shells         : 1200
   total number of cartesian basis functions : 4480
   total number of SCF-basis functions       : 3664

  No keyword $dft found! - HARTREE FOCK CALCULATION

 reading orbital data $scfmo  from file mos
 orbital characterization : scfconv=7

 integral neglect threshold       :  0.29E+02

 scfconv                     7

 MAXIMUM CORE MEMORY WHICH CAN BE ALLOCATED DYNAMICALLY = 84000 MiB
              ( or 11010048000 double words per process)


 there are 1 real representations :   a   

 maximum number of shells which are related by symmetry :  1

 time elapsed for calculating density matrices :   3.633 sec

     total memory allocated for calculation of (Q|P)**(-1/2) : 503 MiB


     calculation of (P|Q) ...
     time in lp2sym        cpu:  1 min  4 s  wall:  0 min  3 s  ratio: 22.3


     calculation of the Cholesky decomposition of (P|Q)**(-1) ...
     time in invmetri      cpu: 11 min  0 s  wall:  0 min 31 s  ratio: 21.4

   threshold for RMS(d[D]) in SCF was     :  0.10E-06
   integral neglect threshold             :  0.41E-12
   derivative integral neglect threshold  :  0.10E-06


 setting up bound for integral derivative estimation

 increment for numerical differentiation : 0.00050000
 total memory allocated for calculation of (Q|P)**(-1/2) : 503 MiB
 Dividing biap into                    348  block chunks,
 using                   120 MiB per block
 Reserved                  41786 MiB for BLAS routines
 Estimated total memory usage:                  83916 MiB
 number of passes for ispin    1
 =    1
 
 Number of eigenvalues < 6e-3:                      0
 
 
            -----------------------------
            Complex frequency integration
            -----------------------------
 
 Number of Clenshaw-Curtis nodes:                    100
 Optimized scaling parameter    :    1.00000000000000     
 Sensitivity measure            :  -1.210503919324424E-012
 
 Done with rirpa frequency point #                     1
 Done with rirpa frequency point #                     2
 Done with rirpa frequency point #                     3
 Done with rirpa frequency point #                     4
 Done with rirpa frequency point #                     5
 Done with rirpa frequency point #                     6
 Done with rirpa frequency point #                     7
 Done with rirpa frequency point #                     8
 Done with rirpa frequency point #                     9
 Done with rirpa frequency point #                    10
 Done with rirpa frequency point #                    11
 Done with rirpa frequency point #                    12
 Done with rirpa frequency point #                    13
 Done with rirpa frequency point #                    14
 Done with rirpa frequency point #                    15
 Done with rirpa frequency point #                    16
 Done with rirpa frequency point #                    17
 Done with rirpa frequency point #                    18
 Done with rirpa frequency point #                    19
 Done with rirpa frequency point #                    20
 Done with rirpa frequency point #                    21
 Done with rirpa frequency point #                    22
 Done with rirpa frequency point #                    23
 Done with rirpa frequency point #                    24
 Done with rirpa frequency point #                    25
 Done with rirpa frequency point #                    26
 Done with rirpa frequency point #                    27
 Done with rirpa frequency point #                    28
 Done with rirpa frequency point #                    29
 Done with rirpa frequency point #                    30
 Done with rirpa frequency point #                    31
 Done with rirpa frequency point #                    32
 Done with rirpa frequency point #                    33
 Done with rirpa frequency point #                    34
 Done with rirpa frequency point #                    35
 Done with rirpa frequency point #                    36
 Done with rirpa frequency point #                    37
 Done with rirpa frequency point #                    38
 Done with rirpa frequency point #                    39
 Done with rirpa frequency point #                    40
 Done with rirpa frequency point #                    41
 Done with rirpa frequency point #                    42
 Done with rirpa frequency point #                    43
 Done with rirpa frequency point #                    44
 Done with rirpa frequency point #                    45
 Done with rirpa frequency point #                    46
 Done with rirpa frequency point #                    47
 Done with rirpa frequency point #                    48
 Done with rirpa frequency point #                    49
 Done with rirpa frequency point #                    50
 Done with rirpa frequency point #                    51
 Done with rirpa frequency point #                    52
 Done with rirpa frequency point #                    53
 Done with rirpa frequency point #                    54
 Done with rirpa frequency point #                    55
 Done with rirpa frequency point #                    56
 Done with rirpa frequency point #                    57
 Done with rirpa frequency point #                    58
 Done with rirpa frequency point #                    59
 Done with rirpa frequency point #                    60
 Done with rirpa frequency point #                    61
 Done with rirpa frequency point #                    62
 Done with rirpa frequency point #                    63
 Done with rirpa frequency point #                    64
 Done with rirpa frequency point #                    65
 Done with rirpa frequency point #                    66
 Done with rirpa frequency point #                    67
 Done with rirpa frequency point #                    68
 Done with rirpa frequency point #                    69
 Done with rirpa frequency point #                    70
 Done with rirpa frequency point #                    71
 Done with rirpa frequency point #                    72
 Done with rirpa frequency point #                    73
 Done with rirpa frequency point #                    74
 Done with rirpa frequency point #                    75
 Done with rirpa frequency point #                    76
 Done with rirpa frequency point #                    77
 Done with rirpa frequency point #                    78
 Done with rirpa frequency point #                    79
 Done with rirpa frequency point #                    80
 Done with rirpa frequency point #                    81
 Done with rirpa frequency point #                    82
 Done with rirpa frequency point #                    83
 Done with rirpa frequency point #                    84
 Done with rirpa frequency point #                    85
 Done with rirpa frequency point #                    86
 Done with rirpa frequency point #                    87
 Done with rirpa frequency point #                    88
 Done with rirpa frequency point #                    89
 Done with rirpa frequency point #                    90
 Done with rirpa frequency point #                    91
 Done with rirpa frequency point #                    92
 Done with rirpa frequency point #                    93
 Done with rirpa frequency point #                    94
 Done with rirpa frequency point #                    95
 Done with rirpa frequency point #                    96
 Done with rirpa frequency point #                    97
 Done with rirpa frequency point #                    98
 Done with rirpa frequency point #                    99
 Done with rirpa frequency point #                   100
 


 RI-RPA correlation energy: -0.1160076123808709E+02
 
 
 HXX Energy calculation skipped due to nohxx option
 

                  --------------------------------------------------- 
                 |  HXX+RIRPA total energy     =    -11.60076123809  |
                  ---------------------------------------------------- 
                 :  RIRPA correlation energy   =    -11.60076123809  :
                 :  HXX total energy           =      0.00000000000  :
                 :  Hartree energy             =      0.00000000000  :
                 :  Exact Exchange energy      =      0.00000000000  :
                  .................................................... 


    ------------------------------------------------------------------------
    Rirpa profiling                cpu                    wall         ratio
    ------------------------------------------------------------------------
    module                         sec     %               sec     %
    ------------------------------------------------------------------------
    RIRPA                    452265.7  100.00        30358.4  100.00  14.9
    riccmos                      29.7    0.01           30.9    0.10   1.0
    riccaux                     724.0    0.16           33.8    0.11  21.4
    ccmkbaoi                  32103.4    7.10         1907.8    6.28  16.8
    cc3idxnrm                  1172.4    0.26          146.8    0.48   8.0
    ecrpa                    418183.9   92.46        28178.8   92.82  14.8
    tread                      3157.6    0.70         6183.2   20.37   0.5
    tqbuild                  400412.7   88.53        20031.7   65.98  20.0
    trpaln                     6683.0    1.48          295.0    0.97  22.7
    ------------------------------------------------------------------------
    sum                     1314778.0  290.71        87217.4  287.29  15.1
    ------------------------------------------------------------------------


    ------------------------------------------------------------------------
         total  cpu-time :   5 days  5 hours 37 minutes and 48 seconds
         total wall-time :  8 hours 25 minutes and 59 seconds
    ------------------------------------------------------------------------

   ****  rirpa : all done  ****


    2019-02-25 19:12:41.918 

