
 eiger (gplogin1.local) : TURBOMOLE V7.2 ( 21285 ) 30 Jun 2017 at 11:51:10
 Copyright (C) 2017 TURBOMOLE GmbH, Karlsruhe


    2017-11-21 18:15:44.093 

                                                                                
  
 HOMO-LUMO Separation
   HOMO:   241.   241 a     -0.15643385 H =     -4.25678 eV
   LUMO:   242.   242 a     -0.07854443 H =     -2.13730 eV
   Gap :                    +0.07788941 H =     +2.11948 eV
 
Number of MOs=   2866, Electrons=    482.00, Symmetry: c1   
 
   Nr.   Orbital    Occupation       Energy
  258.   258 a                     +0.018019 H =        +0.490 eV
  257.   257 a                     +0.016087 H =        +0.438 eV
  256.   256 a                     +0.012932 H =        +0.352 eV
  255.   255 a                     +0.004792 H =        +0.130 eV
  254.   254 a                     +0.002219 H =        +0.060 eV
  253.   253 a                     -0.002679 H =        -0.073 eV
  252.   252 a                     -0.005567 H =        -0.151 eV
  251.   251 a                     -0.009255 H =        -0.252 eV
  250.   250 a                     -0.013013 H =        -0.354 eV
  249.   249 a                     -0.021011 H =        -0.572 eV
  248.   248 a                     -0.022337 H =        -0.608 eV
  247.   247 a                     -0.035168 H =        -0.957 eV
  246.   246 a                     -0.038560 H =        -1.049 eV
  245.   245 a                     -0.045997 H =        -1.252 eV
  244.   244 a                     -0.051547 H =        -1.403 eV
  243.   243 a                     -0.068132 H =        -1.854 eV
  242.   242 a                     -0.078544 H =        -2.137 eV
  241.   241 a        2.000        -0.156434 H =        -4.257 eV
  240.   240 a        2.000        -0.171627 H =        -4.670 eV
  239.   239 a        2.000        -0.175659 H =        -4.780 eV
  238.   238 a        2.000        -0.184486 H =        -5.020 eV
  237.   237 a        2.000        -0.192618 H =        -5.241 eV
  236.   236 a        2.000        -0.198162 H =        -5.392 eV
  235.   235 a        2.000        -0.203615 H =        -5.541 eV
  234.   234 a        2.000        -0.207450 H =        -5.645 eV
  233.   233 a        2.000        -0.208419 H =        -5.671 eV
  232.   232 a        2.000        -0.209574 H =        -5.703 eV
  231.   231 a        2.000        -0.209802 H =        -5.709 eV
  230.   230 a        2.000        -0.213854 H =        -5.819 eV
  229.   229 a        2.000        -0.223864 H =        -6.092 eV
  228.   228 a        2.000        -0.226663 H =        -6.168 eV
  227.   227 a        2.000        -0.231014 H =        -6.286 eV
  226.   226 a        2.000        -0.232784 H =        -6.334 eV


    ------------------------------------------------------------------------
         total  cpu-time :   7.59 seconds
         total wall-time :   7.88 seconds
    ------------------------------------------------------------------------

   ****  eiger : all done  ****


    2017-11-21 18:15:51.924 

