
   OpenMP run-time library returned nthreads = 28

 ricc2 (c-14-42) : TURBOMOLE V7.3 ( 22142 ) 4 Jul 2018 at 18:12:42
 Copyright (C) 2018 TURBOMOLE GmbH, Karlsruhe


    2019-04-01 21:40:59.745 



                              R I C C 2 - PROGRAM

                          the quantum chemistry groups
                             at the universities in
                           Karlsruhe, Bochum & Mainz
                                   Germany



   *-----------------------------------------------------------------------*
   |                     program will use 28 thread(s)                     |
   *-----------------------------------------------------------------------*


              +--------------------------------------------------+
              | Atomic coordinate, charge and isotop information |
              +--------------------------------------------------+

                    atomic coordinates            atom    charge  isotop
         -1.07659254    1.53894091    0.19104705    n      7.000     0
          0.24732308    1.06091238   -1.11043058    h      1.000     0
         -2.76136637    0.99572467   -0.52993583    h      1.000     0
         -0.57733848    0.12417447    2.51105246    c      6.000     0
         -1.99772300    0.59388455    3.92299473    h      1.000     0
         -0.54428559   -1.93185282    2.29572672    h      1.000     0
          1.24808422    0.69638133    3.26968398    h      1.000     0
 
       center of nuclear mass  :   -0.83239664    0.78799428    1.31198236
       center of nuclear charge:   -0.82267480    0.71848241    1.34731573

              +--------------------------------------------------+
              |               basis set information              |
              +--------------------------------------------------+

              we will work with the 1s 3p 5d 7f 9g ... basis set
              ...i.e. with spherical basis functions...

   type   atoms  prim   cont   basis
   ---------------------------------------------------------------------------
    n        1     77     55   cc-pVQZ   [5s4p3d2f1g|21s6p3d2f1g]
    h        5     32     30   cc-pVQZ   [4s3p2d1f|6s3p2d1f]
    c        1     77     55   cc-pVQZ   [5s4p3d2f1g|21s6p3d2f1g]
   ---------------------------------------------------------------------------
   total:    7    314    260
   ---------------------------------------------------------------------------

   total number of primitive shells          :   78
   total number of contracted shells         :   80
   total number of cartesian basis functions :  315
   total number of SCF-basis functions       :  260


 symmetry group of the molecule :   c1 

 the group has the following generators :
   c1(z)

    1 symmetry operations found

 there are 1 real representations :   a   


   =========================================================================


     restricted closed shell calculation for the wavefunction models:
               MP2        - Second Order Moeller Plesset PT


     global parameters for ricc2 program:

        hard restart (reuse of interm.) :  disabled
        soft restart (reuse of vectors) :  disabled
        threshold for vector function   :    0.100000E-05
        convergence threshold energy    :    0.100000E-06
        linear dependence threshold     :    0.100000E-13
        global print level              :      1
        maximum number of iterations    :   300
        maximum number DIIS vectors     :    10
        max. dim. of reduced space      :   100
        core memory limit (MB)          : *****


     MP2 energy only: Energy will be calculated directly from T2 amplitudes!

     Scratch Directory : 


   =========================================================================

    der. integral neglect threshold  :  0.10E-07
    integral neglect threshold       :  0.11E-10
    integral storage threshold THIZE :  0.10E-04
    integral storage threshold THIME :         5


                  +------------------------------------------+
                  |     Auxiliary basis set information      |
                  +------------------------------------------+

              we will work with the 1s 3p 5d 7f 9g ... basis set
              ...i.e. with spherical basis functions...

   type   atoms  prim   cont   basis
   ---------------------------------------------------------------------------
    n        1    132    132   cc-pVQZ   [8s7p6d5f3g1h|8s7p6d5f3g1h]
    h        5     55     55   cc-pVQZ   [5s4p3d2f1g|5s4p3d2f1g]
    c        1    132    132   cc-pVQZ   [8s7p6d5f3g1h|8s7p6d5f3g1h]
   ---------------------------------------------------------------------------
   total:    7    539    539
   ---------------------------------------------------------------------------

   total number of primitive shells          :   75
   total number of contracted shells         :  135
   total number of cartesian basis functions :  712
   total number of SCF-basis functions       :  539


 maximum number of shells which are related by symmetry :  1


 The symmetry information takes   1 MB

*---------------------------------------------------------------------*
|               simplified C1 algorithm will be applied               |
*---------------------------------------------------------------------*
  MOs are in ASCII format !


 reading orbital data $scfmo  from file mos
 orbital characterization : scfconv=9



              +--------------------------------------------+
              | list of orbitals that will be kept frozen: |
              +--------------------------------------------+
              |   irrep   index      energy     occ/vir    |
              +--------------------------------------------+
              |   a         1      -15.5366     occupied   |
              |   a         2      -11.2385     occupied   |
              +--------------------------------------------+



   Molecular Orbital Statistic:
   ============================

   -----------------------------
   orbitals in total:
   -----------------------------
    frozen occupied :      2
    active occupied :      7
    active virtual  :    251
    frozen virtual  :      0
    all together    :    260
   -----------------------------


     time in riccmos       cpu:  2.77 sec    wall:  0.11 sec    ratio: 24.5

     total memory allocated for calculation of (Q|P)**(-1/2) : 4 MiB


     calculation of (P|Q) ...
     time in lp2sym        cpu:  0.81 sec    wall:  0.03 sec    ratio: 27.1


     calculation of the Cholesky decomposition of (P|Q)**(-1) ...
     time in invmetri      cpu:  1.34 sec    wall:  0.05 sec    ratio: 27.8

   threshold for RMS(d[D]) in SCF was     :  0.10E-06
   integral neglect threshold             :  0.11E-10
   derivative integral neglect threshold  :  0.10E-07


   =========================================================================

     Energy of reference wave function is   -95.2605426715600
     Maximum orbital residual is           0.1943091727377E-06


     Number of symmetry-nonredundant auxiliary basis functions:      539

     Block lengths for integral files:
        frozen occupied (BOI):        1 MiB
        active occupied (BJI):        1 MiB
        active virtual  (BAI):        2 MiB
        frozen virtual  (BGI):        0 MiB
               general  (BTI):        2 MiB

   =========================================================================




   **************************************************************************
   *                                                                        *
   *          OPTIMIZATION OF THE GROUND STATE CLUSTER AMPLITUDES           *
   *                                                                        *
   **************************************************************************


   Iter.   MP2 energy       Norm(Omega)   Norm(t1)  Norm(t2)     cpu    wall
   ...........................................................................
    1    -95.6918126929     ------          0.00000   0.20972    0.03    0.00
   ...........................................................................


     time in total         cpu:  2.01 sec    wall:  0.08 sec    ratio: 24.5


     **********************************************************************
     *                                                                    *
     *   RHF  energy                             :    -95.2605426716      *
     *   MP2 correlation energy (doubles)        :     -0.4312700214      *
     *                                                                    *
     *   Final MP2 energy                        :    -95.6918126929      *
     *                                                                    *
     *    E(S)   =     -0.2934355436      E(T)   =     -0.1378344778      *
     *    E(OS)  =     -0.3393803695      E(SS)  =     -0.0918896518      *
     *                                                                    *
     *   SCS-MP2 energy                          :    -95.6984289989      *
     *   (computed with  C(OS) =   1.2000  and  C(SS) =   0.3333)         *
     *                                                                    *
     *   SOS-MP2 energy                          :    -95.7017371519      *
     *   (computed with  C(OS) =   1.3000)                                *
     *                                                                    *
     *   Norm of MP1 T2 amplitudes               :      0.2097203394      *
     *                                                                    *
     **********************************************************************



    ------------------------------------------------------------------------
         total  cpu-time :  22.64 seconds
         total wall-time :   0.93 seconds
    ------------------------------------------------------------------------

   ****  ricc2 : all done  ****


    2019-04-01 21:41:00.613 

