           Doing BLAS/Lapack in the master proc. with  8 CPUs.
           SMPCPUS    set: Shared-memory Parallelization with   8 CPUs.

           SMP Parallelization Reference:
           C. van Wullen, J. Comput. Chem. 32 (2011) 1195--1201
 operating system is UNIX !

 ridft (c-18-134.gp.local) : TURBOMOLE V7.2 ( 21454 ) 4 Oct 2017 at 12:48:15
 Copyright (C) 2017 TURBOMOLE GmbH, Karlsruhe


    2018-04-28 20:54:19.625 



                                  r i d f t

                        DFT program with RI approximation 
                                for coulomb part 




                                                 
                                 References:     
                                                 
          TURBOMOLE:                             
              R. Ahlrichs, M. Baer, M. Haeser, H. Horn, and
              C. Koelmel
              Electronic structure calculations on workstation
              computers: the program system TURBOMOLE
              Chem. Phys. Lett. 162: 165 (1989)
          Density Functional:                              
              O. Treutler and R. Ahlrichs                      
              Efficient Molecular Numerical Integration Schemes
              J. Chem. Phys. 102: 346 (1995)                   
          Parallel Version:                                
              Performance of parallel TURBOMOLE for Density    
              Functional Calculations                          
              M. v. Arnim and R. Ahlrichs                      
              J. Comp. Chem. 19: 1746 (1998)                   
          RI-J Method:                                     
              Auxiliary Basis Sets to approximate Coulomb      
              Potentials                                       
              Chem. Phys. Lett. 240: 283 (1995)                
              K. Eichkorn, O. Treutler, H. Oehm, M. Haeser     
              and R. Ahlrichs                                  
              Chem. Phys. Lett. 242: 652 (1995)                
                                                           
              Auxiliary Basis Sets for Main Row Atoms and their
              Use to approximate Coulomb Potentials            
              K. Eichkorn, F. Weigend, O. Treutler and         
              R. Ahlrichs                                      
              Theo. Chem. Acc. 97: 119 (1997)                   
                                                           
              Accurate Coulomb-fitting basis sets for H to Rn 
              F. Weigend                                        
              Phys. Chem. Chem. Phys. 8: 1057 (2006)            
                                                           
          Multipole accelerated RI-J (MARI-J):             
              Fast evaluation of the Coulomb potential for     
              electron densities using multipole accelerated   
              resolution of identity approximation             
              M. Sierka, A. Hogekamp and R. Ahlrichs           
              J. Chem. Phys. 118: 9136 (2003)                  
          RI-JK Method:                                     
              A fully direct RI-HF algorithm: Implementation,
              optimised auxiliary basis sets, demonstration of
              accuracy and efficiency                         
              F. Weigend                                      
              Phys. Chem. Chem. Phys. 4: 4285 (2002)           
          Two-component HF and DFT with spin-orbit coupling:  
              Self-consistent treatment of spin-orbit         
              interactions with efficient Hartree-Fock and    
              density functional methods                      
              M. K. Armbruster, F. Weigend, C. van Wüllen and 
              W. Klopper                                      
              Phys. Chem. Chem. Phys. 10: 1748 (2008)         
          Relativistic all-electron 2c calculations           
              An efficient implementation of two-component    
              relativistic exact-decoupling methods for large 
              molecules                                       
              D. Peng, N. Middendorf, F. Weigend, M. Reiher   
              J. Chem. Phys. 138, 184105 (2013)               
                                         




              +--------------------------------------------------+
              |      general information about current run       |
              +--------------------------------------------------+

 

 DENSITY CONVERGENCE CHECK SWITCHED ON !
 SCF CONVERGENCE IF RMS(delta[D]) <     0.1000000000E-06

 PBE functional
 exchange:    LDA + PBE
 correlation: LDA (PW) + PBE
 A DFT calculation using the RI-J approximation will be carried out.
 Allocatable memory for RI due to $ricore (MB):                  5000


              +--------------------------------------------------+
              | Atomic coordinate, charge and isotop information |
              +--------------------------------------------------+

                    atomic coordinates            atom    charge  isotop
         -1.68837811   -0.08285376   -0.08125341    n      0.000     0
          0.18320566   -0.48388223   -0.13430270    h      0.000     0
         -2.58597454   -1.76385271    0.06394404    h      0.000     0
         -2.22190687    1.43223798    2.16418465    c      0.000     0
         -4.23606037    1.83722200    2.25826930    h      0.000     0
         -1.66445103    0.57494301    3.96315083    h      0.000     0
         -1.25289924    3.23961306    2.00463880    h      0.000     0
          4.31700288   -0.08971758    0.05258204    o      8.000     0
          4.84995500    0.60938427   -1.53453106    h      1.000     0
          5.04627436    1.63292702    1.97903719    c      6.000     0
          4.43554691    0.82103893    3.76117469    h      1.000     0
          7.08917269    1.89575669    2.05281204    h      1.000     0
          4.14208848    3.47276031    1.76138509    h      1.000     0
 
       center of nuclear mass  :    1.43252781    0.70530001    1.01073857
       center of nuclear charge:    4.74057957    0.88215343    1.01865112

              +--------------------------------------------------+
              |               basis set information              |
              +--------------------------------------------------+

              we will work with the 1s 3p 5d 7f 9g ... basis set
              ...i.e. with spherical basis functions...

   type   atoms  prim   cont   basis
   ---------------------------------------------------------------------------
    n        1     77     55   cc-pVQZ   [5s4p3d2f1g|21s6p3d2f1g]
    h        9     32     30   cc-pVQZ   [4s3p2d1f|6s3p2d1f]
    c        2     77     55   cc-pVQZ   [5s4p3d2f1g|21s6p3d2f1g]
    o        1     77     55   cc-pVQZ   [5s4p3d2f1g|21s6p3d2f1g]
   ---------------------------------------------------------------------------
   total:   13    596    490
   ---------------------------------------------------------------------------

   total number of primitive shells          :  111
   total number of contracted shells         :  150
   total number of cartesian basis functions :  595
   total number of SCF-basis functions       :  490


 integral neglect threshold       :  0.56E-13
 integral storage threshold THIZE :  0.10E-04
 integral storage threshold THIME :         5

 RI-J AUXILIARY BASIS SET information:

              we will work with the 1s 3p 5d 7f 9g ... basis set
              ...i.e. with spherical basis functions...

   type   atoms  prim   cont   basis
   ---------------------------------------------------------------------------
    n        1     70     49   cc-pVQZ   [6s4p3d1f1g|12s5p4d2f1g]
    h        9     16     11   cc-pVQZ   [3s1p1d|5s2p1d]
    c        2     70     49   cc-pVQZ   [6s4p3d1f1g|12s5p4d2f1g]
    o        1     70     49   cc-pVQZ   [6s4p3d1f1g|12s5p4d2f1g]
   ---------------------------------------------------------------------------
   total:   13    424    295
   ---------------------------------------------------------------------------

   total number of primitive shells          :   80
   total number of contracted shells         :  105
   total number of cartesian basis functions :  352
   total number of SCF-basis functions       :  295


 symmetry group of the molecule :   c1 

 the group has the following generators :
   c1(z)

    1 symmetry operations found

 there are 1 real representations :   a   

 maximum number of shells which are related by symmetry :  1


    mo occupation :
   irrep   mo's   occupied
    a      490        9
 
 number of basis functions   :                    490
 number of occupied orbitals :                      9
 
  
           ------------------
           density functional
           ------------------
 Dummy atoms with grid-point found.
 DFT quadrature threshold dgrenze tightened by factor 1/10.

 PBE functional
 exchange:    LDA + PBE
 correlation: LDA (PW) + PBE
 Dummy atoms with grid-point found.
 DFT quadrature threshold dgrenze tightened by factor 1/10.

 Dummy atoms with grid-point found.
 DFT quadrature threshold dgrenze tightened by factor 1/10.


 iterations will be done with small grid
  
 spherical integration : Lebedev's spherical grid
 spherical gridsize    :                     5
    i.e. gridpoints    :                   590
 value for diffuse not defined
 radial integration    : Chebyshev 2nd kind (scaling 3)
 radial gridsize       :                     8
 integration cells     :                    13
 partition function    : becke
 partition sharpness   :                     3
  
 found dummy atom(s) with basis: included in dft

 biggest AO integral is expected to be     4.785886462
  
           ------------------------
               RI-J - INFORMATION
           ------------------------
 Contributions to RI integral batches: 
  neglected integral batches:                  1908
  direct contribution:                            0
  memory contribution:                  9417
 Memory core needed for (P|Q) and Cholesky      1 MByte
 Memory core minimum needed except of (P|Q)     2 MByte
 Total minimum memory core needed (sum)         2 MByte
  
 ****************************************
 Memory allocated for RI-J   385 MByte
 ****************************************
                                            

          ------------------------
          nuclear repulsion energy  :   40.3471075981    
          ------------------------


         -----------------
         -S,T+V- integrals
         -----------------

 1e-integrals will be neglected if expon. factor < 0.561674E-14
 Difference densities >>NOT<< switched on in parallel ridft!

 DIIS switched on: error vector is FDS-SDF
 Max. Iterations for DIIS is     :   4
 DIIS matrix (see manual) 
    Scaling factor of diagonals  :  1.200
    threshold for scaling factor :  0.000

 scf convergence criterion : increment of total energy < .1000000D-08
                  and increment of one-electron energy < .1000000D-05

  MOs are in ASCII format !


 automatic virtual orbital shift switched on 
      shift if e(lumo)-e(homo) < 0.10000000    


 reading orbital data $scfmo  from file mos
 orbital characterization : expanded
 mo provided and orthogonalized by Cholesky decomposition

 DSCF restart information will be dumped onto file mos


 Starting SCF iterations

          Overall gridpoints after grid construction =         65828

 ITERATION  ENERGY          1e-ENERGY        2e-ENERGY     RMS[dD(SAO)]   TOL
   1  -115.17834852442    -236.25438103     80.728924904    0.000D+00 0.560D-13
                            Exc = -15.2581055837     Coul =  95.9870304876    
                              N = 17.999973041    
                            current damping = 0.700
 
          max. resid. norm for Fia-block=  3.236D-01 for orbital      1a         
          max. resid. fock norm         =  2.645D+01 for orbital    472a         

 ITERATION  ENERGY          1e-ENERGY        2e-ENERGY     RMS[dD(SAO)]   TOL
   2  -115.55716799934    -236.48345274     80.579177142    0.228D-02 0.560D-13
                            Exc = -15.2514443263     Coul =  95.8306214681    
                              N = 17.999980911    
                            current damping = 0.650
 
          Norm of current diis error:  1.6180    
          max. resid. norm for Fia-block=  1.396D-01 for orbital      1a         
          max. resid. fock norm         =  2.046D-01 for orbital    455a         

 ITERATION  ENERGY          1e-ENERGY        2e-ENERGY     RMS[dD(SAO)]   TOL
   3  -115.61645674078    -237.08964738     81.126083040    0.119D-02 0.560D-13
                            Exc = -15.3525858760     Coul =  96.4786689160    
                              N = 17.999984023    
                            current damping = 0.600
 
          Norm of current diis error: 0.76491    
          max. resid. norm for Fia-block=  5.637D-02 for orbital      1a         
          max. resid. fock norm         =  5.932D-02 for orbital      1a         

 ITERATION  ENERGY          1e-ENERGY        2e-ENERGY     RMS[dD(SAO)]   TOL
   4  -115.63426524353    -236.82127570     80.839902855    0.745D-03 0.560D-13
                            Exc = -15.3314473392     Coul =  96.1713501941    
                              N = 17.999985115    
                            current damping = 0.650
 
          Norm of current diis error: 0.29516    
          max. resid. norm for Fia-block=  2.086D-02 for orbital      3a         
          max. resid. fock norm         =  3.530D-02 for orbital    459a         

 ITERATION  ENERGY          1e-ENERGY        2e-ENERGY     RMS[dD(SAO)]   TOL
   5  -115.63729511308    -237.11400786     81.129605146    0.310D-03 0.560D-13
                            Exc = -15.3714318077     Coul =  96.5010369533    
                              N = 17.999985683    
                            current damping = 0.700
 
          Norm of current diis error: 0.12503    
          max. resid. norm for Fia-block=  8.780D-03 for orbital      8a         
          max. resid. fock norm         =  1.085D-02 for orbital    456a         
          mo-orthogonalization: Cholesky decomposition

 ITERATION  ENERGY          1e-ENERGY        2e-ENERGY     RMS[dD(SAO)]   TOL
   6  -115.63791422643    -237.02037411     81.035352284    0.196D-03 0.560D-13
                            Exc = -15.3634029282     Coul =  96.3987552123    
                              N = 17.999985742    
                            current damping = 0.750
 
          Norm of current diis error: 0.48808E-01
          max. resid. norm for Fia-block=  3.475D-03 for orbital      1a         
          max. resid. fock norm         =  4.892D-03 for orbital    456a         

 ITERATION  ENERGY          1e-ENERGY        2e-ENERGY     RMS[dD(SAO)]   TOL
   7  -115.63801464714    -237.04548613     81.060363889    0.702D-04 0.560D-13
                            Exc = -15.3670381006     Coul =  96.4274019896    
                              N = 17.999985802    
                            current damping = 0.800
 
          Norm of current diis error: 0.19536E-01
          max. resid. norm for Fia-block=  1.480D-03 for orbital      1a         
          max. resid. fock norm         =  2.432D-03 for orbital    456a         

 ITERATION  ENERGY          1e-ENERGY        2e-ENERGY     RMS[dD(SAO)]   TOL
   8  -115.63803167038    -237.04748568     81.062346410    0.319D-04 0.560D-13
                            Exc = -15.3677543217     Coul =  96.4301007321    
                              N = 17.999985823    
                            current damping = 0.650
 
          Norm of current diis error: 0.89951E-02
          max. resid. norm for Fia-block=  6.590D-04 for orbital      1a         
          max. resid. fock norm         =  1.021D-03 for orbital    430a         

 ITERATION  ENERGY          1e-ENERGY        2e-ENERGY     RMS[dD(SAO)]   TOL
   9  -115.63803555212    -237.05031178     81.065168631    0.158D-04 0.560D-13
                            Exc = -15.3682429360     Coul =  96.4334115665    
                              N = 17.999985834    
                            current damping = 0.500
 
          Norm of current diis error: 0.33808E-02
          max. resid. norm for Fia-block=  2.627D-04 for orbital      1a         
          max. resid. fock norm         =  4.569D-04 for orbital    430a         

 ITERATION  ENERGY          1e-ENERGY        2e-ENERGY     RMS[dD(SAO)]   TOL
  10  -115.63803612761    -237.04914762     81.064003894    0.738D-05 0.560D-13
                            Exc = -15.3682169105     Coul =  96.4322208042    
                              N = 17.999985837    
                            current damping = 0.550
 
          Norm of current diis error: 0.13895E-02
          max. resid. norm for Fia-block=  9.739D-05 for orbital      4a         
          max. resid. fock norm         =  1.624D-04 for orbital    430a         
          mo-orthogonalization: Cholesky decomposition

 ITERATION  ENERGY          1e-ENERGY        2e-ENERGY     RMS[dD(SAO)]   TOL
  11  -115.63803620179    -237.05100494     81.065861143    0.185D-05 0.560D-13
                            Exc = -15.3684469213     Coul =  96.4343080640    
                              N = 17.999985839    
                            current damping = 0.600
 
          Norm of current diis error: 0.58557E-03
          max. resid. norm for Fia-block=  3.974D-05 for orbital      8a         
          max. resid. fock norm         =  5.712D-05 for orbital    458a         

 ITERATION  ENERGY          1e-ENERGY        2e-ENERGY     RMS[dD(SAO)]   TOL
  12  -115.63803621466    -237.05038680     81.065242987    0.102D-05 0.560D-13
                            Exc = -15.3683843347     Coul =  96.4336273214    
                              N = 17.999985839    
                            current damping = 0.650
 
          Norm of current diis error: 0.18730E-03
          max. resid. norm for Fia-block=  1.267D-05 for orbital      4a         
          max. resid. fock norm         =  2.766D-05 for orbital    430a         

 ITERATION  ENERGY          1e-ENERGY        2e-ENERGY     RMS[dD(SAO)]   TOL
  13  -115.63803621585    -237.05041935     81.065275531    0.263D-06 0.560D-13
                            Exc = -15.3683943703     Coul =  96.4336699014    
                              N = 17.999985840    
                            current damping = 0.700
 
          Norm of current diis error: 0.69949E-04
          max. resid. norm for Fia-block=  4.632D-06 for orbital      1a         
          max. resid. fock norm         =  8.036D-06 for orbital    260a         

 ITERATION  ENERGY          1e-ENERGY        2e-ENERGY     RMS[dD(SAO)]   TOL
  14  -115.63803621606    -237.05043696     81.065293141    0.113D-06 0.560D-13
                            Exc = -15.3683968795     Coul =  96.4336900207    
                              N = 17.999985840    
                            current damping = 0.550
 
          Norm of current diis error: 0.24355E-04
          max. resid. norm for Fia-block=  1.874D-06 for orbital      1a         
          max. resid. fock norm         =  3.822D-06 for orbital    430a         

 DENSITY CONVERGED !


 ITERATION  ENERGY          1e-ENERGY        2e-ENERGY     RMS[dD(SAO)]   TOL
  15  -115.63803621610    -237.05044775     81.065303939    0.482D-07 0.560D-13
                            Exc = -15.3683985795     Coul =  96.4337025180    
                              N = 17.999985840    
                            current damping = 0.400
 
          Norm of current diis error: 0.86242E-05
          max. resid. norm for Fia-block=  7.128D-07 for orbital      8a         
          max. resid. fock norm         =  1.493D-06 for orbital    421a         
          mo-orthogonalization: Cholesky decomposition

 ENERGY & DENSITY CONVERGED !

          Overall gridpoints after grid construction =        193404

 ITERATION  ENERGY          1e-ENERGY        2e-ENERGY     RMS[dD(SAO)]   TOL
  16  -115.63804393709    -237.05043940     81.065287864    0.225D-07 0.560D-13
                            Exc = -15.3684055985     Coul =  96.4336934630    
                              N = 18.000001393    
                            current damping = 0.450
 
          Norm of current diis error: 0.50292E-05
          max. resid. norm for Fia-block=  3.408D-07 for orbital      5a         
          max. resid. fock norm         =  5.744D-07 for orbital    430a         

 End of SCF iterations

   convergence criteria satisfied after    16 iterations


                  ------------------------------------------ 
                 |  total energy      =   -115.63804393709  |
                  ------------------------------------------ 
                 :  kinetic energy    =    115.21651927131  :
                 :  potential energy  =   -230.85456320840  :
                 :  virial theorem    =      1.99635479249  :
                 :  wavefunction norm =      1.00000000000  :
                  .......................................... 


 <geterg> : there is no data group $energy 


 <skperg> : $end is missing 


 orbitals $scfmo  will be written to file mos

    irrep                  5a          6a          7a          8a          9a   
 eigenvalues H         -0.45901    -0.39112    -0.37977    -0.29367    -0.22925
            eV         -12.4903    -10.6429    -10.3342     -7.9913     -6.2382
 occupation              2.0000      2.0000      2.0000      2.0000      2.0000 

    irrep                 10a         11a         12a         13a         14a   
 eigenvalues H         -0.00321     0.03253     0.05264     0.07441     0.08641
            eV          -0.0873      0.8852      1.4324      2.0247      2.3512
 
 
 
 
 ==============================================================================
                           electrostatic moments
 ==============================================================================

 reference point for electrostatic moments:    0.00000   0.00000   0.00000

 
              nuc           elec       ->  total
 ------------------------------------------------------------------------------
                          charge      
 ------------------------------------------------------------------------------
          18.000000     -18.000000       0.000000
 
 ------------------------------------------------------------------------------
                       dipole moment  
 ------------------------------------------------------------------------------
   x      85.330432     -85.015750       0.314683
   y      15.878762     -15.343479       0.535282
   z      18.335720     -18.442498      -0.106778
 
   | dipole moment | =     0.6300 a.u. =     1.6014 debye 
 
 ------------------------------------------------------------------------------
                     quadrupole moment
 ------------------------------------------------------------------------------
  xx     412.490826    -419.962130      -7.471304
  yy      32.762510     -42.671854      -9.909344
  zz      47.339384     -55.545524      -8.206141
  xy      80.763768     -78.203239       2.560529
  xz      92.825574     -93.528849      -0.703275
  yz      31.513452     -31.545043      -0.031591
 
     1/3  trace=      -8.528929
     anisotropy=       5.084109
 
 ==============================================================================
 


    ------------------------------------------------------------------------
         total  cpu-time :  3 minutes and 29 seconds
         total wall-time :  28.69 seconds
    ------------------------------------------------------------------------

   ****  ridft : all done  ****


    2018-04-28 20:54:48.298 

