           Doing BLAS/Lapack in the master proc. with  8 CPUs.
           SMPCPUS    set: Shared-memory Parallelization with   8 CPUs.

           SMP Parallelization Reference:
           C. van Wullen, J. Comput. Chem. 32 (2011) 1195--1201
 operating system is UNIX !

 ridft (c-8-331.gp.local) : TURBOMOLE V7.2 ( 21454 ) 4 Oct 2017 at 12:48:15
 Copyright (C) 2017 TURBOMOLE GmbH, Karlsruhe


    2018-04-28 20:56:44.705 



                                  r i d f t

                        DFT program with RI approximation 
                                for coulomb part 




                                                 
                                 References:     
                                                 
          TURBOMOLE:                             
              R. Ahlrichs, M. Baer, M. Haeser, H. Horn, and
              C. Koelmel
              Electronic structure calculations on workstation
              computers: the program system TURBOMOLE
              Chem. Phys. Lett. 162: 165 (1989)
          Density Functional:                              
              O. Treutler and R. Ahlrichs                      
              Efficient Molecular Numerical Integration Schemes
              J. Chem. Phys. 102: 346 (1995)                   
          Parallel Version:                                
              Performance of parallel TURBOMOLE for Density    
              Functional Calculations                          
              M. v. Arnim and R. Ahlrichs                      
              J. Comp. Chem. 19: 1746 (1998)                   
          RI-J Method:                                     
              Auxiliary Basis Sets to approximate Coulomb      
              Potentials                                       
              Chem. Phys. Lett. 240: 283 (1995)                
              K. Eichkorn, O. Treutler, H. Oehm, M. Haeser     
              and R. Ahlrichs                                  
              Chem. Phys. Lett. 242: 652 (1995)                
                                                           
              Auxiliary Basis Sets for Main Row Atoms and their
              Use to approximate Coulomb Potentials            
              K. Eichkorn, F. Weigend, O. Treutler and         
              R. Ahlrichs                                      
              Theo. Chem. Acc. 97: 119 (1997)                   
                                                           
              Accurate Coulomb-fitting basis sets for H to Rn 
              F. Weigend                                        
              Phys. Chem. Chem. Phys. 8: 1057 (2006)            
                                                           
          Multipole accelerated RI-J (MARI-J):             
              Fast evaluation of the Coulomb potential for     
              electron densities using multipole accelerated   
              resolution of identity approximation             
              M. Sierka, A. Hogekamp and R. Ahlrichs           
              J. Chem. Phys. 118: 9136 (2003)                  
          RI-JK Method:                                     
              A fully direct RI-HF algorithm: Implementation,
              optimised auxiliary basis sets, demonstration of
              accuracy and efficiency                         
              F. Weigend                                      
              Phys. Chem. Chem. Phys. 4: 4285 (2002)           
          Two-component HF and DFT with spin-orbit coupling:  
              Self-consistent treatment of spin-orbit         
              interactions with efficient Hartree-Fock and    
              density functional methods                      
              M. K. Armbruster, F. Weigend, C. van Wüllen and 
              W. Klopper                                      
              Phys. Chem. Chem. Phys. 10: 1748 (2008)         
          Relativistic all-electron 2c calculations           
              An efficient implementation of two-component    
              relativistic exact-decoupling methods for large 
              molecules                                       
              D. Peng, N. Middendorf, F. Weigend, M. Reiher   
              J. Chem. Phys. 138, 184105 (2013)               
                                         




              +--------------------------------------------------+
              |      general information about current run       |
              +--------------------------------------------------+

 

 DENSITY CONVERGENCE CHECK SWITCHED ON !
 SCF CONVERGENCE IF RMS(delta[D]) <     0.1000000000E-06

 PBE functional
 exchange:    LDA + PBE
 correlation: LDA (PW) + PBE
 A DFT calculation using the RI-J approximation will be carried out.
 Allocatable memory for RI due to $ricore (MB):                  5000


              +--------------------------------------------------+
              | Atomic coordinate, charge and isotop information |
              +--------------------------------------------------+

                    atomic coordinates            atom    charge  isotop
          1.18312216   -1.60799188    1.52295994    n      0.000     0
          0.77325684   -3.42323994    1.95473540    h      0.000     0
         -0.81722377   -0.16504076    0.55683381    c      0.000     0
         -2.89273913   -1.11192077    0.23355612    o      0.000     0
         -0.12637471    2.44015652    0.03710929    c      0.000     0
         -1.53019350    3.68838710   -0.74235935    h      0.000     0
          2.23657039    3.24642668    0.54902820    c      0.000     0
          2.83808562    5.16626679    0.20755398    h      0.000     0
          4.03292084    1.67543422    1.54784023    n      0.000     0
          5.77374816    2.31283841    1.97179275    h      0.000     0
          3.59573912   -0.83748588    2.13220021    c      0.000     0
          5.18504248   -2.19949672    3.07758398    o      0.000     0
         -1.17862634   -0.05615881    8.94197459    c      6.000     0
         -3.66691602    1.34467401    9.34802554    c      6.000     0
         -5.00308733    0.17643362   10.39656340    h      1.000     0
         -3.36550553    3.08357079   10.41418071    h      1.000     0
         -4.53186214    1.83883176    7.54304671    h      1.000     0
         -0.01561969   -0.72405969   11.49551889    c      6.000     0
          1.76669852   -1.73009945   11.24837705    h      1.000     0
          0.35669596    0.97620579   12.60063478    h      1.000     0
         -1.28418154   -1.92920798   12.58539339    h      1.000     0
          0.64519422    1.63226958    7.47594567    c      6.000     0
          2.43773264    0.66360596    7.15402327    h      1.000     0
          1.03313647    3.36729602    8.52176995    h      1.000     0
         -0.15301739    2.15853300    5.64770284    h      1.000     0
         -1.67244427   -2.47507325    7.44840140    c      6.000     0
         -2.54878285   -2.05586831    5.62930446    h      1.000     0
          0.08986953   -3.49249976    7.10893727    h      1.000     0
         -2.93952040   -3.72572040    8.48810022    h      1.000     0
 
       center of nuclear mass  :    0.49603995    0.04349379    4.25507757
       center of nuclear charge:   -1.17791182   -0.05569067    8.94279120

              +--------------------------------------------------+
              |               basis set information              |
              +--------------------------------------------------+

              we will work with the 1s 3p 5d 7f 9g ... basis set
              ...i.e. with spherical basis functions...

   type   atoms  prim   cont   basis
   ---------------------------------------------------------------------------
    n        2     77     55   cc-pVQZ   [5s4p3d2f1g|21s6p3d2f1g]
    h       16     32     30   cc-pVQZ   [4s3p2d1f|6s3p2d1f]
    c        9     77     55   cc-pVQZ   [5s4p3d2f1g|21s6p3d2f1g]
    o        2     77     55   cc-pVQZ   [5s4p3d2f1g|21s6p3d2f1g]
   ---------------------------------------------------------------------------
   total:   29   1513   1195
   ---------------------------------------------------------------------------

   total number of primitive shells          :  111
   total number of contracted shells         :  355
   total number of cartesian basis functions : 1470
   total number of SCF-basis functions       : 1195


 integral neglect threshold       :  0.23E-13
 integral storage threshold THIZE :  0.10E-04
 integral storage threshold THIME :         5

 RI-J AUXILIARY BASIS SET information:

              we will work with the 1s 3p 5d 7f 9g ... basis set
              ...i.e. with spherical basis functions...

   type   atoms  prim   cont   basis
   ---------------------------------------------------------------------------
    n        2     70     49   cc-pVQZ   [6s4p3d1f1g|12s5p4d2f1g]
    h       16     16     11   cc-pVQZ   [3s1p1d|5s2p1d]
    c        9     70     49   cc-pVQZ   [6s4p3d1f1g|12s5p4d2f1g]
    o        2     70     49   cc-pVQZ   [6s4p3d1f1g|12s5p4d2f1g]
   ---------------------------------------------------------------------------
   total:   29   1166    813
   ---------------------------------------------------------------------------

   total number of primitive shells          :   80
   total number of contracted shells         :  275
   total number of cartesian basis functions :  985
   total number of SCF-basis functions       :  813


 symmetry group of the molecule :   c1 

 the group has the following generators :
   c1(z)

    1 symmetry operations found

 there are 1 real representations :   a   

 maximum number of shells which are related by symmetry :  1


    mo occupation :
   irrep   mo's   occupied
    a     1195       21
 
 number of basis functions   :                   1195
 number of occupied orbitals :                     21
 
  
           ------------------
           density functional
           ------------------
 Dummy atoms with grid-point found.
 DFT quadrature threshold dgrenze tightened by factor 1/10.

 PBE functional
 exchange:    LDA + PBE
 correlation: LDA (PW) + PBE
 Dummy atoms with grid-point found.
 DFT quadrature threshold dgrenze tightened by factor 1/10.

 Dummy atoms with grid-point found.
 DFT quadrature threshold dgrenze tightened by factor 1/10.


 iterations will be done with small grid
  
 spherical integration : Lebedev's spherical grid
 spherical gridsize    :                     5
    i.e. gridpoints    :                   590
 value for diffuse not defined
 radial integration    : Chebyshev 2nd kind (scaling 3)
 radial gridsize       :                     8
 integration cells     :                    29
 partition function    : becke
 partition sharpness   :                     3
  
 found dummy atom(s) with basis: included in dft

 biggest AO integral is expected to be     4.785886462
  
           ------------------------
               RI-J - INFORMATION
           ------------------------
 Contributions to RI integral batches: 
  neglected integral batches:                 19430
  direct contribution:                         2463
  memory contribution:                 41297
 Memory core needed for (P|Q) and Cholesky      6 MByte
 Memory core minimum needed except of (P|Q)     6 MByte
 Total minimum memory core needed (sum)        11 MByte
  
 ****************************************
 Memory allocated for RI-J  4757 MByte
 ****************************************
                                            

          ------------------------
          nuclear repulsion energy  :   199.361535643    
          ------------------------


         -----------------
         -S,T+V- integrals
         -----------------

 1e-integrals will be neglected if expon. factor < 0.227344E-14
 Difference densities >>NOT<< switched on in parallel ridft!

 DIIS switched on: error vector is FDS-SDF
 Max. Iterations for DIIS is     :   4
 DIIS matrix (see manual) 
    Scaling factor of diagonals  :  1.200
    threshold for scaling factor :  0.000

 scf convergence criterion : increment of total energy < .1000000D-08
                  and increment of one-electron energy < .1000000D-05

  MOs are in ASCII format !


 automatic virtual orbital shift switched on 
      shift if e(lumo)-e(homo) < 0.10000000    


 reading orbital data $scfmo  from file mos
 orbital characterization : expanded
 mo provided and orthogonalized by Cholesky decomposition

 DSCF restart information will be dumped onto file mos


 Starting SCF iterations

          Overall gridpoints after grid construction =        167179

 ITERATION  ENERGY          1e-ENERGY        2e-ENERGY     RMS[dD(SAO)]   TOL
   1  -196.88585375668    -650.68884396     254.44145456    0.000D+00 0.227D-13
                            Exc = -30.3250136084     Coul =  284.766468164    
                              N = 41.999750295    
                            current damping = 0.700
 
          max. resid. norm for Fia-block=  2.482D-01 for orbital      8a         
          max. resid. fock norm         =  2.800D+01 for orbital   1128a         

 ITERATION  ENERGY          1e-ENERGY        2e-ENERGY     RMS[dD(SAO)]   TOL
   2  -197.41650270118    -656.55538336     259.77734501    0.185D-02 0.227D-13
                            Exc = -30.9673005626     Coul =  290.744645574    
                              N = 41.999798348    
                            current damping = 0.650
 
          Norm of current diis error:  2.4937    
          max. resid. norm for Fia-block=  1.015D-01 for orbital      6a         
          max. resid. fock norm         =  1.208D-01 for orbital      6a         

 ITERATION  ENERGY          1e-ENERGY        2e-ENERGY     RMS[dD(SAO)]   TOL
   3  -197.52208643385    -657.52056246     260.63694039    0.786D-03 0.227D-13
                            Exc = -31.1569950666     Coul =  291.793935453    
                              N = 41.999827133    
                            current damping = 0.550
 
          Norm of current diis error:  1.1812    
          max. resid. norm for Fia-block=  4.572D-02 for orbital      6a         
          max. resid. fock norm         =  5.245D-02 for orbital      6a         

 ITERATION  ENERGY          1e-ENERGY        2e-ENERGY     RMS[dD(SAO)]   TOL
   4  -197.55227516971    -658.85381688     261.94000607    0.391D-03 0.227D-13
                            Exc = -31.3118538952     Coul =  293.251859964    
                              N = 41.999848572    
                            current damping = 0.450
 
          Norm of current diis error: 0.42174    
          max. resid. norm for Fia-block=  1.889D-02 for orbital      6a         
          max. resid. fock norm         =  2.212D-02 for orbital      6a         

 ITERATION  ENERGY          1e-ENERGY        2e-ENERGY     RMS[dD(SAO)]   TOL
   5  -197.55659585634    -658.82385734     261.90572584    0.208D-03 0.227D-13
                            Exc = -31.3453469916     Coul =  293.251072830    
                              N = 41.999856955    
                            current damping = 0.500
 
          Norm of current diis error: 0.18467    
          max. resid. norm for Fia-block=  7.003D-03 for orbital     10a         
          max. resid. fock norm         =  7.953D-03 for orbital     10a         
          mo-orthogonalization: Cholesky decomposition

 ITERATION  ENERGY          1e-ENERGY        2e-ENERGY     RMS[dD(SAO)]   TOL
   6  -197.55737160436    -659.15476566     262.23585841    0.619D-04 0.227D-13
                            Exc = -31.3728098767     Coul =  293.608668291    
                              N = 41.999860238    
                            current damping = 0.550
 
          Norm of current diis error: 0.58722E-01
          max. resid. norm for Fia-block=  2.399D-03 for orbital      6a         
          max. resid. fock norm         =  3.266D-03 for orbital    576a         

 ITERATION  ENERGY          1e-ENERGY        2e-ENERGY     RMS[dD(SAO)]   TOL
   7  -197.55745484344    -659.11735684     262.19836636    0.307D-04 0.227D-13
                            Exc = -31.3746726131     Coul =  293.573038971    
                              N = 41.999861131    
                            current damping = 0.600
 
          Norm of current diis error: 0.16196E-01
          max. resid. norm for Fia-block=  6.721D-04 for orbital      6a         
          max. resid. fock norm         =  8.365D-04 for orbital   1105a         

 ITERATION  ENERGY          1e-ENERGY        2e-ENERGY     RMS[dD(SAO)]   TOL
   8  -197.55746205737    -659.12092702     262.20192932    0.946D-05 0.227D-13
                            Exc = -31.3757087099     Coul =  293.577638030    
                              N = 41.999861416    
                            current damping = 0.650
 
          Norm of current diis error: 0.65995E-02
          max. resid. norm for Fia-block=  2.776D-04 for orbital      6a         
          max. resid. fock norm         =  3.069D-04 for orbital      6a         

 ITERATION  ENERGY          1e-ENERGY        2e-ENERGY     RMS[dD(SAO)]   TOL
   9  -197.55746326121    -659.12900124     262.21000234    0.333D-05 0.227D-13
                            Exc = -31.3767081064     Coul =  293.586710442    
                              N = 41.999861572    
                            current damping = 0.500
 
          Norm of current diis error: 0.23868E-02
          max. resid. norm for Fia-block=  1.007D-04 for orbital      6a         
          max. resid. fock norm         =  1.525D-04 for orbital   1100a         

 ITERATION  ENERGY          1e-ENERGY        2e-ENERGY     RMS[dD(SAO)]   TOL
  10  -197.55746342396    -659.12852795     262.20952888    0.160D-05 0.227D-13
                            Exc = -31.3767789911     Coul =  293.586307876    
                              N = 41.999861611    
                            current damping = 0.550
 
          Norm of current diis error: 0.85047E-03
          max. resid. norm for Fia-block=  4.000D-05 for orbital      6a         
          max. resid. fock norm         =  4.990D-05 for orbital    577a         
          mo-orthogonalization: Cholesky decomposition

 ITERATION  ENERGY          1e-ENERGY        2e-ENERGY     RMS[dD(SAO)]   TOL
  11  -197.55746344396    -659.12882450     262.20982542    0.536D-06 0.227D-13
                            Exc = -31.3768683890     Coul =  293.586693805    
                              N = 41.999861630    
                            current damping = 0.600
 
          Norm of current diis error: 0.35715E-03
          max. resid. norm for Fia-block=  1.442D-05 for orbital     10a         
          max. resid. fock norm         =  1.693D-05 for orbital   1099a         

 ITERATION  ENERGY          1e-ENERGY        2e-ENERGY     RMS[dD(SAO)]   TOL
  12  -197.55746344699    -659.12937393     262.21037484    0.153D-06 0.227D-13
                            Exc = -31.3769121994     Coul =  293.587287037    
                              N = 41.999861636    
                            current damping = 0.450
 
          Norm of current diis error: 0.12310E-03
          max. resid. norm for Fia-block=  5.118D-06 for orbital      6a         
          max. resid. fock norm         =  8.909D-06 for orbital    577a         

 DENSITY CONVERGED !


 ITERATION  ENERGY          1e-ENERGY        2e-ENERGY     RMS[dD(SAO)]   TOL
  13  -197.55746344740    -659.12922885     262.21022976    0.876D-07 0.227D-13
                            Exc = -31.3769102153     Coul =  293.587139979    
                              N = 41.999861638    
                            current damping = 0.500
 
          Norm of current diis error: 0.33692E-04
          max. resid. norm for Fia-block=  1.411D-06 for orbital      6a         
          max. resid. fock norm         =  2.198D-06 for orbital   1099a         

 DENSITY CONVERGED !


 ITERATION  ENERGY          1e-ENERGY        2e-ENERGY     RMS[dD(SAO)]   TOL
  14  -197.55746344744    -659.12926401     262.21026491    0.219D-07 0.227D-13
                            Exc = -31.3769144342     Coul =  293.587179349    
                              N = 41.999861639    
                            current damping = 0.550
 
          Norm of current diis error: 0.10223E-04
          max. resid. norm for Fia-block=  4.754D-07 for orbital      6a         
          max. resid. fock norm         =  7.984D-07 for orbital   1099a         

 ENERGY & DENSITY CONVERGED !

          Overall gridpoints after grid construction =        439045

 ITERATION  ENERGY          1e-ENERGY        2e-ENERGY     RMS[dD(SAO)]   TOL
  15  -197.55747492420    -659.12926808     262.21025751    0.753D-08 0.227D-13
                            Exc = -31.3769267741     Coul =  293.587184289    
                              N = 41.999957252    
                            current damping = 0.600
 
          Norm of current diis error: 0.36281E-05
          max. resid. norm for Fia-block=  1.643D-07 for orbital      6a         
          max. resid. fock norm         =  3.077D-07 for orbital   1099a         

 End of SCF iterations

   convergence criteria satisfied after    15 iterations


                  ------------------------------------------ 
                 |  total energy      =   -197.55747492420  |
                  ------------------------------------------ 
                 :  kinetic energy    =    196.62692930280  :
                 :  potential energy  =   -394.18440422700  :
                 :  virial theorem    =      1.99528974734  :
                 :  wavefunction norm =      1.00000000000  :
                  .......................................... 


 <geterg> : there is no data group $energy 


 <skperg> : $end is missing 


 orbitals $scfmo  will be written to file mos

    irrep                 17a         18a         19a         20a         21a   
 eigenvalues H         -0.31788    -0.31731    -0.28113    -0.28066    -0.28028
            eV          -8.6501     -8.6346     -7.6501     -7.6372     -7.6269
 occupation              2.0000      2.0000      2.0000      2.0000      2.0000 

    irrep                 22a         23a         24a         25a         26a   
 eigenvalues H         -0.00585     0.02770     0.03787     0.04234     0.05107
            eV          -0.1593      0.7537      1.0306      1.1522      1.3896
 
 
 
 
 ==============================================================================
                           electrostatic moments
 ==============================================================================

 reference point for electrostatic moments:    0.00000   0.00000   0.00000

 
              nuc           elec       ->  total
 ------------------------------------------------------------------------------
                          charge      
 ------------------------------------------------------------------------------
          42.000000     -42.000000       0.000000
 
 ------------------------------------------------------------------------------
                       dipole moment  
 ------------------------------------------------------------------------------
   x     -49.472297      49.469591      -0.002706
   y      -2.339008       2.338966      -0.000042
   z     375.597231    -375.592798       0.004433
 
   | dipole moment | =     0.0052 a.u. =     0.0132 debye 
 
 ------------------------------------------------------------------------------
                     quadrupole moment
 ------------------------------------------------------------------------------
  xx     192.265474    -218.928571     -26.663097
  yy     134.087503    -160.766366     -26.678863
  zz    3492.265773   -3518.885191     -26.619418
  xy       2.854956      -2.860885      -0.005928
  xz    -442.108142     442.105054      -0.003088
  yz     -20.942986      20.940328      -0.002657
 
     1/3  trace=     -26.653793
     anisotropy=       0.054775
 
 ==============================================================================
 


    ------------------------------------------------------------------------
         total  cpu-time : 26 minutes and 22 seconds
         total wall-time :  4 minutes and 19 seconds
    ------------------------------------------------------------------------

   ****  ridft : all done  ****


    2018-04-28 21:01:03.819 

