
   OpenMP run-time library returned nthreads =  8
 operating system is UNIX !

 dscf (c-8-252) : TURBOMOLE V7.3 ( 22142 ) 4 Jul 2018 at 18:12:42
 Copyright (C) 2018 TURBOMOLE GmbH, Karlsruhe


    2019-04-02 13:22:00.448 



                             d s c f - program

                   idea & directorship : reinhart ahlrichs
                   program development : marco haeser
                                         michael baer
                           dft version : oliver treutler


                          quantum chemistry group
                          universitaet  karlsruhe
                                  germany




                          References             
                                                 
          TURBOMOLE:                             
              R. Ahlrichs, M. Baer, M. Haeser, H. Horn, and
              C. Koelmel
              Electronic structure calculations on workstation
              computers: the program system TURBOMOLE
              Chem. Phys. Lett. 162: 165 (1989)
          Density Functional:                              
              O. Treutler and R. Ahlrichs                      
              Efficient Molecular Numerical Integration Schemes
              J. Chem. Phys. 102: 346 (1995)                   
          Parallel Version:                                
              Performance of parallel TURBOMOLE for Density    
              Functional Calculations                          
              M. v. Arnim and R. Ahlrichs                      
              J. Comp. Chem. 19: 1746 (1998)                   
                                         




              +--------------------------------------------------+
              | Atomic coordinate, charge and isotop information |
              +--------------------------------------------------+

                    atomic coordinates            atom    charge  isotop
          2.97155929    0.48102820   -0.48467944    n      7.000     0
          1.83182474   -1.70672566    0.08414220    c      6.000     0
          3.04933562   -3.34893714    0.19340440    h      1.000     0
         -0.75240979   -1.94418636    0.53093827    c      6.000     0
         -1.54659868   -3.76383766    1.00828915    h      1.000     0
         -2.25974443    0.20136504    0.36924743    c      6.000     0
         -4.27208430    0.09361448    0.70570461    h      1.000     0
         -1.10951167    2.48954862   -0.22696639    c      6.000     0
         -2.19550694    4.21314446   -0.37881936    h      1.000     0
          1.49013850    2.53167682   -0.62784361    c      6.000     0
          2.43478365    4.28739999   -1.09325739    h      1.000     0
 
       center of nuclear mass  :    0.37250694    0.34270147   -0.06060898
       center of nuclear charge:    0.32077687    0.33996791   -0.05191255

              +--------------------------------------------------+
              |               basis set information              |
              +--------------------------------------------------+

              we will work with the 1s 3p 5d 7f 9g ... basis set
              ...i.e. with spherical basis functions...

   type   atoms  prim   cont   basis
   ---------------------------------------------------------------------------
    n        1     77     57   def2-QZVP   [7s4p3d2f1g|15s8p3d2f1g]
    c        5     77     57   def2-QZVP   [7s4p3d2f1g|15s8p3d2f1g]
    h        5     33     30   def2-QZVP   [4s3p2d1f|7s3p2d1f]
   ---------------------------------------------------------------------------
   total:   11    627    492
   ---------------------------------------------------------------------------

   total number of primitive shells          :   71
   total number of contracted shells         :  152
   total number of cartesian basis functions :  607
   total number of SCF-basis functions       :  492


 integral neglect threshold       :  0.55E-13
 integral storage threshold THIZE :  0.10E-04
 integral storage threshold THIME :         5


 DENSITY CONVERGENCE CHECK SWITCHED ON !
 SCF CONVERGENCE IF RMS(delta[D]) <     0.1000000000E-06


 symmetry group of the molecule :   c1 

 the group has the following generators :
   c1(z)

    1 symmetry operations found

 there are 1 real representations :   a   

 maximum number of shells which are related by symmetry :  1


    mo occupation :
   irrep   mo's   occupied
    a      492       21
 
 number of basis functions   :                    492
 number of occupied orbitals :                     21
 

 automatic virtual orbital shift switched on 
      shift if e(lumo)-e(homo) < 0.10000000    


          ------------------------
          nuclear repulsion energy  :   206.225641840    
          ------------------------


         -----------------
         -S,T+V- integrals
         -----------------

 1e-integrals will be neglected if expon. factor < 0.550570E-14
 
   Difference densities algorithm switched on.
   The maximal number of linear combinations of
   difference densities is                    20 .

 DIIS switched on: error vector is FDS-SDF
 Max. Iterations for DIIS is     :   5
 DIIS matrix (see manual) 
    Scaling factor of diagonals  :  1.200
    threshold for scaling factor :  0.000

 scf convergence criterion : increment of total energy < .1000000D-08
                  and increment of one-electron energy < .1000000D-05

  MOs are in ASCII format !


 reading orbital data $scfmo  from file mos
 orbital characterization : scfconv=9

 DSCF restart information will be dumped onto file mos

 
                                              current damping :  0.700
 ITERATION  ENERGY          1e-ENERGY        2e-ENERGY     RMS[dD(SAO)]   TOL
   1  -246.73773006496    -742.14351889     289.18014699    0.000D+00 0.549D-13
          max. resid. norm for Fia-block=  2.293D-01 for orbital      1a         
          max. resid. fock norm         =  7.070D-01 for orbital    492a         
          Delta Eig. =    54.6040798124 eV 
 
                                              current damping :  0.650
 ITERATION  ENERGY          1e-ENERGY        2e-ENERGY     RMS[dD(SAO)]   TOL
   2  -246.78313708405    -741.28709648     288.27831755    0.922D-03 0.363D-13
          Norm of current diis error: 0.69075    
          max. resid. norm for Fia-block=  1.009D-01 for orbital      1a         
          max. resid. fock norm         =  2.901D-01 for orbital    492a         
          Delta Eig. =    22.6381751410 eV 
 
                                              current damping :  0.600
 ITERATION  ENERGY          1e-ENERGY        2e-ENERGY     RMS[dD(SAO)]   TOL
   3  -246.79229537389    -741.38124014     288.36330292    0.451D-03 0.268D-13
          Norm of current diis error: 0.29713    
          max. resid. norm for Fia-block=  4.115D-02 for orbital      1a         
          max. resid. fock norm         =  1.147D-01 for orbital    492a         
          Delta Eig. =     9.2385440953 eV 
 
                                              current damping :  0.650
 ITERATION  ENERGY          1e-ENERGY        2e-ENERGY     RMS[dD(SAO)]   TOL
   4  -246.79418972496    -741.30810524     288.28827367    0.197D-03 0.232D-13
          Norm of current diis error: 0.11917    
          max. resid. norm for Fia-block=  1.540D-02 for orbital      1a         
          max. resid. fock norm         =  4.336D-02 for orbital    492a         
          Delta Eig. =     3.4488368510 eV 
 
                                              current damping :  0.500
 ITERATION  ENERGY          1e-ENERGY        2e-ENERGY     RMS[dD(SAO)]   TOL
   5  -246.79451520842    -741.29270367     288.27254662    0.751D-04 0.214D-13
          Norm of current diis error: 0.50843E-01
          max. resid. norm for Fia-block=  6.086D-03 for orbital      1a         
          max. resid. fock norm         =  1.701D-02 for orbital    492a         
 mo-orthogonalization: Cholesky decomposition
          Delta Eig. =     1.4683751076 eV 
 
                                              current damping :  0.350
 ITERATION  ENERGY          1e-ENERGY        2e-ENERGY     RMS[dD(SAO)]   TOL
   6  -246.79458645351    -741.28627825     288.26604995    0.363D-04 0.199D-13
          Norm of current diis error: 0.19890E-01
          max. resid. norm for Fia-block=  1.998D-03 for orbital      1a         
          max. resid. fock norm         =  5.695D-03 for orbital    492a         
          Delta Eig. =     0.5596538424 eV 
 
                                              current damping :  0.200
 ITERATION  ENERGY          1e-ENERGY        2e-ENERGY     RMS[dD(SAO)]   TOL
   7  -246.79460147793    -741.28305170     288.26280838    0.154D-04 0.185D-13
          Norm of current diis error: 0.78589E-02
          max. resid. norm for Fia-block=  6.018D-04 for orbital     21a         
          max. resid. fock norm         =  1.459D-03 for orbital    492a         
          Delta Eig. =     0.1596026618 eV 
 
                                              current damping :  0.050
 ITERATION  ENERGY          1e-ENERGY        2e-ENERGY     RMS[dD(SAO)]   TOL
   8  -246.79460536278    -741.28261133     288.26236413    0.658D-05 0.173D-13
          Norm of current diis error: 0.38318E-02
          max. resid. norm for Fia-block=  3.945D-04 for orbital     21a         
          max. resid. fock norm         =  3.945D-04 for orbital     21a         
          Delta Eig. =     0.0372313784 eV 
 
                                              current damping :  0.050
 ITERATION  ENERGY          1e-ENERGY        2e-ENERGY     RMS[dD(SAO)]   TOL
   9  -246.79460681666    -741.28230285     288.26205419    0.329D-05 0.158D-13
          Norm of current diis error: 0.19675E-02
          max. resid. norm for Fia-block=  2.616D-04 for orbital     20a         
          max. resid. fock norm         =  2.654D-04 for orbital     20a         
          Delta Eig. =     0.0033791888 eV 
 
                                              current damping :  0.100
 ITERATION  ENERGY          1e-ENERGY        2e-ENERGY     RMS[dD(SAO)]   TOL
  10  -246.79460729111    -741.28259707     288.26234794    0.205D-05 0.145D-13
          Norm of current diis error: 0.87022E-03
          max. resid. norm for Fia-block=  1.264D-04 for orbital     21a         
          max. resid. fock norm         =  1.264D-04 for orbital     21a         
 mo-orthogonalization: Cholesky decomposition
          Delta Eig. =     0.0054741607 eV 
 
                                              current damping :  0.150
 ITERATION  ENERGY          1e-ENERGY        2e-ENERGY     RMS[dD(SAO)]   TOL
  11  -246.79460737177    -741.28243259     288.26218338    0.100D-05 0.137D-13
          Norm of current diis error: 0.38576E-03
          max. resid. norm for Fia-block=  5.337D-05 for orbital     20a         
          max. resid. fock norm         =  5.770D-05 for orbital     20a         
          Delta Eig. =     0.0019842046 eV 
 
                                              current damping :  0.200
 ITERATION  ENERGY          1e-ENERGY        2e-ENERGY     RMS[dD(SAO)]   TOL
  12  -246.79460738337    -741.28255635     288.26230712    0.326D-06 0.134D-13
          Norm of current diis error: 0.13471E-03
          max. resid. norm for Fia-block=  1.637D-05 for orbital     20a         
          max. resid. fock norm         =  1.654D-05 for orbital     19a         
          Delta Eig. =     0.0005575959 eV 
 
                                              current damping :  0.250
 ITERATION  ENERGY          1e-ENERGY        2e-ENERGY     RMS[dD(SAO)]   TOL
  13  -246.79460738501    -741.28254801     288.26229878    0.181D-06 0.131D-13
          Norm of current diis error: 0.47365E-04
          max. resid. norm for Fia-block=  7.054D-06 for orbital     20a         
          max. resid. fock norm         =  7.103D-06 for orbital     20a         
          Delta Eig. =     0.0000752944 eV 

 DENSITY CONVERGED !

 
                                              current damping :  0.300
 ITERATION  ENERGY          1e-ENERGY        2e-ENERGY     RMS[dD(SAO)]   TOL
  14  -246.79460738524    -741.28255066     288.26230143    0.736D-07 0.156D-13
          Norm of current diis error: 0.20408E-04
          max. resid. norm for Fia-block=  2.849D-06 for orbital     19a         
          max. resid. fock norm         =  3.014D-06 for orbital     19a         
          Delta Eig. =     0.0000333968 eV 

 ENERGY & DENSITY CONVERGED !

 
                                              current damping :  0.150
 ITERATION  ENERGY          1e-ENERGY        2e-ENERGY     RMS[dD(SAO)]   TOL
  15  -246.79460738529    -741.28255178     288.26230256    0.320D-07 0.157D-13
          max. resid. norm for Fia-block=  6.793D-07 for orbital     19a         
          max. resid. fock norm         =  7.351D-07 for orbital     19a         

 convergence criteria satisfied after    15 iterations


                  ------------------------------------------ 
                 |  total energy      =   -246.79460738529  |
                  ------------------------------------------ 
                 :  kinetic energy    =    246.43482227232  :
                 :  potential energy  =   -493.22942965760  :
                 :  virial theorem    =      1.99854216785  :
                 :  wavefunction norm =      1.00000000000  :
                  .......................................... 


 orbitals $scfmo  will be written to file mos

    irrep                 17a         18a         19a         20a         21a   
 eigenvalues H         -0.54147    -0.52018    -0.42019    -0.38439    -0.34803
            eV         -14.7343    -14.1550    -11.4341    -10.4600     -9.4705
 occupation              2.0000      2.0000      2.0000      2.0000      2.0000 

    irrep                 22a         23a         24a         25a         26a   
 eigenvalues H          0.09694     0.10665     0.11354     0.12198     0.13215
            eV           2.6378      2.9021      3.0897      3.3192      3.5961
 
 
 
 
 ==============================================================================
                           electrostatic moments
 ==============================================================================

 reference point for electrostatic moments:    0.00000   0.00000   0.00000

 
              nuc           elec       ->  total
 ------------------------------------------------------------------------------
                          charge      
 ------------------------------------------------------------------------------
          42.000000     -42.000000       0.000000
 
 ------------------------------------------------------------------------------
                       dipole moment  
 ------------------------------------------------------------------------------
   x      13.472628     -14.377075      -0.904447
   y      14.278652     -14.327162      -0.048510
   z      -2.180327       2.331400       0.151073
 
   | dipole moment | =     0.9183 a.u. =     2.3340 debye 
 
 ------------------------------------------------------------------------------
                     quadrupole moment
 ------------------------------------------------------------------------------
  xx     177.378751    -205.145208     -27.766457
  yy     179.186084    -201.264953     -22.078869
  zz       9.761308     -38.372545     -28.611236
  xy      -0.245676      -0.537334      -0.783011
  xz     -26.477452      26.385773      -0.091679
  yz     -31.828164      30.693301      -1.134863
 
     1/3  trace=     -26.152188
     anisotropy=       6.602677
 
 ==============================================================================
 


    ------------------------------------------------------------------------
         total  cpu-time : 56 minutes and 24 seconds
         total wall-time :  7 minutes and  9 seconds
    ------------------------------------------------------------------------

   ****  dscf : all done  ****


    2019-04-02 13:29:09.113 

