
   OpenMP run-time library returned nthreads =  8
 operating system is UNIX !

 dscf (c-7-23) : TURBOMOLE V7.3 ( 22142 ) 4 Jul 2018 at 18:12:42
 Copyright (C) 2018 TURBOMOLE GmbH, Karlsruhe


    2019-04-02 13:17:16.719 



                             d s c f - program

                   idea & directorship : reinhart ahlrichs
                   program development : marco haeser
                                         michael baer
                           dft version : oliver treutler


                          quantum chemistry group
                          universitaet  karlsruhe
                                  germany




                          References             
                                                 
          TURBOMOLE:                             
              R. Ahlrichs, M. Baer, M. Haeser, H. Horn, and
              C. Koelmel
              Electronic structure calculations on workstation
              computers: the program system TURBOMOLE
              Chem. Phys. Lett. 162: 165 (1989)
          Density Functional:                              
              O. Treutler and R. Ahlrichs                      
              Efficient Molecular Numerical Integration Schemes
              J. Chem. Phys. 102: 346 (1995)                   
          Parallel Version:                                
              Performance of parallel TURBOMOLE for Density    
              Functional Calculations                          
              M. v. Arnim and R. Ahlrichs                      
              J. Comp. Chem. 19: 1746 (1998)                   
                                         




              +--------------------------------------------------+
              | Atomic coordinate, charge and isotop information |
              +--------------------------------------------------+

                    atomic coordinates            atom    charge  isotop
          4.29409396    0.03105255   -0.00307428    n      7.000     0
          5.61003950   -0.01512353   -2.16628083    c      6.000     0
          4.50553502    0.02876259   -3.88777492    h      1.000     0
          8.23607297   -0.10912392   -2.25828262    c      6.000     0
          9.19482996   -0.14180113   -4.06067076    h      1.000     0
          9.57848383   -0.15771373    0.00109856    c      6.000     0
         11.62002300   -0.22907877    0.00270350    h      1.000     0
          8.23253120   -0.11043069    2.25845174    c      6.000     0
          9.18835229   -0.14411379    4.06216829    h      1.000     0
          5.60665537   -0.01641741    2.16216247    c      6.000     0
          4.49926492    0.02643105    3.88203754    h      1.000     0
 
       center of nuclear mass  :    6.91567591   -0.06243549   -0.00099680
       center of nuclear charge:    6.96784191   -0.06417352   -0.00095620

              +--------------------------------------------------+
              |               basis set information              |
              +--------------------------------------------------+

              we will work with the 1s 3p 5d 7f 9g ... basis set
              ...i.e. with spherical basis functions...

   type   atoms  prim   cont   basis
   ---------------------------------------------------------------------------
    n        1     77     57   def2-QZVP   [7s4p3d2f1g|15s8p3d2f1g]
    c        5     77     57   def2-QZVP   [7s4p3d2f1g|15s8p3d2f1g]
    h        5     33     30   def2-QZVP   [4s3p2d1f|7s3p2d1f]
   ---------------------------------------------------------------------------
   total:   11    627    492
   ---------------------------------------------------------------------------

   total number of primitive shells          :   71
   total number of contracted shells         :  152
   total number of cartesian basis functions :  607
   total number of SCF-basis functions       :  492


 integral neglect threshold       :  0.55E-13
 integral storage threshold THIZE :  0.10E-04
 integral storage threshold THIME :         5


 DENSITY CONVERGENCE CHECK SWITCHED ON !
 SCF CONVERGENCE IF RMS(delta[D]) <     0.1000000000E-06


 symmetry group of the molecule :   c1 

 the group has the following generators :
   c1(z)

    1 symmetry operations found

 there are 1 real representations :   a   

 maximum number of shells which are related by symmetry :  1


    mo occupation :
   irrep   mo's   occupied
    a      492       21
 
 number of basis functions   :                    492
 number of occupied orbitals :                     21
 

 automatic virtual orbital shift switched on 
      shift if e(lumo)-e(homo) < 0.10000000    


          ------------------------
          nuclear repulsion energy  :   206.284267381    
          ------------------------


         -----------------
         -S,T+V- integrals
         -----------------

 1e-integrals will be neglected if expon. factor < 0.550570E-14
 
   Difference densities algorithm switched on.
   The maximal number of linear combinations of
   difference densities is                    20 .

 DIIS switched on: error vector is FDS-SDF
 Max. Iterations for DIIS is     :   5
 DIIS matrix (see manual) 
    Scaling factor of diagonals  :  1.200
    threshold for scaling factor :  0.000

 scf convergence criterion : increment of total energy < .1000000D-08
                  and increment of one-electron energy < .1000000D-05

  MOs are in ASCII format !


 reading orbital data $scfmo  from file mos
 orbital characterization : scfconv=9

 DSCF restart information will be dumped onto file mos

 
                                              current damping :  0.700
 ITERATION  ENERGY          1e-ENERGY        2e-ENERGY     RMS[dD(SAO)]   TOL
   1  -246.73787987187    -742.26416638     289.24201913    0.000D+00 0.549D-13
          max. resid. norm for Fia-block=  2.293D-01 for orbital      1a         
          max. resid. fock norm         =  7.070D-01 for orbital    492a         
          Delta Eig. =    54.6039547156 eV 
 
                                              current damping :  0.650
 ITERATION  ENERGY          1e-ENERGY        2e-ENERGY     RMS[dD(SAO)]   TOL
   2  -246.78326283702    -741.41061474     288.34308452    0.927D-03 0.363D-13
          Norm of current diis error: 0.69069    
          max. resid. norm for Fia-block=  1.009D-01 for orbital      1a         
          max. resid. fock norm         =  2.901D-01 for orbital    492a         
          Delta Eig. =    22.6413953067 eV 
 
                                              current damping :  0.600
 ITERATION  ENERGY          1e-ENERGY        2e-ENERGY     RMS[dD(SAO)]   TOL
   3  -246.79241451612    -741.50375334     288.42707144    0.453D-03 0.268D-13
          Norm of current diis error: 0.29705    
          max. resid. norm for Fia-block=  4.115D-02 for orbital      1a         
          max. resid. fock norm         =  1.147D-01 for orbital    492a         
          Delta Eig. =     9.2386387372 eV 
 
                                              current damping :  0.650
 ITERATION  ENERGY          1e-ENERGY        2e-ENERGY     RMS[dD(SAO)]   TOL
   4  -246.79430533942    -741.43108658     288.35251386    0.198D-03 0.232D-13
          Norm of current diis error: 0.11909    
          max. resid. norm for Fia-block=  1.540D-02 for orbital      1a         
          max. resid. fock norm         =  4.336D-02 for orbital    492a         
          Delta Eig. =     3.4483432088 eV 
 
                                              current damping :  0.500
 ITERATION  ENERGY          1e-ENERGY        2e-ENERGY     RMS[dD(SAO)]   TOL
   5  -246.79462948826    -741.41567368     288.33677681    0.755D-04 0.214D-13
          Norm of current diis error: 0.50754E-01
          max. resid. norm for Fia-block=  6.086D-03 for orbital      1a         
          max. resid. fock norm         =  1.701D-02 for orbital    492a         
 mo-orthogonalization: Cholesky decomposition
          Delta Eig. =     1.4683955919 eV 
 
                                              current damping :  0.350
 ITERATION  ENERGY          1e-ENERGY        2e-ENERGY     RMS[dD(SAO)]   TOL
   6  -246.79470003580    -741.40927173     288.33030431    0.366D-04 0.199D-13
          Norm of current diis error: 0.19779E-01
          max. resid. norm for Fia-block=  1.998D-03 for orbital      1a         
          max. resid. fock norm         =  5.695D-03 for orbital    492a         
          Delta Eig. =     0.5595118268 eV 
 
                                              current damping :  0.200
 ITERATION  ENERGY          1e-ENERGY        2e-ENERGY     RMS[dD(SAO)]   TOL
   7  -246.79471469355    -741.40603916     288.32705708    0.155D-04 0.186D-13
          Norm of current diis error: 0.77297E-02
          max. resid. norm for Fia-block=  5.858D-04 for orbital     21a         
          max. resid. fock norm         =  1.460D-03 for orbital    492a         
          Delta Eig. =     0.1595399059 eV 
 
                                              current damping :  0.050
 ITERATION  ENERGY          1e-ENERGY        2e-ENERGY     RMS[dD(SAO)]   TOL
   8  -246.79471838907    -741.40560181     288.32661604    0.657D-05 0.173D-13
          Norm of current diis error: 0.37267E-02
          max. resid. norm for Fia-block=  3.801D-04 for orbital     21a         
          max. resid. fock norm         =  3.801D-04 for orbital     21a         
          Delta Eig. =     0.0370408689 eV 
 
                                              current damping :  0.050
 ITERATION  ENERGY          1e-ENERGY        2e-ENERGY     RMS[dD(SAO)]   TOL
   9  -246.79471974897    -741.40528442     288.32629729    0.320D-05 0.158D-13
          Norm of current diis error: 0.19180E-02
          max. resid. norm for Fia-block=  2.524D-04 for orbital     20a         
          max. resid. fock norm         =  2.560D-04 for orbital     20a         
          Delta Eig. =     0.0033012987 eV 
 
                                              current damping :  0.100
 ITERATION  ENERGY          1e-ENERGY        2e-ENERGY     RMS[dD(SAO)]   TOL
  10  -246.79472019661    -741.40557944     288.32659186    0.198D-05 0.145D-13
          Norm of current diis error: 0.85789E-03
          max. resid. norm for Fia-block=  1.243D-04 for orbital     21a         
          max. resid. fock norm         =  1.243D-04 for orbital     21a         
 mo-orthogonalization: Cholesky decomposition
          Delta Eig. =     0.0053593368 eV 
 
                                              current damping :  0.150
 ITERATION  ENERGY          1e-ENERGY        2e-ENERGY     RMS[dD(SAO)]   TOL
  11  -246.79472027514    -741.40541112     288.32642346    0.987D-06 0.137D-13
          Norm of current diis error: 0.38088E-03
          max. resid. norm for Fia-block=  5.299D-05 for orbital     20a         
          max. resid. fock norm         =  5.720D-05 for orbital     20a         
          Delta Eig. =     0.0019527818 eV 
 
                                              current damping :  0.200
 ITERATION  ENERGY          1e-ENERGY        2e-ENERGY     RMS[dD(SAO)]   TOL
  12  -246.79472028659    -741.40553654     288.32654888    0.324D-06 0.134D-13
          Norm of current diis error: 0.13478E-03
          max. resid. norm for Fia-block=  1.638D-05 for orbital     20a         
          max. resid. fock norm         =  1.651D-05 for orbital     20a         
          Delta Eig. =     0.0005622728 eV 
 
                                              current damping :  0.250
 ITERATION  ENERGY          1e-ENERGY        2e-ENERGY     RMS[dD(SAO)]   TOL
  13  -246.79472028824    -741.40552768     288.32654001    0.181D-06 0.131D-13
          Norm of current diis error: 0.47261E-04
          max. resid. norm for Fia-block=  7.101D-06 for orbital     20a         
          max. resid. fock norm         =  7.151D-06 for orbital     20a         
          Delta Eig. =     0.0000755125 eV 

 DENSITY CONVERGED !

 
                                              current damping :  0.300
 ITERATION  ENERGY          1e-ENERGY        2e-ENERGY     RMS[dD(SAO)]   TOL
  14  -246.79472028847    -741.40553021     288.32654254    0.742D-07 0.156D-13
          Norm of current diis error: 0.20352E-04
          max. resid. norm for Fia-block=  2.842D-06 for orbital     19a         
          max. resid. fock norm         =  3.007D-06 for orbital     19a         
          Delta Eig. =     0.0000335932 eV 

 ENERGY & DENSITY CONVERGED !

 
                                              current damping :  0.150
 ITERATION  ENERGY          1e-ENERGY        2e-ENERGY     RMS[dD(SAO)]   TOL
  15  -246.79472028852    -741.40553140     288.32654373    0.324D-07 0.156D-13
          max. resid. norm for Fia-block=  6.771D-07 for orbital     19a         
          max. resid. fock norm         =  7.323D-07 for orbital     19a         

 convergence criteria satisfied after    15 iterations


                  ------------------------------------------ 
                 |  total energy      =   -246.79472028852  |
                  ------------------------------------------ 
                 :  kinetic energy    =    246.44234841234  :
                 :  potential energy  =   -493.23706870086  :
                 :  virial theorem    =      1.99857220659  :
                 :  wavefunction norm =      1.00000000000  :
                  .......................................... 


 orbitals $scfmo  will be written to file mos

    irrep                 17a         18a         19a         20a         21a   
 eigenvalues H         -0.54135    -0.52100    -0.41844    -0.38370    -0.34851
            eV         -14.7311    -14.1772    -11.3864    -10.4410     -9.4835
 occupation              2.0000      2.0000      2.0000      2.0000      2.0000 

    irrep                 22a         23a         24a         25a         26a   
 eigenvalues H          0.09725     0.10677     0.11357     0.12197     0.13214
            eV           2.6463      2.9053      3.0904      3.3191      3.5957
 
 
 
 
 ==============================================================================
                           electrostatic moments
 ==============================================================================

 reference point for electrostatic moments:    0.00000   0.00000   0.00000

 
              nuc           elec       ->  total
 ------------------------------------------------------------------------------
                          charge      
 ------------------------------------------------------------------------------
          42.000000     -42.000000       0.000000
 
 ------------------------------------------------------------------------------
                       dipole moment  
 ------------------------------------------------------------------------------
   x     292.649360    -291.739610       0.909750
   y      -2.695288       2.664235      -0.031053
   z      -0.040160       0.040851       0.000691
 
   | dipole moment | =     0.9103 a.u. =     2.3137 debye 
 
 ------------------------------------------------------------------------------
                     quadrupole moment
 ------------------------------------------------------------------------------
  xx    2215.185270   -2229.672144     -14.486874
  yy       0.398478     -29.234145     -28.835666
  zz     180.584331    -202.351172     -21.766841
  xy     -25.080550      24.744888      -0.335662
  xz      -0.282757       0.282822       0.000065
  yz      -0.055380       0.053239      -0.002141
 
     1/3  trace=     -21.696460
     anisotropy=      12.440460
 
 ==============================================================================
 


    ------------------------------------------------------------------------
         total  cpu-time : 55 minutes and 16 seconds
         total wall-time :  6 minutes and 59 seconds
    ------------------------------------------------------------------------

   ****  dscf : all done  ****


    2019-04-02 13:24:16.194 

