
   OpenMP run-time library returned nthreads = 28
 operating system is UNIX !

 dscf (c-15-25) : TURBOMOLE V7.3 ( 22142 ) 4 Jul 2018 at 18:12:42
 Copyright (C) 2018 TURBOMOLE GmbH, Karlsruhe


    2019-04-01 22:38:46.196 



                             d s c f - program

                   idea & directorship : reinhart ahlrichs
                   program development : marco haeser
                                         michael baer
                           dft version : oliver treutler


                          quantum chemistry group
                          universitaet  karlsruhe
                                  germany




                          References             
                                                 
          TURBOMOLE:                             
              R. Ahlrichs, M. Baer, M. Haeser, H. Horn, and
              C. Koelmel
              Electronic structure calculations on workstation
              computers: the program system TURBOMOLE
              Chem. Phys. Lett. 162: 165 (1989)
          Density Functional:                              
              O. Treutler and R. Ahlrichs                      
              Efficient Molecular Numerical Integration Schemes
              J. Chem. Phys. 102: 346 (1995)                   
          Parallel Version:                                
              Performance of parallel TURBOMOLE for Density    
              Functional Calculations                          
              M. v. Arnim and R. Ahlrichs                      
              J. Comp. Chem. 19: 1746 (1998)                   
                                         




              +--------------------------------------------------+
              | Atomic coordinate, charge and isotop information |
              +--------------------------------------------------+

                    atomic coordinates            atom    charge  isotop
          1.51161854   -1.93139770    1.29963450    c      6.000     0
          1.61298684   -2.12036912   -0.75213813    h      1.000     0
          2.81834152   -3.29600242    2.11596491    h      1.000     0
          2.11061056    0.80304439    2.07806012    c      6.000     0
          3.47358555    1.68213035    0.81343746    h      1.000     0
          2.93960050    0.83114811    3.96291360    h      1.000     0
         -0.46214983    2.20283408    2.08432473    c      6.000     0
         -0.48769599    3.78108335    0.76595009    h      1.000     0
         -0.84811759    2.98009021    3.95138799    h      1.000     0
         -2.45421412    0.19617607    1.39709153    c      6.000     0
         -2.78462631    0.19888116   -0.63873773    h      1.000     0
         -4.26460974    0.52542168    2.31899335    h      1.000     0
         -1.22242591   -2.30559506    2.14730828    c      6.000     0
         -2.12488211   -3.94504334    1.29067023    h      1.000     0
         -1.29638736   -2.54221704    4.19560788    h      1.000     0
 
       center of nuclear mass  :   -0.10228720   -0.20461631    1.80144496
       center of nuclear charge:   -0.10152923   -0.20286266    1.80156411

              +--------------------------------------------------+
              |               basis set information              |
              +--------------------------------------------------+

              we will work with the 1s 3p 5d 7f 9g ... basis set
              ...i.e. with spherical basis functions...

   type   atoms  prim   cont   basis
   ---------------------------------------------------------------------------
    c        5     50     30   cc-pVTZ   [4s3p2d1f|18s5p2d1f]
    h       10     16     14   cc-pVTZ   [3s2p1d|5s2p1d]
   ---------------------------------------------------------------------------
   total:   15    410    290
   ---------------------------------------------------------------------------

   total number of primitive shells          :   34
   total number of contracted shells         :  110
   total number of cartesian basis functions :  325
   total number of SCF-basis functions       :  290


 integral neglect threshold       :  0.10E-12
 integral storage threshold THIZE :  0.10E-04
 integral storage threshold THIME :         5


 DENSITY CONVERGENCE CHECK SWITCHED ON !
 SCF CONVERGENCE IF RMS(delta[D]) <     0.1000000000E-06


 symmetry group of the molecule :   c1 

 the group has the following generators :
   c1(z)

    1 symmetry operations found

 there are 1 real representations :   a   

 maximum number of shells which are related by symmetry :  1


    mo occupation :
   irrep   mo's   occupied
    a      290       20
 
 number of basis functions   :                    290
 number of occupied orbitals :                     20
 

 automatic virtual orbital shift switched on 
      shift if e(lumo)-e(homo) < 0.10000000    


          ------------------------
          nuclear repulsion energy  :   188.289298286    
          ------------------------


         -----------------
         -S,T+V- integrals
         -----------------

 1e-integrals will be neglected if expon. factor < 0.102830E-13
 
   Difference densities algorithm switched on.
   The maximal number of linear combinations of
   difference densities is                    20 .

 DIIS switched on: error vector is FDS-SDF
 Max. Iterations for DIIS is     :   5
 DIIS matrix (see manual) 
    Scaling factor of diagonals  :  1.200
    threshold for scaling factor :  0.000

 scf convergence criterion : increment of total energy < .1000000D-08
                  and increment of one-electron energy < .1000000D-05

  MOs are in ASCII format !


 reading orbital data $scfmo  from file mos
 orbital characterization : scfconv=9

 DSCF restart information will be dumped onto file mos

 
                                              current damping :  0.700
 ITERATION  ENERGY          1e-ENERGY        2e-ENERGY     RMS[dD(SAO)]   TOL
   1  -195.18513431052    -635.92952156     252.45508897    0.000D+00 0.103D-12
          max. resid. norm for Fia-block=  8.684D-02 for orbital      5a         
          max. resid. fock norm         =  1.644D-01 for orbital    288a         
          Delta Eig. =    20.8088561842 eV 
 
                                              current damping :  0.650
 ITERATION  ENERGY          1e-ENERGY        2e-ENERGY     RMS[dD(SAO)]   TOL
   2  -195.21991755032    -635.26796713     251.75875129    0.962D-03 0.653D-13
          Norm of current diis error: 0.41688    
          max. resid. norm for Fia-block=  4.238D-02 for orbital      4a         
          max. resid. fock norm         =  5.598D-02 for orbital    288a         
          Delta Eig. =     9.6810796367 eV 
 
                                              current damping :  0.600
 ITERATION  ENERGY          1e-ENERGY        2e-ENERGY     RMS[dD(SAO)]   TOL
   3  -195.22735689146    -635.47156072     251.95490554    0.507D-03 0.492D-13
          Norm of current diis error: 0.19165    
          max. resid. norm for Fia-block=  1.746D-02 for orbital      5a         
          max. resid. fock norm         =  2.499D-02 for orbital    288a         
          Delta Eig. =     3.6450500205 eV 
 
                                              current damping :  0.650
 ITERATION  ENERGY          1e-ENERGY        2e-ENERGY     RMS[dD(SAO)]   TOL
   4  -195.22895855587    -635.38104159     251.86278474    0.220D-03 0.436D-13
          Norm of current diis error: 0.76810E-01
          max. resid. norm for Fia-block=  6.582D-03 for orbital      5a         
          max. resid. fock norm         =  8.832D-03 for orbital    288a         
          Delta Eig. =     1.3678623133 eV 
 
                                              current damping :  0.500
 ITERATION  ENERGY          1e-ENERGY        2e-ENERGY     RMS[dD(SAO)]   TOL
   5  -195.22921552355    -635.37624426     251.85773045    0.886D-04 0.403D-13
          Norm of current diis error: 0.32816E-01
          max. resid. norm for Fia-block=  2.732D-03 for orbital     17a         
          max. resid. fock norm         =  3.541D-03 for orbital    288a         
 mo-orthogonalization: Cholesky decomposition
          Delta Eig. =     0.5856729601 eV 
 
                                              current damping :  0.350
 ITERATION  ENERGY          1e-ENERGY        2e-ENERGY     RMS[dD(SAO)]   TOL
   6  -195.22926543433    -635.36999770     251.85143398    0.406D-04 0.373D-13
          Norm of current diis error: 0.12166E-01
          max. resid. norm for Fia-block=  1.001D-03 for orbital     17a         
          max. resid. fock norm         =  1.183D-03 for orbital    288a         
          Delta Eig. =     0.2163406241 eV 
 
                                              current damping :  0.200
 ITERATION  ENERGY          1e-ENERGY        2e-ENERGY     RMS[dD(SAO)]   TOL
   7  -195.22927287079    -635.36690831     251.84833716    0.164D-04 0.343D-13
          Norm of current diis error: 0.37282E-02
          max. resid. norm for Fia-block=  3.057D-04 for orbital     17a         
          max. resid. fock norm         =  3.060D-04 for orbital     17a         
          Delta Eig. =     0.0641532826 eV 
 
                                              current damping :  0.050
 ITERATION  ENERGY          1e-ENERGY        2e-ENERGY     RMS[dD(SAO)]   TOL
   8  -195.22927365741    -635.36604853     251.84747659    0.570D-05 0.314D-13
          Norm of current diis error: 0.89082E-03
          max. resid. norm for Fia-block=  7.198D-05 for orbital     17a         
          max. resid. fock norm         =  7.214D-05 for orbital     17a         
          Delta Eig. =     0.0119598912 eV 
 
                                              current damping :  0.050
 ITERATION  ENERGY          1e-ENERGY        2e-ENERGY     RMS[dD(SAO)]   TOL
   9  -195.22927371309    -635.36549379     251.84692179    0.170D-05 0.292D-13
          Norm of current diis error: 0.16081E-03
          max. resid. norm for Fia-block=  1.564D-05 for orbital     17a         
          max. resid. fock norm         =  1.612D-05 for orbital     17a         
          Delta Eig. =     0.0008840764 eV 
 
                                              current damping :  0.100
 ITERATION  ENERGY          1e-ENERGY        2e-ENERGY     RMS[dD(SAO)]   TOL
  10  -195.22927371548    -635.36551924     251.84694724    0.427D-06 0.280D-13
          Norm of current diis error: 0.39628E-04
          max. resid. norm for Fia-block=  3.277D-06 for orbital     18a         
          max. resid. fock norm         =  3.357D-06 for orbital     16a         
 mo-orthogonalization: Cholesky decomposition
          Delta Eig. =     0.0000837706 eV 
 
                                              current damping :  0.150
 ITERATION  ENERGY          1e-ENERGY        2e-ENERGY     RMS[dD(SAO)]   TOL
  11  -195.22927371563    -635.36542859     251.84685659    0.119D-06 0.275D-13
          Norm of current diis error: 0.14447E-04
          max. resid. norm for Fia-block=  1.216D-06 for orbital     17a         
          max. resid. fock norm         =  1.337D-06 for orbital     17a         
          Delta Eig. =     0.0000626683 eV 

 DENSITY CONVERGED !

 
                                              current damping :  0.200
 ITERATION  ENERGY          1e-ENERGY        2e-ENERGY     RMS[dD(SAO)]   TOL
  12  -195.22927371565    -635.36545059     251.84687859    0.310D-07 0.272D-13
          Norm of current diis error: 0.27714E-05
          max. resid. norm for Fia-block=  2.778D-07 for orbital     18a         
          max. resid. fock norm         =  2.803D-07 for orbital     18a         
          Delta Eig. =     0.0000020705 eV 

 ENERGY & DENSITY CONVERGED !

 
                                              current damping :  0.250
 ITERATION  ENERGY          1e-ENERGY        2e-ENERGY     RMS[dD(SAO)]   TOL
  13  -195.22927371564    -635.36544686     251.84687486    0.914D-08 0.292D-13
          max. resid. norm for Fia-block=  5.474D-08 for orbital     18a         
          max. resid. fock norm         =  5.574D-08 for orbital     18a         

 convergence criteria satisfied after    13 iterations


                  ------------------------------------------ 
                 |  total energy      =   -195.22927371564  |
                  ------------------------------------------ 
                 :  kinetic energy    =    195.06189524825  :
                 :  potential energy  =   -390.29116896389  :
                 :  virial theorem    =      1.99914265692  :
                 :  wavefunction norm =      1.00000000000  :
                  .......................................... 


 orbitals $scfmo  will be written to file mos

    irrep                 16a         17a         18a         19a         20a   
 eigenvalues H         -0.47427    -0.46382    -0.45998    -0.45967    -0.44867
            eV         -12.9056    -12.6212    -12.5168    -12.5084    -12.2090
 occupation              2.0000      2.0000      2.0000      2.0000      2.0000 

    irrep                 21a         22a         23a         24a         25a   
 eigenvalues H          0.13820     0.16146     0.17668     0.17866     0.21229
            eV           3.7607      4.3935      4.8078      4.8617      5.7768
 
 
 
 
 ==============================================================================
                           electrostatic moments
 ==============================================================================

 reference point for electrostatic moments:    0.00000   0.00000   0.00000

 
              nuc           elec       ->  total
 ------------------------------------------------------------------------------
                          charge      
 ------------------------------------------------------------------------------
          40.000000     -40.000000      -0.000000
 
 ------------------------------------------------------------------------------
                       dipole moment  
 ------------------------------------------------------------------------------
   x      -4.061169       4.058691      -0.002479
   y      -8.114506       8.108667      -0.005839
   z      72.062565     -72.062993      -0.000428
 
   | dipole moment | =     0.0064 a.u. =     0.0162 debye 
 
 ------------------------------------------------------------------------------
                     quadrupole moment
 ------------------------------------------------------------------------------
  xx     151.170210    -176.597922     -25.427711
  yy     151.890806    -177.313635     -25.422829
  zz     164.151747    -188.567891     -24.416144
  xy       0.655109      -0.652144       0.002965
  xz      -4.790734       4.744808      -0.045926
  yz      -6.272179       6.160668      -0.111511
 
     1/3  trace=     -25.088895
     anisotropy=       1.030539
 
 ==============================================================================
 


    ------------------------------------------------------------------------
         total  cpu-time : 13 minutes and 16 seconds
         total wall-time :  1 minutes and  0 seconds
    ------------------------------------------------------------------------

   ****  dscf : all done  ****


    2019-04-01 22:39:45.928 

