
   OpenMP run-time library returned nthreads = 28

 rirpa (c-15-25) : TURBOMOLE V7.3.1 () 25 Feb 2019 at 10:13:53
 Copyright (C) 2019 TURBOMOLE GmbH, Karlsruhe


    2019-11-27 01:50:28.289 

 
 
    *************************************************************************
    *************************** PROGRAM RIRPA *******************************
    ******                                                             ******
    ******              H. Eshuis, J. E. Bates and F. Furche           ******
    ******                                                             ******
    ****** Nov 2011                                                    ******
    ****** Copyright TURBOMOLE GmbH                                    ******
    *************************************************************************
    
    
                                References:                                  
    
                   RIRPA:                                                    
                     H. Eshuis, J. Yarkony and F. Furche                     
                     Fast computation of molecular random phase              
                     approximation correlation energies using resolution     
                     of the identity imaginary frequency integration         
                     J. Chem. Phys. 132: 234114 (2010)                       
    
                     H. Eshuis, J. E. Bates and F. Furche                    
                     Electron correlation methods based on                   
                     the random phase approximation                          
                     Theor. Chem. Acc.  131: 1084 (2012)                     
    
                   TWO-COMPONENT RIRPA:                                      
                     M. Kuehn                                                
                     Correlation energies from the                           
                     two-component random-phase approximation                
                     J. Chem. Theory Comput. 10: 623 (2014)                  
    
                   RIRPA GRADIENTS:                                          
                     Asbjoern M. Burow, Jefferson E. Bates, Filipp Furche*,  
                     and Henk Eshuis                                         
                     Analytical First-Order Molecular Properties and Forces  
                     within the Adiabatic Connection Random Phase            
                     Approximation                                           
                     J. Chem. Theory Comput. 10: 180 (2014)                  
    
    
    
      ... OpenMP parallelization enabled, threads:   28

   *-----------------------------------------------------------------------*
   |                     program will use 28 thread(s)                     |
   *-----------------------------------------------------------------------*
 
                FOUND RI-J FLAG
 
  HF exact exchange energy will be computed using RI-J.
 
  The HXX energy will NOT be computed due to nohxx option. 
 


              +--------------------------------------------------+
              | Atomic coordinate, charge and isotop information |
              +--------------------------------------------------+

                    atomic coordinates            atom    charge  isotop
          0.36987532   -1.59623135    1.55684410    n      0.000     0
          0.85112799   -3.39537099    1.98377392    h      0.000     0
         -2.22808008   -1.08410641    1.43521579    c      0.000     0
         -3.76744541   -2.75194253    1.82717744    o      0.000     0
         -2.79058637    1.53286207    0.82686765    c      0.000     0
         -4.73632628    2.10827408    0.68766131    h      0.000     0
         -0.88460499    3.18033812    0.44387935    c      0.000     0
         -1.20646772    5.14315983   -0.01164846    h      0.000     0
          1.59800634    2.46796558    0.61762016    n      0.000     0
          3.00408357    3.72064255    0.35141308    h      0.000     0
          2.37021068    0.03677760    1.20232686    c      0.000     0
          4.57749189   -0.57016135    1.38305178    o      0.000     0
          1.99691733   -1.63179800    8.31242086    c      6.000     0
          2.85457428   -1.80575909    6.44540440    h      1.000     0
          3.02587794   -2.88653887    9.57702118    h      1.000     0
          2.09955492    1.13844980    9.13055129    c      6.000     0
          3.91046056    2.03209928    8.73234010    h      1.000     0
          1.74406855    1.29272240   11.15864909    h      1.000     0
         -0.10641987    2.29650134    7.67400481    c      6.000     0
          0.41194009    2.46427425    5.68323196    h      1.000     0
         -0.64388524    4.16948662    8.33849680    h      1.000     0
         -2.21713907    0.33577458    7.99720149    c      6.000     0
         -3.58820960    0.38039830    6.46393078    h      1.000     0
         -3.24531190    0.72259615    9.73999880    h      1.000     0
         -0.85079839   -2.24662656    8.19308462    c      6.000     0
         -1.30936793   -3.46390523    6.59936580    h      1.000     0
         -1.44626286   -3.24327269    9.89211172    h      1.000     0
 
       center of nuclear mass  :    0.04821890    0.04989841    3.90307206
       center of nuclear charge:    0.18116434   -0.02460230    8.26185323
              +-------------------------------------------------+
              |        Rotational Constants Section             |
              +-------------------------------------------------+
                                   Center of Mass [a.u]:
               0.04821889899883         0.04989841305396         3.90307206483984
                     Principal Moments of Inertia [a.u.]
            1781.55287111177677      2915.78323926178655      3379.27594439841505
                       Rotational constants A,B,C [a.u.]
               0.00028065403397         0.00017148051106         0.00014796068987
                     Rotational constants A,B,C [cm**-1]
               0.03379056971735         0.02064614601176         0.01781437428815
                        Rotational constants A,B,C [MHz]
            1013.01579527853835       618.95588610934647       534.06150555761826

   * BASIS SET information:

              +--------------------------------------------------+
              |               basis set information              |
              +--------------------------------------------------+

              we will work with the 1s 3p 5d 7f 9g ... basis set
              ...i.e. with spherical basis functions...

   type   atoms  prim   cont   basis
   ---------------------------------------------------------------------------
    n        2     50     30   cc-pVTZ   [4s3p2d1f|18s5p2d1f]
    h       14     16     14   cc-pVTZ   [3s2p1d|5s2p1d]
    c        9     50     30   cc-pVTZ   [4s3p2d1f|18s5p2d1f]
    o        2     50     30   cc-pVTZ   [4s3p2d1f|18s5p2d1f]
   ---------------------------------------------------------------------------
   total:   27    874    586
   ---------------------------------------------------------------------------

   total number of primitive shells          :   86
   total number of contracted shells         :  214
   total number of cartesian basis functions :  665
   total number of SCF-basis functions       :  586


   * AUXILIARY BASIS SET information:

              +--------------------------------------------------+
              |               basis set information              |
              +--------------------------------------------------+

              we will work with the 1s 3p 5d 7f 9g ... basis set
              ...i.e. with spherical basis functions...

   type   atoms  prim   cont   basis
   ---------------------------------------------------------------------------
    n        2     81     81   cc-pVTZ   [8s6p5d3f1g|8s6p5d3f1g]
    h       14     30     30   cc-pVTZ   [4s3p2d1f|4s3p2d1f]
    c        9     81     81   cc-pVTZ   [8s6p5d3f1g|8s6p5d3f1g]
    o        2     81     81   cc-pVTZ   [8s6p5d3f1g|8s6p5d3f1g]
   ---------------------------------------------------------------------------
   total:   27   1473   1473
   ---------------------------------------------------------------------------

   total number of primitive shells          :   79
   total number of contracted shells         :  439
   total number of cartesian basis functions : 1803
   total number of SCF-basis functions       : 1473


   * RIJ AUXILIARY BASIS SET information:

              +--------------------------------------------------+
              |               basis set information              |
              +--------------------------------------------------+

              we will work with the 1s 3p 5d 7f 9g ... basis set
              ...i.e. with spherical basis functions...

   type   atoms  prim   cont   basis
   ---------------------------------------------------------------------------
    n        2     70     49   cc-pVTZ   [6s4p3d1f1g|12s5p4d2f1g]
    h       14     16     11   cc-pVTZ   [3s1p1d|5s2p1d]
    c        9     70     49   cc-pVTZ   [6s4p3d1f1g|12s5p4d2f1g]
    o        2     70     49   cc-pVTZ   [6s4p3d1f1g|12s5p4d2f1g]
   ---------------------------------------------------------------------------
   total:   27   1134    791
   ---------------------------------------------------------------------------

   total number of primitive shells          :   80
   total number of contracted shells         :  265
   total number of cartesian basis functions :  961
   total number of SCF-basis functions       :  791

  No keyword $dft found! - HARTREE FOCK CALCULATION

 reading orbital data $scfmo  from file mos
 orbital characterization : scfconv=9

 integral neglect threshold       :  0.32E+02

 scfconv                     9

 MAXIMUM CORE MEMORY WHICH CAN BE ALLOCATED DYNAMICALLY = 140000 MiB
              ( or 18350080000 double words per process)


 there are 1 real representations :   a   

 maximum number of shells which are related by symmetry :  1

 time elapsed for calculating density matrices :   0.027 sec

     total memory allocated for calculation of (Q|P)**(-1/2) : 25 MiB


     calculation of (P|Q) ...
     time in lp2sym        cpu:  3.05 sec    wall:  0.11 sec    ratio: 28.0


     calculation of the Cholesky decomposition of (P|Q)**(-1) ...
     time in invmetri      cpu:  9.34 sec    wall:  0.34 sec    ratio: 27.7

   threshold for RMS(d[D]) in SCF was     :  0.10E-06
   integral neglect threshold             :  0.18E-13
   derivative integral neglect threshold  :  0.10E-06


 setting up bound for integral derivative estimation

 increment for numerical differentiation : 0.00050000
 total memory allocated for calculation of (Q|P)**(-1/2) : 25 MiB
 Dividing biap into                  11003  block chunks,
 using                     6 MiB per block
 Reserved                  69987 MiB for BLAS routines
 Estimated total memory usage:                 139991 MiB
 number of passes for ispin    1
 =    1
 
 Number of eigenvalues < 6e-3:                      0
 
 
            -----------------------------
            Complex frequency integration
            -----------------------------
 
 Number of Clenshaw-Curtis nodes:                    100
 Optimized scaling parameter    :    1.00000000000000     
 Sensitivity measure            :  -7.845946115025981E-013
 
 Done with rirpa frequency point #                     1
 Done with rirpa frequency point #                     2
 Done with rirpa frequency point #                     3
 Done with rirpa frequency point #                     4
 Done with rirpa frequency point #                     5
 Done with rirpa frequency point #                     6
 Done with rirpa frequency point #                     7
 Done with rirpa frequency point #                     8
 Done with rirpa frequency point #                     9
 Done with rirpa frequency point #                    10
 Done with rirpa frequency point #                    11
 Done with rirpa frequency point #                    12
 Done with rirpa frequency point #                    13
 Done with rirpa frequency point #                    14
 Done with rirpa frequency point #                    15
 Done with rirpa frequency point #                    16
 Done with rirpa frequency point #                    17
 Done with rirpa frequency point #                    18
 Done with rirpa frequency point #                    19
 Done with rirpa frequency point #                    20
 Done with rirpa frequency point #                    21
 Done with rirpa frequency point #                    22
 Done with rirpa frequency point #                    23
 Done with rirpa frequency point #                    24
 Done with rirpa frequency point #                    25
 Done with rirpa frequency point #                    26
 Done with rirpa frequency point #                    27
 Done with rirpa frequency point #                    28
 Done with rirpa frequency point #                    29
 Done with rirpa frequency point #                    30
 Done with rirpa frequency point #                    31
 Done with rirpa frequency point #                    32
 Done with rirpa frequency point #                    33
 Done with rirpa frequency point #                    34
 Done with rirpa frequency point #                    35
 Done with rirpa frequency point #                    36
 Done with rirpa frequency point #                    37
 Done with rirpa frequency point #                    38
 Done with rirpa frequency point #                    39
 Done with rirpa frequency point #                    40
 Done with rirpa frequency point #                    41
 Done with rirpa frequency point #                    42
 Done with rirpa frequency point #                    43
 Done with rirpa frequency point #                    44
 Done with rirpa frequency point #                    45
 Done with rirpa frequency point #                    46
 Done with rirpa frequency point #                    47
 Done with rirpa frequency point #                    48
 Done with rirpa frequency point #                    49
 Done with rirpa frequency point #                    50
 Done with rirpa frequency point #                    51
 Done with rirpa frequency point #                    52
 Done with rirpa frequency point #                    53
 Done with rirpa frequency point #                    54
 Done with rirpa frequency point #                    55
 Done with rirpa frequency point #                    56
 Done with rirpa frequency point #                    57
 Done with rirpa frequency point #                    58
 Done with rirpa frequency point #                    59
 Done with rirpa frequency point #                    60
 Done with rirpa frequency point #                    61
 Done with rirpa frequency point #                    62
 Done with rirpa frequency point #                    63
 Done with rirpa frequency point #                    64
 Done with rirpa frequency point #                    65
 Done with rirpa frequency point #                    66
 Done with rirpa frequency point #                    67
 Done with rirpa frequency point #                    68
 Done with rirpa frequency point #                    69
 Done with rirpa frequency point #                    70
 Done with rirpa frequency point #                    71
 Done with rirpa frequency point #                    72
 Done with rirpa frequency point #                    73
 Done with rirpa frequency point #                    74
 Done with rirpa frequency point #                    75
 Done with rirpa frequency point #                    76
 Done with rirpa frequency point #                    77
 Done with rirpa frequency point #                    78
 Done with rirpa frequency point #                    79
 Done with rirpa frequency point #                    80
 Done with rirpa frequency point #                    81
 Done with rirpa frequency point #                    82
 Done with rirpa frequency point #                    83
 Done with rirpa frequency point #                    84
 Done with rirpa frequency point #                    85
 Done with rirpa frequency point #                    86
 Done with rirpa frequency point #                    87
 Done with rirpa frequency point #                    88
 Done with rirpa frequency point #                    89
 Done with rirpa frequency point #                    90
 Done with rirpa frequency point #                    91
 Done with rirpa frequency point #                    92
 Done with rirpa frequency point #                    93
 Done with rirpa frequency point #                    94
 Done with rirpa frequency point #                    95
 Done with rirpa frequency point #                    96
 Done with rirpa frequency point #                    97
 Done with rirpa frequency point #                    98
 Done with rirpa frequency point #                    99
 Done with rirpa frequency point #                   100
 


 RI-RPA correlation energy: -0.1069291789793647E+01
 
 
 HXX Energy calculation skipped due to nohxx option
 

                  --------------------------------------------------- 
                 |  HXX+RIRPA total energy     =     -1.06929178979  |
                  ---------------------------------------------------- 
                 :  RIRPA correlation energy   =     -1.06929178979  :
                 :  HXX total energy           =      0.00000000000  :
                 :  Hartree energy             =      0.00000000000  :
                 :  Exact Exchange energy      =      0.00000000000  :
                  .................................................... 


    ------------------------------------------------------------------------
    Rirpa profiling                cpu                    wall         ratio
    ------------------------------------------------------------------------
    module                         sec     %               sec     %
    ------------------------------------------------------------------------
    RIRPA                      2146.4  100.00           79.0  100.00  27.2
    STARTUP                       5.2    0.24            0.4    0.56  11.9
    riccmos                       8.0    0.37            0.5    0.59  17.2
    riccaux                      12.6    0.59            0.5    0.57  27.8
    riccbound                     6.9    0.32            1.9    2.40   3.7
    ccmkbaoi                     62.6    2.92            2.4    3.00  26.4
    cc3idxnrm                     4.3    0.20            0.2    0.20  27.3
    ecrpa                      2045.6   95.31           73.1   92.63  28.0
    tread                       173.4    8.08            6.2    7.91  27.7
    tqbuild                    1528.5   71.21           54.6   69.18  28.0
    trpaln                      180.8    8.42            6.5    8.18  28.0
    ------------------------------------------------------------------------
    sum                        6174.4  287.67          225.2  285.23  27.4
    ------------------------------------------------------------------------


    ------------------------------------------------------------------------
         total  cpu-time : 35 minutes and 48 seconds
         total wall-time :  1 minutes and 19 seconds
    ------------------------------------------------------------------------

   ****  rirpa : all done  ****


    2019-11-27 01:51:47.269 

