
   OpenMP run-time library returned nthreads =  8

 ricc2 (c-16-19.local) : TURBOMOLE V7.2 ( 21471 ) 11 Oct 2017 at 17:04:51
 Copyright (C) 2017 TURBOMOLE GmbH, Karlsruhe


    2018-04-03 16:59:28.144 



                              R I C C 2 - PROGRAM

                          the quantum chemistry groups
                             at the universities in
                           Karlsruhe, Bochum & Mainz
                                   Germany



   *-----------------------------------------------------------------------*
   |                     program will use  8 thread(s)                     |
   *-----------------------------------------------------------------------*


              +--------------------------------------------------+
              | Atomic coordinate, charge and isotop information |
              +--------------------------------------------------+

                    atomic coordinates            atom    charge  isotop
         -1.38581419    1.46807764   -2.82760167    c      6.000     0
          2.89484766    1.29342803   -0.81267933    c      6.000     0
          0.62595939   -2.70999206   -1.91491901    c      6.000     0
         -0.84191933    2.73180018    1.71807876    c      6.000     0
         -3.11413250   -1.28772262    0.63796063    c      6.000     0
          1.17752288   -1.47136881    2.64043772    c      6.000     0
          1.12533202    0.02772755   -2.74518007    c      6.000     0
         -2.61914529    1.45421274   -0.19428928    c      6.000     0
          1.67357172    1.27721277    1.82935400    c      6.000     0
         -0.59926511   -2.74277789    0.72347563    c      6.000     0
          2.13936176    0.14352191   -5.25207685    o      8.000     0
          3.63242898   -0.92977010   -5.35489050    h      1.000     0
         -4.41627831    2.48430300   -0.26913342    h      1.000     0
          2.93158512    2.18089471    3.20391250    h      1.000     0
         -0.95646941   -4.70140506    1.29672435    h      1.000     0
         -1.01976372    3.40427450   -3.46646376    h      1.000     0
         -2.62159946    0.58266468   -4.23401935    h      1.000     0
         -0.58857627   -3.62093035   -3.32455195    h      1.000     0
          3.27733507    3.23338269   -1.43252228    h      1.000     0
         -1.71031031    2.79027686    3.59835125    h      1.000     0
         -3.99501314   -1.31561705    2.51430355    h      1.000     0
          0.33873003   -1.52213986    4.53362831    h      1.000     0
         -4.41948357   -2.20146141   -0.68796660    h      1.000     0
         -0.49362393    4.69127597    1.13062780    h      1.000     0
          4.70658286    0.27715058   -0.76814313    h      1.000     0
          2.42612203   -3.74489866   -1.86732149    h      1.000     0
          2.96979463   -2.50947278    2.74585402    h      1.000     0
 
       center of nuclear mass  :    0.14137094    0.01231772   -0.64231856
       center of nuclear charge:    0.12854879    0.00583676   -0.59607620

              +--------------------------------------------------+
              |               basis set information              |
              +--------------------------------------------------+

              we will work with the 1s 3p 5d 7f 9g ... basis set
              ...i.e. with spherical basis functions...

   type   atoms  prim   cont   basis
   ---------------------------------------------------------------------------
    c       10     50     30   cc-pVTZ   [4s3p2d1f|18s5p2d1f]
    o        1     50     30   cc-pVTZ   [4s3p2d1f|18s5p2d1f]
    h       16     16     14   cc-pVTZ   [3s2p1d|5s2p1d]
   ---------------------------------------------------------------------------
   total:   27    806    554
   ---------------------------------------------------------------------------

   total number of primitive shells          :   60
   total number of contracted shells         :  206
   total number of cartesian basis functions :  625
   total number of SCF-basis functions       :  554


 symmetry group of the molecule :   c1 

 the group has the following generators :
   c1(z)

    1 symmetry operations found

 there are 1 real representations :   a   


   =========================================================================


     restricted closed shell calculation for the wavefunction models:
               MP2        - Second Order Moeller Plesset PT


     global parameters for ricc2 program:

        hard restart (reuse of interm.) :  enabled 
        soft restart (reuse of vectors) :  disabled
        threshold for vector function   :    0.100000E-05
        convergence threshold energy    :    0.100000E-06
        linear dependence threshold     :    0.100000E-13
        global print level              :      1
        maximum number of iterations    :   300
        maximum number DIIS vectors     :    10
        max. dim. of reduced space      :   100
        core memory limit (MB)          : 15258


     MP2 energy only: Energy will be calculated directly from T2 amplitudes!

     Scratch Directory : 


   =========================================================================

    der. integral neglect threshold  :  0.10E-07
    integral neglect threshold       :  0.53E-11
    integral storage threshold THIZE :  0.10E-04
    integral storage threshold THIME :         5


                  +------------------------------------------+
                  |     Auxiliary basis set information      |
                  +------------------------------------------+

              we will work with the 1s 3p 5d 7f 9g ... basis set
              ...i.e. with spherical basis functions...

   type   atoms  prim   cont   basis
   ---------------------------------------------------------------------------
    c       10     81     81   cc-pVTZ   [8s6p5d3f1g|8s6p5d3f1g]
    o        1     81     81   cc-pVTZ   [8s6p5d3f1g|8s6p5d3f1g]
    h       16     30     30   cc-pVTZ   [4s3p2d1f|4s3p2d1f]
   ---------------------------------------------------------------------------
   total:   27   1371   1371
   ---------------------------------------------------------------------------

   total number of primitive shells          :   56
   total number of contracted shells         :  413
   total number of cartesian basis functions : 1671
   total number of SCF-basis functions       : 1371


 maximum number of shells which are related by symmetry :  1


 The symmetry information takes   1 MB

*---------------------------------------------------------------------*
|               simplified C1 algorithm will be applied               |
*---------------------------------------------------------------------*
  MOs are in ASCII format !


 reading orbital data $scfmo  from file mos
 orbital characterization : scfconv=7



              +--------------------------------------------+
              | list of orbitals that will be kept frozen: |
              +--------------------------------------------+
              |   irrep   index      energy     occ/vir    |
              +--------------------------------------------+
              |   a         1      -20.5456     occupied   |
              |   a         2      -11.2751     occupied   |
              |   a         3      -11.2240     occupied   |
              |   a         4      -11.2234     occupied   |
              |   a         5      -11.2212     occupied   |
              |   a         6      -11.2156     occupied   |
              |   a         7      -11.2153     occupied   |
              |   a         8      -11.2140     occupied   |
              |   a         9      -11.2138     occupied   |
              |   a        10      -11.2136     occupied   |
              |   a        11      -11.2091     occupied   |
              +--------------------------------------------+



   Molecular Orbital Statistic:
   ============================

   -----------------------------
   orbitals in total:
   -----------------------------
    frozen occupied :     11
    active occupied :     31
    active virtual  :    512
    frozen virtual  :      0
    all together    :    554
   -----------------------------


     time in riccmos       cpu:  2.94 sec    wall:  0.50 sec    ratio:  5.8

     total memory allocated for calculation of (Q|P)**(-1/2) : 22 MiB


     calculation of (P|Q) ...
     time in lp2sym        cpu:  0.72 sec    wall:  0.09 sec    ratio:  8.0


     calculation of the Cholesky decomposition of (P|Q)**(-1) ...
     time in invmetri      cpu:  2.10 sec    wall:  0.27 sec    ratio:  7.9

   threshold for RMS(d[D]) in SCF was     :  0.10E-06
   integral neglect threshold             :  0.53E-11
   derivative integral neglect threshold  :  0.10E-07


   =========================================================================

     Energy of reference wave function is  -463.0364334592000
     Maximum orbital residual is           0.1454397804482E-04


     Number of symmetry-nonredundant auxiliary basis functions:     1371

     Block lengths for integral files:
        frozen occupied (BOI):        1 MiB
        active occupied (BJI):        1 MiB
        active virtual  (BAI):        6 MiB
        frozen virtual  (BGI):        0 MiB
               general  (BTI):        6 MiB

   =========================================================================



   restarted calculation begins with wavefunction model nb. 1 which is MP2     


   **************************************************************************
   *                                                                        *
   *          OPTIMIZATION OF THE GROUND STATE CLUSTER AMPLITUDES           *
   *                                                                        *
   **************************************************************************


   Iter.   MP2 energy       Norm(Omega)    Norm(t1)  Norm(t2)     cpu    wall
   ...........................................................................
    1   -464.9758698293     ------          0.00000   0.46316    0.59    0.07
   ...........................................................................


     time in total         cpu: 35.39 sec    wall:  4.44 sec    ratio:  8.0


     **********************************************************************
     *                                                                    *
     *   RHF  energy                             :   -463.0364334592      *
     *   MP2 correlation energy (doubles)        :     -1.9394363701      *
     *                                                                    *
     *   Final MP2 energy                        :   -464.9758698293      *
     *                                                                    *
     *    E(S)   =     -1.2353171569      E(T)   =     -0.7041192132      *
     *    E(OS)  =     -1.4700235613      E(SS)  =     -0.4694128088      *
     *                                                                    *
     *   SCS-MP2 energy                          :   -464.9569326690      *
     *   (computed with  C(OS) =   1.2000  and  C(SS) =   0.3333)         *
     *                                                                    *
     *   SOS-MP2 energy                          :   -464.9474640889      *
     *   (computed with  C(OS) =   1.3000)                                *
     *                                                                    *
     *   Norm of MP1 T2 amplitudes               :      0.4631648052      *
     *                                                                    *
     **********************************************************************



    ------------------------------------------------------------------------
         total  cpu-time :  1 minutes and 14 seconds
         total wall-time :   9.50 seconds
    ------------------------------------------------------------------------

   ****  ricc2 : all done  ****


    2018-04-03 16:59:37.598 

