 this is node-proc. number 0 running on node c-13-16.gp.local
 the total number of node-proc. spawned is  33

 dscfserver (c-13-16.gp.local) : TURBOMOLE V7.2 ( 21471 ) 7 Nov 2017 at 16:15:16
 Copyright (C) 2017 TURBOMOLE GmbH, Karlsruhe


    2018-02-12 18:05:51.639 

 
    0:00:36 ---- Start global counter...
    0:23:22 ---- ... finished.
 
    0:24:17 ---- Start global counter...
    0:39:53 ---- ... finished.
 
    0:40:48 ---- Start global counter...
    0:54:36 ---- ... finished.
 
    0:55:43 ---- Start global counter...
    1:09:32 ---- ... finished.
 
    1:10:26 ---- Start global counter...
    1:22:47 ---- ... finished.
 
    1:23:42 ---- Start global counter...
    1:35:22 ---- ... finished.
 
    1:36:17 ---- Start global counter...
    1:46:38 ---- ... finished.
 
    1:47:32 ---- Start global counter...
    1:57:19 ---- ... finished.
 
    1:58:26 ---- Start global counter...
    2:07:07 ---- ... finished.
 
    2:08:01 ---- Start global counter...
    2:15:48 ---- ... finished.
 
    2:16:42 ---- Start global counter...
    2:23:45 ---- ... finished.
 
    2:24:40 ---- Start global counter...
    2:31:01 ---- ... finished.
 
    2:31:55 ---- Start global counter...
    2:37:26 ---- ... finished.
 
    2:38:34 ---- Start global counter...
    2:45:29 ---- ... finished.
 
    2:46:18 ---- ByeBye Tag received


 ! Total wall-clock time in seconds  :     9977.9
 ! Time (sec) spent in global counter:     9145.9
 ! So-called SERIAL wall-clock time  :      832.0

  *** Regular termination of server ***
 total turnaround time of dscfserver  9978.28 sec
 cpu elapsed by dscfserver process    9143.18 sec 

   ***  dscf server : all done  ***


    2018-02-12 20:52:09.913 

