           Doing BLAS/Lapack in the master proc. with  8 CPUs.
           SMPCPUS    set: Shared-memory Parallelization with   8 CPUs.

           SMP Parallelization Reference:
           C. van Wullen, J. Comput. Chem. 32 (2011) 1195--1201
 operating system is UNIX !

 ridft (c-18-134.gp.local) : TURBOMOLE V7.2 ( 21454 ) 4 Oct 2017 at 12:48:15
 Copyright (C) 2017 TURBOMOLE GmbH, Karlsruhe


    2018-04-24 21:19:13.760 



                                  r i d f t

                        DFT program with RI approximation 
                                for coulomb part 




                                                 
                                 References:     
                                                 
          TURBOMOLE:                             
              R. Ahlrichs, M. Baer, M. Haeser, H. Horn, and
              C. Koelmel
              Electronic structure calculations on workstation
              computers: the program system TURBOMOLE
              Chem. Phys. Lett. 162: 165 (1989)
          Density Functional:                              
              O. Treutler and R. Ahlrichs                      
              Efficient Molecular Numerical Integration Schemes
              J. Chem. Phys. 102: 346 (1995)                   
          Parallel Version:                                
              Performance of parallel TURBOMOLE for Density    
              Functional Calculations                          
              M. v. Arnim and R. Ahlrichs                      
              J. Comp. Chem. 19: 1746 (1998)                   
          RI-J Method:                                     
              Auxiliary Basis Sets to approximate Coulomb      
              Potentials                                       
              Chem. Phys. Lett. 240: 283 (1995)                
              K. Eichkorn, O. Treutler, H. Oehm, M. Haeser     
              and R. Ahlrichs                                  
              Chem. Phys. Lett. 242: 652 (1995)                
                                                           
              Auxiliary Basis Sets for Main Row Atoms and their
              Use to approximate Coulomb Potentials            
              K. Eichkorn, F. Weigend, O. Treutler and         
              R. Ahlrichs                                      
              Theo. Chem. Acc. 97: 119 (1997)                   
                                                           
              Accurate Coulomb-fitting basis sets for H to Rn 
              F. Weigend                                        
              Phys. Chem. Chem. Phys. 8: 1057 (2006)            
                                                           
          Multipole accelerated RI-J (MARI-J):             
              Fast evaluation of the Coulomb potential for     
              electron densities using multipole accelerated   
              resolution of identity approximation             
              M. Sierka, A. Hogekamp and R. Ahlrichs           
              J. Chem. Phys. 118: 9136 (2003)                  
          RI-JK Method:                                     
              A fully direct RI-HF algorithm: Implementation,
              optimised auxiliary basis sets, demonstration of
              accuracy and efficiency                         
              F. Weigend                                      
              Phys. Chem. Chem. Phys. 4: 4285 (2002)           
          Two-component HF and DFT with spin-orbit coupling:  
              Self-consistent treatment of spin-orbit         
              interactions with efficient Hartree-Fock and    
              density functional methods                      
              M. K. Armbruster, F. Weigend, C. van Wüllen and 
              W. Klopper                                      
              Phys. Chem. Chem. Phys. 10: 1748 (2008)         
          Relativistic all-electron 2c calculations           
              An efficient implementation of two-component    
              relativistic exact-decoupling methods for large 
              molecules                                       
              D. Peng, N. Middendorf, F. Weigend, M. Reiher   
              J. Chem. Phys. 138, 184105 (2013)               
                                         




              +--------------------------------------------------+
              |      general information about current run       |
              +--------------------------------------------------+

 

 DENSITY CONVERGENCE CHECK SWITCHED ON !
 SCF CONVERGENCE IF RMS(delta[D]) <     0.1000000000E-06

 TPSS meta-GGA functional
 exchange:    LDA + TPSS
 correlation: LDA (PW) + TPSS
 A DFT calculation using the RI-J approximation will be carried out.
 Allocatable memory for RI due to $ricore (MB):                   500


              +--------------------------------------------------+
              | Atomic coordinate, charge and isotop information |
              +--------------------------------------------------+

                    atomic coordinates            atom    charge  isotop
          2.59306506    1.91330493    1.83459277    c      6.000     0
          1.79935231    3.80600206    1.95230866    h      1.000     0
          3.68009367    1.75086073    0.09584267    h      1.000     0
          3.87715505    1.60971628    3.40708639    h      1.000     0
          0.61744356   -0.14673208    1.86742503    c      6.000     0
          1.16940274   -2.36684665    2.21340080    o      8.000     0
         -1.79529433    0.65174159    1.46248724    n      7.000     0
         -2.08752672    2.49826613    1.14538599    h      1.000     0
         -3.89256069   -1.09106919    1.28530382    c      6.000     0
         -3.15462569   -2.96081536    1.69543253    h      1.000     0
         -5.35660212   -0.62621806    2.65253562    h      1.000     0
         -4.70725206   -1.09400938   -0.60459758    h      1.000     0
          5.02792916    0.87446206    9.17149562    c      6.000     0
          5.24872340    2.30010149    7.69988117    h      1.000     0
          4.86520414    1.86635346   10.96986494    h      1.000     0
          6.75153219   -0.24849240    9.22215541    h      1.000     0
          2.70683103   -0.75710388    8.68479372    c      6.000     0
          2.52812086   -2.16580779   10.18344261    h      1.000     0
          2.92683320   -1.80299988    6.92008469    h      1.000     0
          0.28318575    0.78985229    8.56139205    c      6.000     0
          0.07234840    1.88161300   10.30576734    h      1.000     0
          0.43291659    2.17467177    7.03137028    h      1.000     0
         -2.06830685   -0.81704842    8.15154844    c      6.000     0
         -2.23989769   -2.16723221    9.70380204    h      1.000     0
         -1.82678661   -1.92997944    6.43149241    h      1.000     0
         -4.46228466    0.77087239    7.98125629    c      6.000     0
         -4.33583697    2.10700511    6.41699914    h      1.000     0
         -6.13533898   -0.39323196    7.69055423    h      1.000     0
         -4.74641640    1.85975355    9.70699122    h      1.000     0
 
       center of nuclear mass  :    0.00556987   -0.01205370    5.09757071
       center of nuclear charge:   -0.00961009    0.04039273    5.19265687

              +--------------------------------------------------+
              |               basis set information              |
              +--------------------------------------------------+

              we will work with the 1s 3p 5d 7f 9g ... basis set
              ...i.e. with spherical basis functions...

   type   atoms  prim   cont   basis
   ---------------------------------------------------------------------------
    c        8     50     30   cc-pVTZ   [4s3p2d1f|18s5p2d1f]
    h       19     16     14   cc-pVTZ   [3s2p1d|5s2p1d]
    o        1     50     30   cc-pVTZ   [4s3p2d1f|18s5p2d1f]
    n        1     50     30   cc-pVTZ   [4s3p2d1f|18s5p2d1f]
   ---------------------------------------------------------------------------
   total:   29    804    566
   ---------------------------------------------------------------------------

   total number of primitive shells          :   86
   total number of contracted shells         :  214
   total number of cartesian basis functions :  635
   total number of SCF-basis functions       :  566


 integral neglect threshold       :  0.52E-13
 integral storage threshold THIZE :  0.10E-04
 integral storage threshold THIME :         5

 RI-J AUXILIARY BASIS SET information:

              we will work with the 1s 3p 5d 7f 9g ... basis set
              ...i.e. with spherical basis functions...

   type   atoms  prim   cont   basis
   ---------------------------------------------------------------------------
    c        8     70     49   cc-pVTZ   [6s4p3d1f1g|12s5p4d2f1g]
    h       19     16     11   cc-pVTZ   [3s1p1d|5s2p1d]
    o        1     70     49   cc-pVTZ   [6s4p3d1f1g|12s5p4d2f1g]
    n        1     70     49   cc-pVTZ   [6s4p3d1f1g|12s5p4d2f1g]
   ---------------------------------------------------------------------------
   total:   29   1004    699
   ---------------------------------------------------------------------------

   total number of primitive shells          :   80
   total number of contracted shells         :  245
   total number of cartesian basis functions :  838
   total number of SCF-basis functions       :  699


 symmetry group of the molecule :   c1 

 the group has the following generators :
   c1(z)

    1 symmetry operations found

 there are 1 real representations :   a   

 maximum number of shells which are related by symmetry :  1


    mo occupation :
   irrep   mo's   occupied
    a      566       41
 
 number of basis functions   :                    566
 number of occupied orbitals :                     41
 
  
           ------------------
           density functional
           ------------------
 TPSS meta-GGA functional
 exchange:    LDA + TPSS
 correlation: LDA (PW) + TPSS

 iterations will be done with small grid
  
 spherical integration : Lebedev's spherical grid
 spherical gridsize    :                     5
    i.e. gridpoints    :                   590
 value for diffuse not defined
 radial integration    : Chebyshev 2nd kind (scaling 3)
 radial gridsize       :                     8
 integration cells     :                    29
 partition function    : becke
 partition sharpness   :                     3
  

 biggest AO integral is expected to be     4.866064444
  
           ------------------------
               RI-J - INFORMATION
           ------------------------
 Contributions to RI integral batches: 
  neglected integral batches:                  4230
  direct contribution:                         7542
  memory contribution:                 11233
 Memory core needed for (P|Q) and Cholesky      4 MByte
 Memory core minimum needed except of (P|Q)     1 MByte
 Total minimum memory core needed (sum)         5 MByte
  
 ****************************************
 Memory allocated for RI-J   387 MByte
 ****************************************
                                            

          ------------------------
          nuclear repulsion energy  :   576.369809622    
          ------------------------


         -----------------
         -S,T+V- integrals
         -----------------

 1e-integrals will be neglected if expon. factor < 0.526293E-14
 Difference densities >>NOT<< switched on in parallel ridft!

 DIIS switched on: error vector is FDS-SDF
 Max. Iterations for DIIS is     :   4
 DIIS matrix (see manual) 
    Scaling factor of diagonals  :  1.200
    threshold for scaling factor :  0.000

 scf convergence criterion : increment of total energy < .1000000D-08
                  and increment of one-electron energy < .1000000D-05

  MOs are in ASCII format !


 automatic virtual orbital shift switched on 
      shift if e(lumo)-e(homo) < 0.10000000    


 reading orbital data $scfmo  from file mos
 orbital characterization : expanded
 mo provided and orthogonalized by Cholesky decomposition

 DSCF restart information will be dumped onto file mos


 Starting SCF iterations

          Overall gridpoints after grid construction =        126763

 ITERATION  ENERGY          1e-ENERGY        2e-ENERGY     RMS[dD(SAO)]   TOL
   1  -444.73463333235    -1732.2517638     711.14732082    0.000D+00 0.525D-13
                            Exc = -64.7100977942     Coul =  775.857418613    
                              N = 82.000172840    
                            current damping = 0.700
 
          max. resid. norm for Fia-block=  3.214D-01 for orbital     22a         
          max. resid. fock norm         =  4.406D+00 for orbital    527a         

 ITERATION  ENERGY          1e-ENERGY        2e-ENERGY     RMS[dD(SAO)]   TOL
   2  -446.17361352270    -1741.5715173     719.02809418    0.225D-02 0.525D-13
                            Exc = -65.4802747018     Coul =  784.508368882    
                              N = 82.000124290    
                            current damping = 0.650
 
          Norm of current diis error:  2.6135    
          max. resid. norm for Fia-block=  1.590D-01 for orbital      1a         
          max. resid. fock norm         =  3.460D-01 for orbital    557a         

 ITERATION  ENERGY          1e-ENERGY        2e-ENERGY     RMS[dD(SAO)]   TOL
   3  -446.42770877959    -1744.4279186     721.63040020    0.141D-02 0.525D-13
                            Exc = -65.9564480819     Coul =  787.586848278    
                              N = 82.000096253    
                            current damping = 0.550
 
          Norm of current diis error:  1.2888    
          max. resid. norm for Fia-block=  6.182D-02 for orbital      1a         
          max. resid. fock norm         =  6.533D-02 for orbital      1a         

 ITERATION  ENERGY          1e-ENERGY        2e-ENERGY     RMS[dD(SAO)]   TOL
   4  -446.50621082703    -1745.2756230     722.39960251    0.104D-02 0.525D-13
                            Exc = -66.0780629701     Coul =  788.477665479    
                              N = 82.000074215    
                            current damping = 0.450
 
          Norm of current diis error: 0.55332    
          max. resid. norm for Fia-block=  3.653D-02 for orbital     11a         
          max. resid. fock norm         =  7.743D-02 for orbital    552a         

 ITERATION  ENERGY          1e-ENERGY        2e-ENERGY     RMS[dD(SAO)]   TOL
   5  -446.51639378075    -1746.4746687     723.58846533    0.437D-03 0.525D-13
                            Exc = -66.2690439693     Coul =  789.857509296    
                              N = 82.000067936    
                            current damping = 0.350
 
          Norm of current diis error: 0.37072    
          max. resid. norm for Fia-block=  1.584D-02 for orbital     41a         
          max. resid. fock norm         =  2.241D-02 for orbital    558a         
          mo-orthogonalization: Cholesky decomposition

 ITERATION  ENERGY          1e-ENERGY        2e-ENERGY     RMS[dD(SAO)]   TOL
   6  -446.52318041625    -1746.4276987     723.53470869    0.341D-03 0.525D-13
                            Exc = -66.2660174562     Coul =  789.800726145    
                              N = 82.000062836    
                            current damping = 0.400
 
          Norm of current diis error: 0.91086E-01
          max. resid. norm for Fia-block=  5.623D-03 for orbital     40a         
          max. resid. fock norm         =  8.495D-03 for orbital    558a         

 ITERATION  ENERGY          1e-ENERGY        2e-ENERGY     RMS[dD(SAO)]   TOL
   7  -446.52347491531    -1746.3339144     723.44062986    0.833D-04 0.525D-13
                            Exc = -66.2596863085     Coul =  789.700316165    
                              N = 82.000063440    
                            current damping = 0.250
 
          Norm of current diis error: 0.49403E-01
          max. resid. norm for Fia-block=  1.806D-03 for orbital     19a         
          max. resid. fock norm         =  2.882D-03 for orbital    557a         

 ITERATION  ENERGY          1e-ENERGY        2e-ENERGY     RMS[dD(SAO)]   TOL
   8  -446.52356627156    -1746.4232779     723.52990196    0.230D-04 0.525D-13
                            Exc = -66.2711266665     Coul =  789.801028631    
                              N = 82.000062731    
                            current damping = 0.300
 
          Norm of current diis error: 0.80712E-02
          max. resid. norm for Fia-block=  3.186D-04 for orbital     34a         
          max. resid. fock norm         =  4.147D-04 for orbital    562a         

 ITERATION  ENERGY          1e-ENERGY        2e-ENERGY     RMS[dD(SAO)]   TOL
   9  -446.52356889839    -1746.4315161     723.53813762    0.656D-05 0.525D-13
                            Exc = -66.2718596690     Coul =  789.809997289    
                              N = 82.000062674    
                            current damping = 0.150
 
          Norm of current diis error: 0.33089E-02
          max. resid. norm for Fia-block=  1.971D-04 for orbital     41a         
          max. resid. fock norm         =  2.420D-04 for orbital    562a         

 ITERATION  ENERGY          1e-ENERGY        2e-ENERGY     RMS[dD(SAO)]   TOL
  10  -446.52356886624    -1746.4220452     723.52866668    0.466D-05 0.525D-13
                            Exc = -66.2709618461     Coul =  789.799628527    
                              N = 82.000062657    
                            current damping = 0.200
 
          Norm of current diis error: 0.31390E-02
          max. resid. norm for Fia-block=  1.047D-04 for orbital     41a         
          max. resid. fock norm         =  1.727D-04 for orbital    558a         
          mo-orthogonalization: Cholesky decomposition

 ITERATION  ENERGY          1e-ENERGY        2e-ENERGY     RMS[dD(SAO)]   TOL
  11  -446.52356933868    -1746.4237128     723.53033381    0.196D-05 0.525D-13
                            Exc = -66.2712664116     Coul =  789.801600221    
                              N = 82.000062670    
                            current damping = 0.250
 
          Norm of current diis error: 0.57901E-03
          max. resid. norm for Fia-block=  2.335D-05 for orbital     19a         
          max. resid. fock norm         =  3.343D-05 for orbital    462a         

 ITERATION  ENERGY          1e-ENERGY        2e-ENERGY     RMS[dD(SAO)]   TOL
  12  -446.52356934851    -1746.4261257     723.53274673    0.473D-06 0.525D-13
                            Exc = -66.2714635519     Coul =  789.804210281    
                              N = 82.000062659    
                            current damping = 0.100
 
          Norm of current diis error: 0.31345E-03
          max. resid. norm for Fia-block=  1.251D-05 for orbital     40a         
          max. resid. fock norm         =  1.717D-05 for orbital    558a         

 ITERATION  ENERGY          1e-ENERGY        2e-ENERGY     RMS[dD(SAO)]   TOL
  13  -446.52356935167    -1746.4254468     723.53206778    0.202D-06 0.525D-13
                            Exc = -66.2714007767     Coul =  789.803468560    
                              N = 82.000062664    
                            current damping = 0.150
 
          Norm of current diis error: 0.11684E-03
          max. resid. norm for Fia-block=  4.188D-06 for orbital     19a         
          max. resid. fock norm         =  5.792D-06 for orbital     19a         

 DENSITY CONVERGED !


 ITERATION  ENERGY          1e-ENERGY        2e-ENERGY     RMS[dD(SAO)]   TOL
  14  -446.52356935215    -1746.4254182     723.53203921    0.629D-07 0.525D-13
                            Exc = -66.2714074501     Coul =  789.803446655    
                              N = 82.000062663    
                            current damping = 0.050
 
          Norm of current diis error: 0.36276E-04
          max. resid. norm for Fia-block=  1.074D-06 for orbital     41a         
          max. resid. fock norm         =  2.040D-06 for orbital    562a         

 DENSITY CONVERGED !


 ITERATION  ENERGY          1e-ENERGY        2e-ENERGY     RMS[dD(SAO)]   TOL
  15  -446.52356935218    -1746.4255242     723.53214525    0.295D-07 0.525D-13
                            Exc = -66.2714108367     Coul =  789.803556091    
                              N = 82.000062663    
                            current damping = 0.100
 
          Norm of current diis error: 0.21273E-04
          max. resid. norm for Fia-block=  7.296D-07 for orbital     41a         
          max. resid. fock norm         =  9.743D-07 for orbital    558a         
          mo-orthogonalization: Cholesky decomposition

 DENSITY CONVERGED !


 ITERATION  ENERGY          1e-ENERGY        2e-ENERGY     RMS[dD(SAO)]   TOL
  16  -446.52356935219    -1746.4254857     723.53210675    0.165D-07 0.525D-13
                            Exc = -66.2714102482     Coul =  789.803516996    
                              N = 82.000062663    
                            current damping = 0.150
 
          Norm of current diis error: 0.10565E-04
          max. resid. norm for Fia-block=  4.727D-07 for orbital     41a         
          max. resid. fock norm         =  7.528D-07 for orbital    558a         

 ENERGY & DENSITY CONVERGED !

          Overall gridpoints after grid construction =        420550

 ITERATION  ENERGY          1e-ENERGY        2e-ENERGY     RMS[dD(SAO)]   TOL
  17  -446.52336304108    -1746.4254766     723.53230391    0.903D-08 0.525D-13
                            Exc = -66.2712023682     Coul =  789.803506275    
                              N = 82.000030074    
                            current damping = 0.200
 
          Norm of current diis error: 0.53302E-05
          max. resid. norm for Fia-block=  1.511D-07 for orbital     41a         
          max. resid. fock norm         =  2.090D-07 for orbital    558a         

 End of SCF iterations

   convergence criteria satisfied after    17 iterations


                  ------------------------------------------ 
                 |  total energy      =   -446.52336304108  |
                  ------------------------------------------ 
                 :  kinetic energy    =    444.10343167776  :
                 :  potential energy  =   -890.62679471884  :
                 :  virial theorem    =      1.99458050449  :
                 :  wavefunction norm =      1.00000000000  :
                  .......................................... 


 <geterg> : there is no data group $energy 


 <skperg> : $end is missing 


 orbitals $scfmo  will be written to file mos

    irrep                 37a         38a         39a         40a         41a   
 eigenvalues H         -0.28398    -0.27877    -0.27221    -0.22359    -0.21047
            eV          -7.7276     -7.5858     -7.4071     -6.0842     -5.7273
 occupation              2.0000      2.0000      2.0000      2.0000      2.0000 

    irrep                 42a         43a         44a         45a         46a   
 eigenvalues H         -0.00586     0.00784     0.03566     0.04187     0.05784
            eV          -0.1595      0.2135      0.9704      1.1395      1.5739
 
 
 
 
 ==============================================================================
                           electrostatic moments
 ==============================================================================

 reference point for electrostatic moments:    0.00000   0.00000   0.00000

 
              nuc           elec       ->  total
 ------------------------------------------------------------------------------
                          charge      
 ------------------------------------------------------------------------------
          82.000000     -82.000000      -0.000000
 
 ------------------------------------------------------------------------------
                       dipole moment  
 ------------------------------------------------------------------------------
   x      -0.788028       0.131516      -0.656512
   y       3.312204      -2.242145       1.070059
   z     425.797863    -426.199216      -0.401352
 
   | dipole moment | =     1.3180 a.u. =     3.3500 debye 
 
 ------------------------------------------------------------------------------
                     quadrupole moment
 ------------------------------------------------------------------------------
  xx     804.559019    -852.503165     -47.944146
  yy     174.626985    -225.169314     -50.542329
  zz    3212.127122   -3263.087596     -50.960474
  xy      64.092536     -62.638704       1.453832
  xz     174.446954    -175.431706      -0.984752
  yz      63.034244     -61.891324       1.142921
 
     1/3  trace=     -49.815650
     anisotropy=       4.602251
 
 ==============================================================================
 


    ------------------------------------------------------------------------
         total  cpu-time : 10 minutes and 11 seconds
         total wall-time :  1 minutes and 18 seconds
    ------------------------------------------------------------------------

   ****  ridft : all done  ****


    2018-04-24 21:20:31.389 

