Using Slurm to start processes with PMI2
STARTING ridft ON 8 PROCESSORS!
RUNNING PROGRAM /beegfs/modfac/apps/TURBOMOLE/7.0_intel_GA/bin/em64t-unknown-linux-gnu_mpi/ridft_mpi.
PLEASE WAIT UNTIL ridft HAS FINISHED.
Look for the output in slave1.output.
  this is node-proc. number 1 running on node c-9-333.local
  the total number of node-proc. spawned is            8
  parallel platform: MPP, or cluster with fast interconnect

 ridft (c-9-333.local) : TURBOMOLE V7.0.2( ) 15 Jan 2016 at 17:47:42
 Copyright (C) 2016 TURBOMOLE GmbH, Karlsruhe


    2017-11-08 14:38:29.478 



                                  r i d f t

                        DFT program with RI approximation 
                                for coulomb part 




                                                 
                                 References:     
                                                 
          TURBOMOLE:                             
              R. Ahlrichs, M. Baer, M. Haeser, H. Horn, and
              C. Koelmel
              Electronic structure calculations on workstation
              computers: the program system TURBOMOLE
              Chem. Phys. Lett. 162: 165 (1989)
          Density Functional:                              
              O. Treutler and R. Ahlrichs                      
              Efficient Molecular Numerical Integration Schemes
              J. Chem. Phys. 102: 346 (1995)                   
          Parallel Version:                                
              Performance of parallel TURBOMOLE for Density    
              Functional Calculations                          
              M. v. Arnim and R. Ahlrichs                      
              J. Comp. Chem. 19: 1746 (1998)                   
          RI-J Method:                                     
              Auxiliary Basis Sets to approximate Coulomb      
              Potentials                                       
              Chem. Phys. Lett. 240: 283 (1995)                
              K. Eichkorn, O. Treutler, H. Oehm, M. Haeser     
              and R. Ahlrichs                                  
              Chem. Phys. Lett. 242: 652 (1995)                
                                                           
              Auxiliary Basis Sets for Main Row Atoms and their
              Use to approximate Coulomb Potentials            
              K. Eichkorn, F. Weigend, O. Treutler and         
              R. Ahlrichs                                      
              Theo. Chem. Acc. 97: 119 (1997)                   
                                                           
              Accurate Coulomb-fitting basis sets for H to Rn 
              F. Weigend                                        
              Phys. Chem. Chem. Phys. 8: 1057 (2006)            
                                                           
          Multipole accelerated RI-J (MARI-J):             
              Fast evaluation of the Coulomb potential for     
              electron densities using multipole accelerated   
              resolution of identity approximation             
              M. Sierka, A. Hogekamp and R. Ahlrichs           
              J. Chem. Phys. 118: 9136 (2003)                  
          RI-JK Method:                                     
              A fully direct RI-HF algorithm: Implementation,
              optimised auxiliary basis sets, demonstration of
              accuracy and efficiency                         
              F. Weigend                                      
              Phys. Chem. Chem. Phys. 4: 4285 (2002)           
          Two-component HF and DFT with spin-orbit coupling:  
              Self-consistent treatment of spin-orbit         
              interactions with efficient Hartree-Fock and    
              density functional methods                      
              M. K. Armbruster, F. Weigend, C. van Wüllen and 
              W. Klopper                                      
              Phys. Chem. Chem. Phys. 10: 1748 (2008)         
          Relativistic all-electron 2c calculations           
              An efficient implementation of two-component    
              relativistic exact-decoupling methods for large 
              molecules                                       
              D. Peng, N. Middendorf, F. Weigend, M. Reiher   
              J. Chem. Phys. 138, 184105 (2013)               
                                         


 


              +--------------------------------------------------+
              |      general information about current run       |
              +--------------------------------------------------+

 

 SCF run will be profiled !


 DENSITY CONVERGENCE CHECK SWITCHED ON !
 SCF CONVERGENCE IF RMS(delta[D]) <     0.1000000000E-06

 PBE functional
 exchange:    LDA + PBE
 correlation: LDA (PW) + PBE
 A DFT calculation using the RI-J approximation will be carried out.
 Allocatable memory for RI due to $ricore (MB):       35000


              +--------------------------------------------------+
              | Atomic coordinate, charge and isotop information |
              +--------------------------------------------------+

                    atomic coordinates            atom    charge  isotop
         -1.03737932    1.04688776    6.34823603    c      6.000     0
          1.05893370    1.92152406    7.71051832    c      6.000     0
          2.23819399    4.20004574    7.15780223    c      6.000     0
          1.25879968    5.65296861    5.20972858    c      6.000     0
         -0.87870300    4.94836528    3.81718972    c      6.000     0
         -1.92756943    2.58897789    4.39316594    c      6.000     0
          2.47923184    7.95928301    4.59952686    o      8.000     0
          4.65165159    7.72211866    3.23178328    c      6.000     0
          6.75818461    6.99865621    4.38636640    n      7.000     0
          8.76794778    6.85196152    2.86497401    c      6.000     0
          8.68255677    7.41859104    0.30548588    c      6.000     0
          6.58267990    8.15326245   -0.88394449    n      7.000     0
          4.56772241    8.29255934    0.60020985    c      6.000     0
         11.24253791    6.98725264   -0.81383540    c      6.000     0
         12.73882719    6.16414338    1.22369806    n      7.000     0
         11.39479616    6.01710708    3.51944909    c      6.000     0
         15.34088990    5.24988592    0.92242213    c      6.000     0
         15.38646520    2.47205946    0.23392729    c      6.000     0
         15.68012723    0.62942459    2.10271701    c      6.000     0
         15.61419942   -1.92824788    1.47750167    c      6.000     0
         15.25787287   -2.68604854   -1.02751039    c      6.000     0
         14.97123145   -0.83982039   -2.90292127    c      6.000     0
         15.03203558    1.71503316   -2.27656166    c      6.000     0
         12.28545516    5.33621670    5.52041293    o      8.000     0
         11.97826895    7.23735939   -2.97426213    o      8.000     0
          2.31829173    9.03393627   -0.41213452    o      8.000     0
          1.05502572    7.21176491   -1.90442091    c      6.000     0
          1.89952041    6.77237269   -4.34592140    c      6.000     0
          0.60464730    5.00822125   -5.79532259    c      6.000     0
         -1.49355866    3.67579119   -4.87281751    c      6.000     0
         -2.26558868    4.21353649   -2.39973664    c      6.000     0
         -1.05103982    5.99311533   -0.86325538    c      6.000     0
          1.98014452    0.44416053    9.72197303    o      8.000     0
          4.25263980   -0.75333587    9.29248448    c      6.000     0
          6.35053180    0.50854263    9.52765770    n      7.000     0
          8.55600531   -0.76797736    9.06971777    c      6.000     0
          8.51289112   -3.37508629    8.35504837    c      6.000     0
          6.26675529   -4.64462158    8.14431039    n      7.000     0
          4.21250628   -3.37556143    8.60741428    c      6.000     0
         10.80311145   -4.64422987    7.84741069    c      6.000     0
         13.05826780   -3.35439911    8.07006724    c      6.000     0
         13.10118942   -0.77833021    8.77408439    c      6.000     0
         10.88821691    0.51194378    9.25905883    c      6.000     0
          1.90214592   -4.57106084    8.47597151    o      8.000     0
          0.92657915   -4.98532533    6.04144437    c      6.000     0
          2.03703550   -6.80498763    4.50779026    c      6.000     0
          1.00381617   -7.21022527    2.13224653    c      6.000     0
         -1.10554984   -5.88427879    1.23446922    c      6.000     0
         -2.08789178   -4.00945303    2.82672699    c      6.000     0
         -1.15721657   -3.54406523    5.26014107    c      6.000     0
          2.11044560   -9.05403509    0.53756479    o      8.000     0
          4.29593923   -8.32912903   -0.63192026    c      6.000     0
          6.42045094   -8.24870093    0.70830812    n      7.000     0
          8.44294325   -7.52706057   -0.60677975    c      6.000     0
          8.35773814   -6.91659472   -3.15785633    c      6.000     0
          6.25173620   -7.00445882   -4.53463815    n      7.000     0
          4.21404078   -7.71159751   -3.24811418    c      6.000     0
         11.08230923   -7.13029524    0.33156100    c      6.000     0
         12.43817930   -6.30347139   -1.80404508    n      7.000     0
         10.93282425   -6.09746021   -3.98491354    c      6.000     0
         15.07831427   -5.46305070   -1.69539510    c      6.000     0
         -2.16336724   -1.51157570    7.03652751    c      6.000     0
         -5.03972047   -1.51215378    7.62413748    c      6.000     0
         -6.99699623   -1.32218384    5.50255521    c      6.000     0
         -9.73556443   -1.27863214    6.47253594    c      6.000     0
         -2.14499893   -6.52582843   -1.37390615    c      6.000     0
         -5.03033869   -7.07706692   -1.56400702    c      6.000     0
         -6.93974951   -5.22870632   -0.41149096    c      6.000     0
         -9.66036202   -5.63106368   -1.33361553    c      6.000     0
         11.67592482   -5.37898211   -6.03540677    o      8.000     0
          1.95629252   -7.86592753   -4.49463985    o      8.000     0
          0.78444476   -5.51501304   -4.99896335    c      6.000     0
          1.60661527   -4.09656685   -7.04408005    c      6.000     0
          0.40601518   -1.80951889   -7.53241567    c      6.000     0
         -1.55386422   -0.88478902   -6.00621582    c      6.000     0
         -2.25881416   -2.37606932   -3.93732370    c      6.000     0
         -1.19725413   -4.74076579   -3.42511400    c      6.000     0
         11.97989174   -7.41312048    2.42419911    o      8.000     0
          1.18553245   -0.38039648   -9.63340121    o      8.000     0
          3.53034809    0.73681702   -9.39061098    c      6.000     0
          5.55984100   -0.57824252   -9.83527350    n      7.000     0
          7.83307597    0.62885652   -9.54373012    c      6.000     0
          7.92761158    3.21940763   -8.77347931    c      6.000     0
          5.74659631    4.54455083   -8.33876572    n      7.000     0
          3.62606924    3.33868543   -8.64644184    c      6.000     0
         10.28895902    4.41244963   -8.43389178    c      6.000     0
         12.47890658    3.06654756   -8.87334588    c      6.000     0
         12.38647522    0.50652768   -9.63126959    c      6.000     0
         10.10288513   -0.70948757   -9.95531550    c      6.000     0
         -2.71538919    1.69220965   -6.56799643    c      6.000     0
         -5.64592341    1.80644334   -6.77084263    c      6.000     0
         -7.33017931    0.59897643   -4.74548426    c      6.000     0
        -10.16038577    1.07118563   -5.19140083    c      6.000     0
          1.36358306    4.57453141   -8.29921486    o      8.000     0
         -1.90623485    6.72068670    1.79028950    c      6.000     0
         -4.76093927    7.40495969    1.97794512    c      6.000     0
         -6.76897800    5.33814411    2.28016646    c      6.000     0
         -9.48200336    6.34253963    2.02006796    c      6.000     0
          3.89339464    4.80336676    8.19844047    h      1.000     0
         10.87935778    2.50122292    9.74816171    h      1.000     0
         14.89795647    0.20257468    8.92277341    h      1.000     0
         14.82346753   -4.33005220    7.68938886    h      1.000     0
         10.73049062   -6.60442619    7.25737956    h      1.000     0
          3.67793152   -7.84976209    5.14141588    h      1.000     0
         -3.61593718   -2.84485086    2.13167409    h      1.000     0
          3.15012475   -4.73786309   -8.22469168    h      1.000     0
         -3.68362820   -1.65701722   -2.66193567    h      1.000     0
          9.99402273   -2.68660320  -10.48093097    h      1.000     0
         14.13541177   -0.52056525   -9.94578824    h      1.000     0
         14.29909800    3.98177059   -8.62252679    h      1.000     0
         10.32299307    6.36022602   -7.79896891    h      1.000     0
         -3.86720621    3.19641661   -1.63534787    h      1.000     0
          3.52700872    7.75734425   -5.09847441    h      1.000     0
         16.20604285    6.39881985   -0.55858625    h      1.000     0
         16.30151835    5.58605819    2.71732831    h      1.000     0
         15.91716818    1.20193290    4.05903831    h      1.000     0
         15.80120429   -3.35036508    2.94470384    h      1.000     0
         14.67836601   -1.41260665   -4.85220640    h      1.000     0
         14.77803537    3.13557898   -3.73477193    h      1.000     0
         15.89405916   -5.83464971   -3.55507844    h      1.000     0
         16.01830637   -6.62759605   -0.27459100    h      1.000     0
         -3.48030202    1.91026577    3.24982007    h      1.000     0
         -1.30965889   -1.95972820    8.85666426    h      1.000     0
         -1.26723403   -8.32924581   -1.84385999    h      1.000     0
         -2.05914080    2.16542491   -8.46310114    h      1.000     0
         -0.95027074    8.51168352    2.14430925    h      1.000     0
         -5.32960659    0.03811405    8.96830644    h      1.000     0
         -5.42225610   -3.26383320    8.67066514    h      1.000     0
         -5.17726035    8.53005857    0.28958835    h      1.000     0
         -4.96117508    8.68965098    3.59467352    h      1.000     0
         -6.14140254    3.81467085   -6.93836522    h      1.000     0
         -6.12792370    0.93833495   -8.58900541    h      1.000     0
         -5.43551199   -7.29160934   -3.58829233    h      1.000     0
         -5.33753608   -8.93982207   -0.71133030    h      1.000     0
         -6.68675180    0.36843851    4.34960618    h      1.000     0
         -6.79786859   -2.94945284    4.25062214    h      1.000     0
         -6.41355503   -3.27066219   -0.82169028    h      1.000     0
         -6.90953943   -5.42981480    1.64759322    h      1.000     0
         -6.84162613    1.31098732   -2.86078896    h      1.000     0
         -7.02080654   -1.44580225   -4.71218786    h      1.000     0
         -6.51233327    3.82178691    0.88788583    h      1.000     0
         -6.56288550    4.47099929    4.14648694    h      1.000     0
        -10.43151480    1.08722229    7.99631634    c      6.000     0
        -10.07888202   -2.96491944    7.63735520    h      1.000     0
        -10.99676594   -1.43709966    4.83441852    h      1.000     0
         -9.71811068   -5.47733604   -3.40461447    h      1.000     0
        -10.82136504   -4.07849707   -0.60035403    h      1.000     0
        -10.82415581   -8.15938108   -0.52915485    c      6.000     0
        -10.50448922    3.10828001   -5.40011901    h      1.000     0
        -11.18568507    0.47391253   -3.49260041    h      1.000     0
        -11.24053039   -0.31695783   -7.49496463    c      6.000     0
        -10.14988230    7.25783704   -0.64808616    c      6.000     0
         -9.78225026    7.88839840    3.37553700    h      1.000     0
        -10.78208121    4.82466515    2.56765796    h      1.000     0
        -13.23373173    1.20095221    8.75324445    c      6.000     0
         -9.27264219    1.17090416    9.71220388    h      1.000     0
         -9.95809765    2.77859110    6.88692425    h      1.000     0
        -12.94181110    7.99126613   -0.97274403    c      6.000     0
         -8.97094640    8.88985872   -1.13861866    h      1.000     0
         -9.67621215    5.76477985   -2.01138314    h      1.000     0
        -14.11718256   -0.02958467   -7.77720848    c      6.000     0
        -10.32414301    0.37909002   -9.21864635    h      1.000     0
        -10.76914005   -2.33636664   -7.35196233    h      1.000     0
        -13.62943129   -8.42019527   -1.23594237    c      6.000     0
         -9.76222446   -9.71658702   -1.39221456    h      1.000     0
        -10.61831999   -8.37506458    1.52833328    h      1.000     0
        -14.23587834  -10.36668970   -0.85849478    h      1.000     0
        -15.36782519   -6.59709167    0.19648687    c      6.000     0
        -13.84734175   -8.12775946   -3.28017092    h      1.000     0
        -13.50108867    2.75512902   10.09955744    h      1.000     0
        -15.03523381    1.57776696    6.51556965    c      6.000     0
        -13.73547798   -0.54103416    9.76520127    h      1.000     0
        -13.17575472    8.92548649   -2.80926136    h      1.000     0
        -14.77034279    5.74834143   -0.82235074    c      6.000     0
        -13.44700560    9.40043983    0.46584133    h      1.000     0
        -14.68961306   -0.81552674   -9.60848376    h      1.000     0
        -15.63307569   -1.33211547   -5.67945599    c      6.000     0
        -14.59824492    1.98949480   -7.83302013    h      1.000     0
        -17.00164122    1.68281910    7.15149963    h      1.000     0
        -14.60009408    3.33960927    5.51592190    h      1.000     0
        -14.90427913    0.02759795    5.15017990    h      1.000     0
        -16.72549617    6.36417036   -1.10644305    h      1.000     0
        -14.33063365    4.34388860   -2.27906221    h      1.000     0
        -14.67804260    4.80023319    1.01419069    h      1.000     0
        -17.66769396   -1.14755994   -6.00839787    h      1.000     0
        -15.18433337   -3.35302911   -5.59479672    h      1.000     0
        -15.23010423   -0.51981236   -3.81931749    h      1.000     0
        -17.35022675   -6.91157801   -0.30665753    h      1.000     0
        -15.18181732   -6.86132232    2.24369280    h      1.000     0
        -14.92754191   -4.62053329   -0.22772597    h      1.000     0
          3.97940282    0.35506949   -1.19530840    c      6.000     0
          6.19090152    0.16772540    2.63989889    c      6.000     0
          8.71006308   -0.04201742    1.27188435    c      6.000     0
          6.42201396    0.19166849   -2.70111425    c      6.000     0
          8.32316372   -1.20602629   -1.22240112    n      7.000     0
          4.40544146    1.59163541    1.18067482    o      8.000     0
          9.99711346   -1.17398055   -2.17565549    h      1.000     0
         10.01363654   -1.21173539    2.37185051    h      1.000     0
          6.08982629   -0.82981161   -4.46890676    h      1.000     0
          2.56464943    1.48043183   -2.18778153    h      1.000     0
          6.40908551    1.18083206    4.42239846    h      1.000     0
          7.04667911    2.12593565   -3.16482104    h      1.000     0
          9.54362721    1.86173948    1.11313392    h      1.000     0
          5.41899358   -1.72891114    3.00900390    h      1.000     0
          3.21288341   -1.54823616   -0.84978299    h      1.000     0
 
       center of nuclear mass  :    2.25862500    0.00341504   -0.01713806
       center of nuclear charge:    1.96872432    0.00310140   -0.01490788

              +--------------------------------------------------+
              |               basis set information              |
              +--------------------------------------------------+

              we will work with the 1s 3p 5d 7f 9g ... basis set
              ...i.e. with spherical basis functions...

   type   atoms  prim   cont   basis
   ---------------------------------------------------------------------------
    c       92     77     57   def2-QZVP   [7s4p3d2f1g|15s8p3d2f1g]
    o       13     77     57   def2-QZVP   [7s4p3d2f1g|15s8p3d2f1g]
    n       11     77     57   def2-QZVP   [7s4p3d2f1g|15s8p3d2f1g]
    h       89     33     30   def2-QZVP   [4s3p2d1f|7s3p2d1f]
   ---------------------------------------------------------------------------
   total:  205  11869   9282
   ---------------------------------------------------------------------------

   total number of primitive shells          :  100
   total number of contracted shells         : 2862
   total number of cartesian basis functions :11467
   total number of SCF-basis functions       : 9282


 integral neglect threshold       :  0.29E-14
 integral storage threshold THIZE :  0.10E-04
 integral storage threshold THIME :         5

 RI-J AUXILIARY BASIS SET information:

              we will work with the 1s 3p 5d 7f 9g ... basis set
              ...i.e. with spherical basis functions...

   type   atoms  prim   cont   basis
   ---------------------------------------------------------------------------
    c       92     70     49   def2-QZVP   [6s4p3d1f1g|12s5p4d2f1g]
    o       13     70     49   def2-QZVP   [6s4p3d1f1g|12s5p4d2f1g]
    n       11     70     49   def2-QZVP   [6s4p3d1f1g|12s5p4d2f1g]
    h       89     16     11   def2-QZVP   [3s1p1d|5s2p1d]
   ---------------------------------------------------------------------------
   total:  205   9544   6663
   ---------------------------------------------------------------------------

   total number of primitive shells          :   80
   total number of contracted shells         : 2185
   total number of cartesian basis functions : 8144
   total number of SCF-basis functions       : 6663


 symmetry group of the molecule :   c1 

 the group has the following generators :
   c1(z)

    1 symmetry operations found

 there are 1 real representations :   a   

 maximum number of shells which are related by symmetry :  1


    mo occupation :
   irrep   mo's   occupied
    a     9282      411
 
 number of basis functions   :         9282
 number of occupied orbitals :          411
 
  
           ------------------
           density functional
           ------------------
 PBE functional
 exchange:    LDA + PBE
 correlation: LDA (PW) + PBE
 grinp -> nfun, dfgga, dfhybrid 
           6 T F
 iterations will be done with small grid
  
 spherical integration : Lebedev's spherical grid
 spherical gridsize    :           5
    i.e. gridpoints    :         590
 value for diffuse not defined
 radial integration    : Chebyshev 2nd kind (scaling 3)
 radial gridsize       :           8
 integration cells     :         205
 partition function    : becke
 partition sharpness   :           3
  

 <rddim> : input of entry tasksize
           from data group '$pardft' failed !

               Default values taken

 <rddim> : input of entry memdiv
           from data group '$pardft' failed !

               Default values taken
  RIDFT: memory allocation for DFT gridpoints
  MEMORY is divided by 1 as DEFAULT
 Each node can hold at most  the            1 -th part
 of the gridpoints    

 biggest AO integral is expected to be     6.990327543
  
           ------------------------
               RI-J - INFORMATION
           ------------------------
 
 
 **************************************************
 *      MEMORY ALLOCATION FOR PARALLEL RI-DFT     *
 **************************************************
 
 
MEMORY FOR (MU NU/ ALPHA), SEQUENTIAL RUN              34626 MByte
 
            DIFFERENCE IN MEMORY NEED:       DIAG./SLAVE  
 
      TOTAL DIFFERENCE :                   3866 MByte
 
      difference in xcore:                  375 MByte
      difference in fatmat:                1173 MByte
      getcor calls skipped by slaves:      2319 MByte
 
 
           Integral memory available for diagonal.     34626 MByte
 
           Integral memory available for slave             0 MByte
 
         MEMORY FOR (MU NU/ ALPHA) ON DIAGONALIZER     34626 MByte
 
         MEMORY FOR (MU NU/ ALPHA) ON ONE SLAVE            0 MByte
 
         TOTAL MEMORY FOR (MU NU/ ALPHA),ALL NODES     34626 MByte
 
 Contributions to RI integral batches: 
  neglected integral batches:     3021570
  direct contribution:             952378
  memory contribution:      123005
 Memory core needed for (P|Q) and Cholesky    339 MByte
 Memory core minimum needed except of (P|Q)    39 MByte
 Total minimum memory core needed (sum)       378 MByte
     number of direct tasks:         160
  
 ****************************************
 Memory allocated for RI-J 35003 MByte
 ****************************************
                                            

          ------------------------
          nuclear repulsion energy  :   28226.9670760    
          ------------------------

 
          -----------------
          -S integrals
          -----------------

 1e-integrals will be neglected if expon. factor < 0.291442E-15
 
          -----------------
          -T+V integrals
          -----------------

 1e-integrals will be neglected if expon. factor < 0.291442E-15
 Difference densities >>NOT<< switched on in parallel ridft!

 automatic virtual orbital shift switched on 
      shift if e(lumo)-e(homo) < 0.10000000    


 DIIS switched on: error vector is FDS-SDF
 Max. Iterations for DIIS is     :   4
 DIIS matrix (see manual) 
    Scaling factor of diagonals  :  1.200
    threshold for scaling factor :  0.000

 scf convergence criterion : increment of total energy < .1000000D-08
                  and increment of one-electron energy < .1000000D-05


 <geterg> : there is no data group $energy 

  MOs are in ASCII format !


 reading orbital data $scfmo  from file mos . 

 orbital characterization : expanded
 
 mo provided and orthogonalized by Cholesky decomposition

 DSCF restart information will be dumped onto file mos


 Starting SCF iterations


 ITERATION  ENERGY          1e-ENERGY        2e-ENERGY     RMS[dD(SAO)]   TOL
   1  -5116.3463730519    -63112.485330     29769.171881    0.000D+00 0.291D-14
                            Exc = -704.143479912     Coul =  30473.3153611    
                              N = 821.99873563    
                            current damping = 0.700
 
          max. resid. norm for Fia-block=  7.943D-01 for orbital    128a         
          max. resid. fock norm         =  4.575D+01 for orbital   8051a         

 ITERATION  ENERGY          1e-ENERGY        2e-ENERGY     RMS[dD(SAO)]   TOL
   2  -5132.1449889857    -63250.028560     29890.916495    0.107D-01 0.291D-14
                            Exc = -709.657157908     Coul =  30600.5736530    
                              N = 821.99878414    
                            current damping = 0.650
 
          Norm of current diis error:  12.423    
          max. resid. norm for Fia-block=  1.678D-01 for orbital     10a         
          max. resid. fock norm         =  3.510D-01 for orbital   8764a         

 ITERATION  ENERGY          1e-ENERGY        2e-ENERGY     RMS[dD(SAO)]   TOL
   3  -5134.4852905398    -63277.972999     29916.520633    0.309D-02 0.291D-14
                            Exc = -713.549950997     Coul =  30630.0705837    
                              N = 821.99891095    
                            current damping = 0.550
 
          Norm of current diis error:  6.2907    
          max. resid. norm for Fia-block=  6.859D-02 for orbital    404a         
          max. resid. fock norm         =  7.558D-02 for orbital    412a         

 ITERATION  ENERGY          1e-ENERGY        2e-ENERGY     RMS[dD(SAO)]   TOL
   4  -5135.2974345497    -63300.293908     29938.029397    0.981D-03 0.291D-14
                            Exc = -713.403152282     Coul =  30651.4325497    
                              N = 821.99886236    
                            current damping = 0.450
 
          Norm of current diis error:  2.8594    
          max. resid. norm for Fia-block=  5.570D-02 for orbital    410a         
          max. resid. fock norm         =  1.056D-01 for orbital   8770a         

 ITERATION  ENERGY          1e-ENERGY        2e-ENERGY     RMS[dD(SAO)]   TOL
   5  -5135.4057539614    -63301.283391     29938.910561    0.448D-03 0.291D-14
                            Exc = -714.853054004     Coul =  30653.7636147    
                              N = 821.99892039    
                            current damping = 0.350
 
          Norm of current diis error:  2.0596    
          max. resid. norm for Fia-block=  2.636D-02 for orbital    391a         
          max. resid. fock norm         =  4.689D-02 for orbital   8887a         
          irrep a   : virtual orbitals shifted by    0.00715
          mo-orthogonalization: Cholesky decomposition

 ITERATION  ENERGY          1e-ENERGY        2e-ENERGY     RMS[dD(SAO)]   TOL
   6  -5135.4917819285    -63305.399497     29942.940639    0.220D-03 0.291D-14
                            Exc = -714.870761845     Coul =  30657.8114011    
                              N = 821.99891449    
                            current damping = 0.250
 
          Norm of current diis error: 0.98257    
          max. resid. norm for Fia-block=  1.227D-02 for orbital    389a         
          max. resid. fock norm         =  2.526D-02 for orbital   9174a         
          irrep a   : virtual orbitals shifted by    0.02029

 ITERATION  ENERGY          1e-ENERGY        2e-ENERGY     RMS[dD(SAO)]   TOL
   7  -5135.5100601713    -63307.073540     29944.596403    0.975D-04 0.291D-14
                            Exc = -714.685251646     Coul =  30659.2816551    
                              N = 821.99891040    
                            current damping = 0.150
 
          Norm of current diis error: 0.46792    
          max. resid. norm for Fia-block=  3.795D-03 for orbital    389a         
          max. resid. fock norm         =  1.267D-02 for orbital   9053a         
          irrep a   : virtual orbitals shifted by    0.03063

 ITERATION  ENERGY          1e-ENERGY        2e-ENERGY     RMS[dD(SAO)]   TOL
   8  -5135.5130582038    -63305.399529     29942.919395    0.383D-04 0.291D-14
                            Exc = -714.752071985     Coul =  30657.6714670    
                              N = 821.99891006    
                            current damping = 0.200
 
          Norm of current diis error: 0.28357    
          max. resid. norm for Fia-block=  2.197D-03 for orbital    410a         
          max. resid. fock norm         =  5.818D-03 for orbital   8861a         
          irrep a   : virtual orbitals shifted by    0.02707

 ITERATION  ENERGY          1e-ENERGY        2e-ENERGY     RMS[dD(SAO)]   TOL
   9  -5135.5145494922    -63305.964784     29943.483159    0.157D-04 0.291D-14
                            Exc = -714.807576982     Coul =  30658.2907356    
                              N = 821.99891513    
                            current damping = 0.250
 
          Norm of current diis error: 0.13141    
          max. resid. norm for Fia-block=  9.672D-04 for orbital    410a         
          max. resid. fock norm         =  2.326D-03 for orbital   9208a         
          irrep a   : virtual orbitals shifted by    0.02395

 ITERATION  ENERGY          1e-ENERGY        2e-ENERGY     RMS[dD(SAO)]   TOL
  10  -5135.5148585774    -63306.212751     29943.730816    0.640D-05 0.291D-14
                            Exc = -714.774912377     Coul =  30658.5057285    
                              N = 821.99891324    
                            current damping = 0.100
 
          Norm of current diis error: 0.53588E-01
          max. resid. norm for Fia-block=  4.720D-04 for orbital    396a         
          max. resid. fock norm         =  1.060D-03 for orbital   8847a         
          irrep a   : virtual orbitals shifted by    0.03352
          mo-orthogonalization: Cholesky decomposition

 ITERATION  ENERGY          1e-ENERGY        2e-ENERGY     RMS[dD(SAO)]   TOL
  11  -5135.5149009696    -63305.940449     29943.458472    0.350D-05 0.291D-14
                            Exc = -714.774164581     Coul =  30658.2326369    
                              N = 821.99891363    
                            current damping = 0.150
 
          Norm of current diis error: 0.31923E-01
          max. resid. norm for Fia-block=  2.869D-04 for orbital    396a         
          max. resid. fock norm         =  6.619D-04 for orbital   9193a         
          irrep a   : virtual orbitals shifted by    0.03030

 ITERATION  ENERGY          1e-ENERGY        2e-ENERGY     RMS[dD(SAO)]   TOL
  12  -5135.5149190691    -63306.020193     29943.538198    0.171D-05 0.291D-14
                            Exc = -714.778079597     Coul =  30658.3162773    
                              N = 821.99891342    
                            current damping = 0.200
 
          Norm of current diis error: 0.16539E-01
          max. resid. norm for Fia-block=  1.454D-04 for orbital    390a         
          max. resid. fock norm         =  3.140D-04 for orbital   9058a         
          irrep a   : virtual orbitals shifted by    0.02722

 ITERATION  ENERGY          1e-ENERGY        2e-ENERGY     RMS[dD(SAO)]   TOL
  13  -5135.5149238713    -63306.028082     29943.546082    0.757D-06 0.291D-14
                            Exc = -714.777075840     Coul =  30658.3231578    
                              N = 821.99891352    
                            current damping = 0.050
 
          Norm of current diis error: 0.81661E-02
          max. resid. norm for Fia-block=  8.356D-05 for orbital    390a         
          max. resid. fock norm         =  2.169D-04 for orbital   9169a         
          irrep a   : virtual orbitals shifted by    0.03634

 ITERATION  ENERGY          1e-ENERGY        2e-ENERGY     RMS[dD(SAO)]   TOL
  14  -5135.5149249053    -63306.034794     29943.552793    0.441D-06 0.291D-14
                            Exc = -714.776667069     Coul =  30658.3294601    
                              N = 821.99891357    
                            current damping = 0.050
 
          Norm of current diis error: 0.48997E-02
          max. resid. norm for Fia-block=  3.832D-05 for orbital    390a         
          max. resid. fock norm         =  1.258D-04 for orbital   9169a         
          irrep a   : virtual orbitals shifted by    0.03637

 ITERATION  ENERGY          1e-ENERGY        2e-ENERGY     RMS[dD(SAO)]   TOL
  15  -5135.5149252722    -63306.024049     29943.542048    0.274D-06 0.291D-14
                            Exc = -714.776792184     Coul =  30658.3188404    
                              N = 821.99891350    
                            current damping = 0.100
 
          Norm of current diis error: 0.26051E-02
          max. resid. norm for Fia-block=  2.097D-05 for orbital    410a         
          max. resid. fock norm         =  5.906D-05 for orbital   9208a         
          irrep a   : virtual orbitals shifted by    0.03332
          mo-orthogonalization: Cholesky decomposition

 ITERATION  ENERGY          1e-ENERGY        2e-ENERGY     RMS[dD(SAO)]   TOL
  16  -5135.5149253934    -63306.026292     29943.544291    0.124D-06 0.291D-14
                            Exc = -714.777062901     Coul =  30658.3213538    
                              N = 821.99891353    
                            current damping = 0.150
 
          Norm of current diis error: 0.12895E-02
          max. resid. norm for Fia-block=  9.606D-06 for orbital    410a         
          max. resid. fock norm         =  2.605D-05 for orbital   9210a         
          irrep a   : virtual orbitals shifted by    0.03028

 DENSITY CONVERGED !


 ITERATION  ENERGY          1e-ENERGY        2e-ENERGY     RMS[dD(SAO)]   TOL
  17  -5135.5149254154    -63306.029672     29943.547671    0.651D-07 0.291D-14
                            Exc = -714.776876262     Coul =  30658.3245473    
                              N = 821.99891352    
                            current damping = 0.050
 
          Norm of current diis error: 0.70383E-03
          max. resid. norm for Fia-block=  6.643D-06 for orbital    396a         
          max. resid. fock norm         =  1.484D-05 for orbital   9194a         
          irrep a   : virtual orbitals shifted by    0.03635

 DENSITY CONVERGED !


 ITERATION  ENERGY          1e-ENERGY        2e-ENERGY     RMS[dD(SAO)]   TOL
  18  -5135.5149254215    -63306.026567     29943.544566    0.414D-07 0.291D-14
                            Exc = -714.776883493     Coul =  30658.3214492    
                              N = 821.99891353    
                            current damping = 0.100
 
          Norm of current diis error: 0.40596E-03
          max. resid. norm for Fia-block=  3.511D-06 for orbital    396a         
          max. resid. fock norm         =  7.660D-06 for orbital   9194a         
          irrep a   : virtual orbitals shifted by    0.03332

 DENSITY CONVERGED !


 ITERATION  ENERGY          1e-ENERGY        2e-ENERGY     RMS[dD(SAO)]   TOL
  19  -5135.5149254227    -63306.027376     29943.545375    0.226D-07 0.291D-14
                            Exc = -714.776918839     Coul =  30658.3222937    
                              N = 821.99891353    
                            current damping = 0.150
 
          Norm of current diis error: 0.24621E-03
          max. resid. norm for Fia-block=  2.159D-06 for orbital    390a         
          max. resid. fock norm         =  5.201D-06 for orbital   9169a         
          irrep a   : virtual orbitals shifted by    0.03029

 DENSITY CONVERGED !


 ITERATION  ENERGY          1e-ENERGY        2e-ENERGY     RMS[dD(SAO)]   TOL
  20  -5135.5149254268    -63306.027591     29943.545590    0.119D-07 0.291D-14
                            Exc = -714.776910532     Coul =  30658.3225003    
                              N = 821.99891353    
                            current damping = 0.050
 
          Norm of current diis error: 0.11702E-03
          max. resid. norm for Fia-block=  1.209D-06 for orbital    390a         
          max. resid. fock norm         =  3.119D-06 for orbital   9169a         
          irrep a   : virtual orbitals shifted by    0.03635
          mo-orthogonalization: Cholesky decomposition

 ENERGY & DENSITY CONVERGED !


 ITERATION  ENERGY          1e-ENERGY        2e-ENERGY     RMS[dD(SAO)]   TOL
  21  -5135.5151274884    -63306.027587     29943.545384    0.635D-08 0.291D-14
                            Exc = -714.777112681     Coul =  30658.3224964    
                              N = 822.00007659    
                            current damping = 0.100
 
          Norm of current diis error: 0.87670E-04
          max. resid. norm for Fia-block=  6.436D-07 for orbital    410a         
          max. resid. fock norm         =  1.719D-06 for orbital   9276a         

 End of SCF iterations

   convergence criteria satisfied after   21 iterations


                  ------------------------------------------ 
                 |  total energy      =  -5135.51512748842  |
                  ------------------------------------------ 
                 :  kinetic energy    =   5113.47316477604  :
                 :  potential energy  = -10248.98829226446  :
                 :  virial theorem    =      1.99570793539  :
                 :  wavefunction norm =      1.00000000000  :
                  .......................................... 


 <geterg> : there is no data group $energy 


 <skperg> : $end is missing 


 orbitals $scfmo  will be written to file mos

    irrep                407a        408a        409a        410a        411a   
 eigenvalues H         -0.21952    -0.21742    -0.21559    -0.21363    -0.19815
            eV          -5.9736     -5.9163     -5.8665     -5.8131     -5.3919
 occupation              2.0000      2.0000      2.0000      2.0000      2.0000 

    irrep                412a        413a        414a        415a        416a   
 eigenvalues H         -0.13753    -0.13487    -0.12192    -0.12048    -0.11125
            eV          -3.7423     -3.6700     -3.3177     -3.2785     -3.0272
 
 
 ! grave: sending quit signal to master process
 
 
 
 
 ==============================================================================
                           electrostatic moments
 ==============================================================================

 reference point for electrostatic moments:    0.00000   0.00000   0.00000

 
              nuc           elec       ->  total
 ------------------------------------------------------------------------------
                          charge      
 ------------------------------------------------------------------------------
         822.000000    -822.000000      -0.000000
 
 ------------------------------------------------------------------------------
                       dipole moment  
 ------------------------------------------------------------------------------
   x    1618.291390   -1618.665124      -0.373734
   y       2.549353      -2.523120       0.026233
   z     -12.254275      12.018472      -0.235803
 
   | dipole moment | =     0.4427 a.u. =     1.1252 debye 
 
 ------------------------------------------------------------------------------
                     quadrupole moment
 ------------------------------------------------------------------------------
  xx   63723.570415  -64179.788981    -456.218566
  yy   20798.228206  -21315.547673    -517.319467
  zz   24715.324301  -25249.106501    -533.782199
  xy      32.615624     -32.598450       0.017174
  xz    -151.267977     149.248575      -2.019402
  yz    -202.745881     206.941449       4.195568
 
     1/3  trace=    -502.440078
     anisotropy=      71.240948
 
 ==============================================================================
 

    ridft profiling
  --------------------------------------------------------------------
             module   cpu total (s)       %  wall total (s)       %

               RIDFT         31038.7  100.00         31870.5  100.00
         Ridft_b_scf          1183.5    3.81          1183.5    3.71
        b_scf_prelim             0.0    0.00             0.0    0.00
        b_scf_molinp             0.0    0.00             0.1    0.00
         b_scf_init0             0.0    0.00             0.0    0.00
        b_scf_auxbas             0.0    0.00             0.0    0.00
      b_scf_symmetry             0.0    0.00             0.0    0.00
         b_scf_cosmo             0.0    0.00             0.0    0.00
        b_scf_params            86.7    0.28            86.8    0.27
          b_scf_ri-j           197.6    0.64           197.6    0.62
    b_scf_ri-j_auxpq           197.2    0.64           197.2    0.62
     ri-j_auxpq_chol            18.3    0.06            18.3    0.06
         b_scf_1elec            50.1    0.16            50.1    0.16
       b_scf_moinput           849.1    2.74           848.8    2.66
     moinput_orthmos           844.1    2.72           843.9    2.65
    b_scf_dft-dstmax             0.0    0.00             0.0    0.00
           Ridft_scf         29840.9   96.14         30672.6   96.24
          Scf_b_loop             0.0    0.00             0.0    0.00
                noga             0.0    0.00             0.0    0.00
            Scf_loop         29787.9   95.97         30619.5   96.07
     scf_loop_mkdmat           282.1    0.91           359.8    1.13
       scf_loop_ri-j          9331.7   30.06          9329.7   29.27
      parlp1.bc.dens             7.0    0.02             7.0    0.02
        parlp1.gs.gp           156.7    0.51           156.7    0.49
        parlp2.bc.gq             0.0    0.00             0.0    0.00
        scf_loop_dft          9653.5   31.10          9822.5   30.82
      pardft.bc.dens             0.0    0.00             0.0    0.00
        dft_grid_con            23.2    0.07            23.5    0.07
           dft_xcrhf          7951.6   25.62          8117.8   25.47
          dft_getval           419.2    1.35           446.3    1.40
          funct2 dst             4.2    0.01             4.2    0.01
      funct2 f2loop1           176.5    0.57           190.7    0.60
      funct2 f2loop2           164.1    0.53           173.8    0.55
          funct2 s+c            69.7    0.22            72.5    0.23
        funct2 cmf_2            63.8    0.21            66.5    0.21
          dft_mkdens          3425.8   11.04          3508.9   11.01
         dft_gga-fun             1.3    0.00             1.4    0.00
          dft_mkfock          4100.8   13.21          4156.8   13.04
     pardft.red.fock          2270.5    7.32          2273.0    7.13
     scf_loop_energy             1.2    0.00             1.6    0.00
     scf_loop_mkfock             2.1    0.01             2.0    0.01
       scf_loop_diis          4994.0   16.09          5578.2   17.50
       scf_loop_diag          3329.8   10.73          3330.8   10.45
         diag_tritrn          1081.2    3.48          1081.2    3.39
          diag_rdiag          2241.6    7.22          2242.7    7.04
     scf_loop_modump           979.2    3.15           980.7    3.08
      scf_loop_ortho          1175.0    3.79          1174.9    3.69
          Scf_a_loop            53.0    0.17            53.1    0.17
         Ridft_a_scf            14.3    0.05            14.4    0.05
         a_scf_fanal            14.2    0.05            14.2    0.04
 


    ------------------------------------------------------------------------
         total  cpu-time :  8 hours 38 minutes and 37 seconds
         total wall-time :  8 hours 52 minutes and 29 seconds
    ------------------------------------------------------------------------


   ****  ridft : all done  ****


    2017-11-08 23:30:58.821 

