STARTING dscf ON 32 PROCESSORS!
RUNNING PROGRAM /beegfs/modfac/apps/TURBOMOLE/7.2.1-official/bin/em64t-unknown-linux-gnu_mpi/dscf_mpi.
PLEASE WAIT UNTIL dscf HAS FINISHED.
Look for the output in slave1.output.
MACHINEFILE is ./hostlist
 this is node-proc. number 1 running on node c-5-14.local
 the total number of node-proc. spawned is  33
  parallel platform: MPP or cluster with fast interconnect

 dscf (c-5-14.local) : TURBOMOLE V7.2 ( 21471 ) 7 Nov 2017 at 16:15:16
 Copyright (C) 2017 TURBOMOLE GmbH, Karlsruhe


    2018-02-19 19:49:02.960 


 SCF run will be profiled !



                             d s c f - program

                   idea & directorship : reinhart ahlrichs
                   program development : marco haeser
                                         michael baer
                           dft version : oliver treutler
           parallelized version : malte v. arnim, gina corongiu, GMD 


                          quantum chemistry group
                          universitaet  karlsruhe
                                  germany




                          References             
                                                 
          TURBOMOLE:                             
              R. Ahlrichs, M. Baer, M. Haeser, H. Horn, and
              C. Koelmel
              Electronic structure calculations on workstation
              computers: the program system TURBOMOLE
              Chem. Phys. Lett. 162: 165 (1989)
          Density Functional:                              
              O. Treutler and R. Ahlrichs                      
              Efficient Molecular Numerical Integration Schemes
              J. Chem. Phys. 102: 346 (1995)                   
          Parallel Version:                                
              Performance of parallel TURBOMOLE for Density    
              Functional Calculations                          
              M. v. Arnim and R. Ahlrichs                      
              J. Comp. Chem. 19: 1746 (1998)                   
                                         




              +--------------------------------------------------+
              | Atomic coordinate, charge and isotop information |
              +--------------------------------------------------+

                    atomic coordinates            atom    charge  isotop
         -0.27543849    6.49907281   -0.93617983    c      6.000     0
         -2.47255891    6.05175592   -2.32339767    c      6.000     0
         -4.67784131    5.59788251   -0.95075398    c      6.000     0
         -4.66834891    5.53832381    1.70647275    c      6.000     0
         -2.46786419    5.93488321    3.09346507    c      6.000     0
         -0.28585496    6.46210679    1.71931877    c      6.000     0
         -7.38487325    4.94567370   -1.77082261    c      6.000     0
         -7.76606348    2.18043450   -0.99657802    c      6.000     0
         -7.72093697    2.12829339    1.66221696    c      6.000     0
         -7.35433016    4.86004351    2.53377136    c      6.000     0
         -7.90683719   -0.03761133   -2.41125626    c      6.000     0
         -7.97132184   -2.30436941   -1.07041948    c      6.000     0
         -7.89569231   -2.35257056    1.58568736    c      6.000     0
         -7.76319620   -0.13767669    3.00394244    c      6.000     0
         -8.86346176    6.24955429    0.41920625    c      6.000     0
          2.41742218    7.20522524   -1.73553324    c      6.000     0
          2.37322068    7.18090522    2.57307449    c      6.000     0
          4.16533457    5.06966500    1.75827628    c      6.000     0
          4.21531844    5.08844449   -0.89817321    c      6.000     0
          5.70512217    3.46634844    3.16649188    c      6.000     0
          7.40187200    1.97612249    1.81491796    c      6.000     0
          7.48998485    2.01212296   -0.83900659    c      6.000     0
          5.85651761    3.52889493   -2.25017307    c      6.000     0
          3.00622103    9.12754419    0.43655506    c      6.000     0
          9.66241972    0.24904115   -1.61084601    c      6.000     0
          8.88900622   -2.42821483   -0.84653164    c      6.000     0
          8.75677412   -2.45140251    1.81244326    c      6.000     0
          9.49813349    0.19339570    2.69827047    c      6.000     0
          8.32603584   -4.57666429   -2.23393894    c      6.000     0
          7.57004350   -6.76214928   -0.92974411    c      6.000     0
          7.39439664   -6.76812315    1.69959280    c      6.000     0
          7.99598869   -4.59767881    3.10587303    c      6.000     0
         11.50812278    0.81891101    0.62534880    c      6.000     0
         -7.80580356   -5.13577212    2.36143574    c      6.000     0
         -5.23289418   -6.09460341    1.45155950    c      6.000     0
         -5.30274527   -6.04816638   -1.20586768    c      6.000     0
         -7.92044639   -5.05984642   -1.94687519    c      6.000     0
         -3.06868339   -6.82324678    2.73189777    c      6.000     0
         -0.95383134   -7.55162886    1.30566550    c      6.000     0
         -1.02210066   -7.50673995   -1.32727010    c      6.000     0
         -3.20679091   -6.73193339   -2.61809921    c      6.000     0
         -9.50001247   -6.27059635    0.23031118    c      6.000     0
         -2.47096139    6.08925367   -4.37850467    h      1.000     0
         -2.46108570    5.88048361    5.14727313    h      1.000     0
         -7.89610223    5.43348430   -3.70704846    h      1.000     0
         -7.83469368    5.26695774    4.49600760    h      1.000     0
         -7.93790843   -0.00597962   -4.46670527    h      1.000     0
         -7.66440260   -0.17633516    5.05583299    h      1.000     0
         -8.59293181    8.29902094    0.45903425    h      1.000     0
        -10.87448849    5.76723945    0.42224226    h      1.000     0
          2.64032940    7.85660794   -3.67828310    h      1.000     0
          2.55353471    7.80550565    4.52887243    h      1.000     0
          5.65377511    3.45153389    5.22000095    h      1.000     0
          5.92652008    3.56490718   -4.30386183    h      1.000     0
          1.73104037   10.75646332    0.43271409    h      1.000     0
          4.98437323    9.73168166    0.46064358    h      1.000     0
         10.37647952    0.47707912   -3.53064212    h      1.000     0
         10.06080549    0.36646004    4.67299778    h      1.000     0
          8.46368499   -4.58913538   -4.28439698    h      1.000     0
          7.11667477   -8.46573620   -1.98161306    h      1.000     0
          6.79714694   -8.47398947    2.67302060    h      1.000     0
          7.85713412   -4.61517874    5.15459525    h      1.000     0
         12.11697383    2.79378135    0.67590059    h      1.000     0
         13.13305750   -0.46090178    0.66838477    h      1.000     0
         -8.29862545   -5.55529311    4.31772401    h      1.000     0
         -8.51596215   -5.41432348   -3.88774925    h      1.000     0
         -2.98735392   -6.82281194    4.78350353    h      1.000     0
          0.76761700   -8.12570193    2.26553557    h      1.000     0
          0.64531953   -8.05224820   -2.39268397    h      1.000     0
         -3.23594717   -6.67802670   -4.67130341    h      1.000     0
        -11.44340299   -5.56647637    0.29378310    h      1.000     0
         -9.46172048   -8.33767841    0.19275919    h      1.000     0
 
       center of nuclear mass  :   -0.16082588    0.29000512    0.34788649
       center of nuclear charge:   -0.15030880    0.27856223    0.34824114

              +--------------------------------------------------+
              |               basis set information              |
              +--------------------------------------------------+

              we will work with the 1s 3p 5d 7f 9g ... basis set
              ...i.e. with spherical basis functions...

   type   atoms  prim   cont   basis
   ---------------------------------------------------------------------------
    c       42     50     30   cc-pVTZ   [4s3p2d1f|18s5p2d1f]
    h       30     16     14   cc-pVTZ   [3s2p1d|5s2p1d]
   ---------------------------------------------------------------------------
   total:   72   2580   1680
   ---------------------------------------------------------------------------

   total number of primitive shells          :   34
   total number of contracted shells         :  600
   total number of cartesian basis functions : 1920
   total number of SCF-basis functions       : 1680


 integral neglect threshold       :  0.17E-11
 integral storage threshold THIZE :  0.10E-04
 integral storage threshold THIME :         5


 DENSITY CONVERGENCE CHECK SWITCHED ON !
 SCF CONVERGENCE IF RMS(delta[D]) <     0.1000000000E-06


 symmetry group of the molecule :   c1 

 the group has the following generators :
   c1(z)

    1 symmetry operations found

 there are 1 real representations :   a   

 maximum number of shells which are related by symmetry :  1


    mo occupation :
   irrep   mo's   occupied
    a     1680      141
 
 number of basis functions   :                   1680
 number of occupied orbitals :                    141
 

 automatic virtual orbital shift switched on 
      shift if e(lumo)-e(homo) < 0.10000000    


 keyword $2e-ints_shell_statistics missing in file <control>

 ! One task per shell generated
  No pre-computed optimal task distribution found
  ... using automatic task generation

          ------------------------
          nuclear repulsion energy  :   4492.64444582    
          ------------------------


         -----------------
         -S,T+V- integrals
         -----------------

 1e-integrals will be neglected if expon. factor < 0.174060E-12
 
   Difference densities algorithm switched on.
   The maximal number of linear combinations of
   difference densities is                    20 .

 DIIS switched on: error vector is FDS-SDF
 Max. Iterations for DIIS is     :   5
 DIIS matrix (see manual) 
    Scaling factor of diagonals  :  1.200
    threshold for scaling factor :  0.000

 scf convergence criterion : increment of total energy < .1000000D-06
                  and increment of one-electron energy < .1000000D-03

  MOs are in ASCII format !


 reading orbital data $scfmo  from file mos
 orbital characterization : expanded
 mo provided and orthogonalized by Cholesky decomposition

 DSCF restart information will be dumped onto file mos

 
                                              current damping :  0.300
 ITERATION  ENERGY          1e-ENERGY        2e-ENERGY     RMS[dD(SAO)]   TOL
   1  -1603.1457169681    -11056.794255     4961.0040923    0.000D+00 0.174D-11
          max. resid. norm for Fia-block=  3.092D-01 for orbital     46a         
          max. resid. fock norm         =  4.591D+00 for orbital   1569a         
          Delta Eig. =   296.1571692201 eV 
 
                                              current damping :  0.250
 ITERATION  ENERGY          1e-ENERGY        2e-ENERGY     RMS[dD(SAO)]   TOL
   2  -1607.6308152932    -11117.658125     5017.3828641    0.281D-02 0.118D-11
          Norm of current diis error:  4.3412    
          max. resid. norm for Fia-block=  1.165D-01 for orbital     46a         
          max. resid. fock norm         =  1.521D-01 for orbital    248a         
          Delta Eig. =    78.0189419520 eV 
 
                                              current damping :  0.200
 ITERATION  ENERGY          1e-ENERGY        2e-ENERGY     RMS[dD(SAO)]   TOL
   3  -1608.2557605867    -11118.067424     5017.1672177    0.933D-03 0.940D-12
          Norm of current diis error:  1.5747    
          max. resid. norm for Fia-block=  3.781D-02 for orbital     46a         
          max. resid. fock norm         =  4.407D-02 for orbital     45a         
          Delta Eig. =    15.2568650118 eV 
 
                                              current damping :  0.250
 ITERATION  ENERGY          1e-ENERGY        2e-ENERGY     RMS[dD(SAO)]   TOL
   4  -1608.3597365242    -11125.806761     5024.8025784    0.458D-03 0.813D-12
          Norm of current diis error: 0.44714    
          max. resid. norm for Fia-block=  1.315D-02 for orbital    127a         
          max. resid. fock norm         =  1.867D-02 for orbital     58a         
          Delta Eig. =     2.7515291604 eV 
 
                                              current damping :  0.300
 ITERATION  ENERGY          1e-ENERGY        2e-ENERGY     RMS[dD(SAO)]   TOL
   5  -1608.3707697803    -11125.338535     5024.3233192    0.193D-03 0.746D-12
          Norm of current diis error: 0.14861    
          max. resid. norm for Fia-block=  5.429D-03 for orbital    127a         
          max. resid. fock norm         =  6.428D-03 for orbital    138a         
 mo-orthogonalization: Cholesky decomposition
          Delta Eig. =     0.5236806818 eV 
 
                                              current damping :  0.350
 ITERATION  ENERGY          1e-ENERGY        2e-ENERGY     RMS[dD(SAO)]   TOL
   6  -1608.3724875768    -11125.672052     5024.6551187    0.965D-04 0.694D-12
          Norm of current diis error: 0.61475E-01
          max. resid. norm for Fia-block=  2.760D-03 for orbital    127a         
          max. resid. fock norm         =  3.017D-03 for orbital    127a         
          Delta Eig. =     0.1203289892 eV 
 
                                              current damping :  0.200
 ITERATION  ENERGY          1e-ENERGY        2e-ENERGY     RMS[dD(SAO)]   TOL
   7  -1608.3728131045    -11125.763358     5024.7460995    0.457D-04 0.657D-12
          Norm of current diis error: 0.26040E-01
          max. resid. norm for Fia-block=  1.303D-03 for orbital    127a         
          max. resid. fock norm         =  1.413D-03 for orbital    127a         
          Delta Eig. =     0.0468945078 eV 
 
                                              current damping :  0.100
 ITERATION  ENERGY          1e-ENERGY        2e-ENERGY     RMS[dD(SAO)]   TOL
   8  -1608.3728825444    -11125.772533     5024.7552043    0.256D-04 0.623D-12
          Norm of current diis error: 0.95418E-02
          max. resid. norm for Fia-block=  4.075D-04 for orbital    127a         
          max. resid. fock norm         =  5.219D-04 for orbital     22a         
          Delta Eig. =     0.0130151135 eV 
 
                                              current damping :  0.100
 ITERATION  ENERGY          1e-ENERGY        2e-ENERGY     RMS[dD(SAO)]   TOL
   9  -1608.3728911037    -11125.777337     5024.7600000    0.918D-05 0.601D-12
          Norm of current diis error: 0.34289E-02
          max. resid. norm for Fia-block=  1.162D-04 for orbital    127a         
          max. resid. fock norm         =  2.555D-04 for orbital     18a         
          Delta Eig. =     0.0056653098 eV 
 
                                              current damping :  0.100
 ITERATION  ENERGY          1e-ENERGY        2e-ENERGY     RMS[dD(SAO)]   TOL
  10  -1608.3728919762    -11125.782073     5024.7647349    0.227D-05 0.589D-12
          Norm of current diis error: 0.12875E-02
          max. resid. norm for Fia-block=  6.344D-05 for orbital    137a         
          max. resid. fock norm         =  8.869D-05 for orbital     18a         
 mo-orthogonalization: Cholesky decomposition
          Delta Eig. =     0.0018483860 eV 
 
                                              current damping :  0.150
 ITERATION  ENERGY          1e-ENERGY        2e-ENERGY     RMS[dD(SAO)]   TOL
  11  -1608.3728921244    -11125.780119     5024.7627815    0.715D-06 0.578D-12
          Norm of current diis error: 0.53605E-03
          max. resid. norm for Fia-block=  3.341D-05 for orbital    137a         
          max. resid. fock norm         =  3.392D-05 for orbital    137a         
          Delta Eig. =     0.0006871877 eV 
 
                                              current damping :  0.200
 ITERATION  ENERGY          1e-ENERGY        2e-ENERGY     RMS[dD(SAO)]   TOL
  12  -1608.3728921616    -11125.781449     5024.7641109    0.245D-06 0.565D-12
          Norm of current diis error: 0.28142E-03
          max. resid. norm for Fia-block=  2.216D-05 for orbital    137a         
          max. resid. fock norm         =  2.260D-05 for orbital    137a         
          Delta Eig. =     0.0003450552 eV 
 
                                              current damping :  0.250
 ITERATION  ENERGY          1e-ENERGY        2e-ENERGY     RMS[dD(SAO)]   TOL
  13  -1608.3728921756    -11125.780994     5024.7636563    0.147D-06 0.548D-12
          Norm of current diis error: 0.14282E-03
          max. resid. norm for Fia-block=  1.448D-05 for orbital    137a         
          max. resid. fock norm         =  1.470D-05 for orbital    137a         
          Delta Eig. =     0.0001612669 eV 

 DENSITY CONVERGED !

 
                                              current damping :  0.300
 ITERATION  ENERGY          1e-ENERGY        2e-ENERGY     RMS[dD(SAO)]   TOL
  14  -1608.3728921768    -11125.781231     5024.7638930    0.805D-07 0.531D-12
          Norm of current diis error: 0.80953E-04
          max. resid. norm for Fia-block=  8.029D-06 for orbital    134a         
          max. resid. fock norm         =  8.038D-06 for orbital    134a         
          Delta Eig. =     0.0001332890 eV 

 ENERGY & DENSITY CONVERGED !

 
                                              current damping :  0.350
 ITERATION  ENERGY          1e-ENERGY        2e-ENERGY     RMS[dD(SAO)]   TOL
  15  -1608.3728921736    -11125.781173     5024.7638349    0.491D-07 0.515D-12
          max. resid. norm for Fia-block=  2.251D-06 for orbital    137a         
          max. resid. fock norm         =  2.394D-06 for orbital    137a         

 convergence criteria satisfied after    15 iterations


                  ------------------------------------------ 
                 |  total energy      =  -1608.37289217363  |
                  ------------------------------------------ 
                 :  kinetic energy    =   1605.71820620247  :
                 :  potential energy  =  -3214.09109837610  :
                 :  virial theorem    =      1.99834945865  :
                 :  wavefunction norm =      1.00000000000  :
                  .......................................... 


 <geterg> : there is no data group $energy 


 <skperg> : $end is missing 


 orbitals $scfmo  will be written to file mos

    irrep                137a        138a        139a        140a        141a   
 eigenvalues H         -0.31929    -0.31778    -0.30253    -0.28436    -0.26434
            eV          -8.6885     -8.6474     -8.2323     -7.7378     -7.1930
 occupation              2.0000      2.0000      2.0000      2.0000      2.0000 

    irrep                142a        143a        144a        145a        146a   
 eigenvalues H          0.11151     0.11286     0.11928     0.12477     0.13521
            eV           3.0343      3.0710      3.2458      3.3952      3.6792
 
 
 
 
 ==============================================================================
                           electrostatic moments
 ==============================================================================

 reference point for electrostatic moments:    0.00000   0.00000   0.00000

 
              nuc           elec       ->  total
 ------------------------------------------------------------------------------
                          charge      
 ------------------------------------------------------------------------------
         282.000000    -282.000000      -0.000000
 
 ------------------------------------------------------------------------------
                       dipole moment  
 ------------------------------------------------------------------------------
   x     -42.387081      42.469793       0.082711
   y      78.554548     -78.065970       0.488578
   z      98.204000     -98.179896       0.024104
 
   | dipole moment | =     0.4961 a.u. =     1.2610 debye 
 
 ------------------------------------------------------------------------------
                     quadrupole moment
 ------------------------------------------------------------------------------
  xx   12818.055249  -12994.640240    -176.584991
  yy    7840.788341   -8020.639718    -179.851377
  zz    1291.386868   -1455.513585    -164.126717
  xy     144.282015    -142.426428       1.855587
  xz     147.866942    -148.015422      -0.148480
  yz     144.203507    -144.182776       0.020731
 
     1/3  trace=    -173.521028
     anisotropy=      14.729849
 
 ==============================================================================
 

    dscf profiling
  --------------------------------------------------------------------
             module   cpu total (s)       %  wall total (s)       %

          dscf.total          1885.2  100.00          1712.4  100.00
        dscf.prepare             6.1    0.32             6.3    0.37
      prepare.oneint             0.1    0.01             0.1    0.01
     prepare.moinput             0.3    0.01             0.3    0.02
     moinput_orthmos             5.6    0.29             5.6    0.32
            dscf.scf          1878.1   99.62          1705.0   99.57
             scf.pre             0.0    0.00             0.0    0.00
        scf.makedmat             4.6    0.25             4.8    0.28
          scf.shloop          1514.4   80.33          1513.1   88.36
          shloop_omp          1513.9   80.30          1512.7   88.34
          scf.symcar             0.5    0.03             0.5    0.03
        scf.makefock             1.3    0.07             1.8    0.10
          scf.newerg             0.0    0.00             0.1    0.00
          scf.newcnv            51.4    2.73             6.6    0.38
           scf.fdiag           109.1    5.79            13.7    0.80
         diag_tritrn            30.6    1.62             3.8    0.22
          diag_rdiag            73.0    3.87             9.2    0.54
          scf.modump           167.8    8.90           148.7    8.69
           ortho_all            12.7    0.67             4.0    0.24
            scf.post            12.4    0.66            11.0    0.64
        dscf.postscf             1.0    0.05             1.2    0.07
 


    ------------------------------------------------------------------------
         total  cpu-time : 31 minutes and 25 seconds
         total wall-time : 28 minutes and 33 seconds
    ------------------------------------------------------------------------

   ****  dscf : all done  ****


    2018-02-19 20:17:35.478 

