Using Slurm to start processes with PMI2
STARTING ridft ON 8 PROCESSORS!
RUNNING PROGRAM /modfac/apps/TURBOMOLE/7.0_intel_GA/bin/em64t-unknown-linux-gnu_mpi/ridft_mpi.
PLEASE WAIT UNTIL ridft HAS FINISHED.
Look for the output in slave1.output.
  this is node-proc. number 1 running on node c-16-42.local
  the total number of node-proc. spawned is            8
  parallel platform: MPP, or cluster with fast interconnect

 ridft (c-16-42.local) : TURBOMOLE V7.0.2( ) 15 Jan 2016 at 17:47:42
 Copyright (C) 2016 TURBOMOLE GmbH, Karlsruhe


    2016-02-15 17:55:01.602 



                                  r i d f t

                        DFT program with RI approximation 
                                for coulomb part 




                                                 
                                 References:     
                                                 
          TURBOMOLE:                             
              R. Ahlrichs, M. Baer, M. Haeser, H. Horn, and
              C. Koelmel
              Electronic structure calculations on workstation
              computers: the program system TURBOMOLE
              Chem. Phys. Lett. 162: 165 (1989)
          Density Functional:                              
              O. Treutler and R. Ahlrichs                      
              Efficient Molecular Numerical Integration Schemes
              J. Chem. Phys. 102: 346 (1995)                   
          Parallel Version:                                
              Performance of parallel TURBOMOLE for Density    
              Functional Calculations                          
              M. v. Arnim and R. Ahlrichs                      
              J. Comp. Chem. 19: 1746 (1998)                   
          RI-J Method:                                     
              Auxiliary Basis Sets to approximate Coulomb      
              Potentials                                       
              Chem. Phys. Lett. 240: 283 (1995)                
              K. Eichkorn, O. Treutler, H. Oehm, M. Haeser     
              and R. Ahlrichs                                  
              Chem. Phys. Lett. 242: 652 (1995)                
                                                           
              Auxiliary Basis Sets for Main Row Atoms and their
              Use to approximate Coulomb Potentials            
              K. Eichkorn, F. Weigend, O. Treutler and         
              R. Ahlrichs                                      
              Theo. Chem. Acc. 97: 119 (1997)                   
                                                           
              Accurate Coulomb-fitting basis sets for H to Rn 
              F. Weigend                                        
              Phys. Chem. Chem. Phys. 8: 1057 (2006)            
                                                           
          Multipole accelerated RI-J (MARI-J):             
              Fast evaluation of the Coulomb potential for     
              electron densities using multipole accelerated   
              resolution of identity approximation             
              M. Sierka, A. Hogekamp and R. Ahlrichs           
              J. Chem. Phys. 118: 9136 (2003)                  
          RI-JK Method:                                     
              A fully direct RI-HF algorithm: Implementation,
              optimised auxiliary basis sets, demonstration of
              accuracy and efficiency                         
              F. Weigend                                      
              Phys. Chem. Chem. Phys. 4: 4285 (2002)           
          Two-component HF and DFT with spin-orbit coupling:  
              Self-consistent treatment of spin-orbit         
              interactions with efficient Hartree-Fock and    
              density functional methods                      
              M. K. Armbruster, F. Weigend, C. van Wüllen and 
              W. Klopper                                      
              Phys. Chem. Chem. Phys. 10: 1748 (2008)         
          Relativistic all-electron 2c calculations           
              An efficient implementation of two-component    
              relativistic exact-decoupling methods for large 
              molecules                                       
              D. Peng, N. Middendorf, F. Weigend, M. Reiher   
              J. Chem. Phys. 138, 184105 (2013)               
                                         


 


              +--------------------------------------------------+
              |      general information about current run       |
              +--------------------------------------------------+

 

 SCF run will be profiled !


 DENSITY CONVERGENCE CHECK SWITCHED ON !
 SCF CONVERGENCE IF RMS(delta[D]) <     0.1000000000E-06

 TPSS meta-GGA functional
 exchange:    LDA + TPSS
 correlation: LDA (PW) + TPSS
 A DFT calculation using the RI-J approximation will be carried out.
 Allocatable memory for RI due to $ricore (MB):        5000


              +--------------------------------------------------+
              | Atomic coordinate, charge and isotop information |
              +--------------------------------------------------+

                    atomic coordinates            atom    charge  isotop
         -0.14463964    5.74559892   -3.37884922    c      6.000     0
         -0.61612631   -5.99222708    3.25881382    c      6.000     0
        -11.09118062   -1.05809546    0.43667791    c      6.000     0
        -10.77578533    0.54255927   -2.00218374    c      6.000     0
         -0.76216434    7.83531477   -5.39467678    c      6.000     0
         -1.28688460   -8.09815678    5.23771613    c      6.000     0
        -13.51191980   -2.65060546    0.28045426    c      6.000     0
        -13.09960045    2.23983569   -2.38974767    c      6.000     0
         -6.78184915   -0.24829112    4.07275666    c      6.000     0
         -5.88636462   -0.31161584   -4.81770560    c      6.000     0
        -15.83543256   -0.97237748   -0.14101136    c      6.000     0
        -15.52803081    0.66406866   -2.51222082    c      6.000     0
          8.53611971    2.91097193   -6.97325951    c      6.000     0
          7.54280406   -2.63913483    7.57060194    c      6.000     0
          6.36234884   -9.42837280   -2.41078032    c      6.000     0
          6.11112865    9.62834362    2.81748718    c      6.000     0
          3.76622418    6.50780106   -1.48398303    c      6.000     0
          3.48764076   -6.53765873    1.72462076    c      6.000     0
         -0.38104438    6.86614983   -0.80205646    c      6.000     0
         -0.55652435   -7.12989890    0.67776917    c      6.000     0
          2.13658106   -5.25547955    3.55141901    c      6.000     0
          2.65825885    5.17286073   -3.43217729    c      6.000     0
          7.88338941    5.44380966   -2.98973571    c      6.000     0
          7.39277871   -5.25670788    3.58545298    c      6.000     0
         -4.84193189   -4.15036771    1.94781631    c      6.000     0
         -4.35666911    3.64773835   -2.47476645    c      6.000     0
          4.19443612    3.97294132   -5.24880882    c      6.000     0
          3.43792206   -3.95090712    5.47245791    c      6.000     0
         -2.66432487   -3.98539462    3.56496835    c      6.000     0
         -2.03725705    3.62988044   -3.89173979    c      6.000     0
          6.13303058   -6.61593119    1.58281571    c      6.000     0
          6.37918630    6.71963936   -1.10395911    c      6.000     0
         -8.50902104    2.09323074   -1.84832223    n      7.000     0
         -8.91366809   -2.70062651    0.77537353    n      7.000     0
          6.83508273    4.12085019   -5.04214837    c      6.000     0
          6.09563290   -3.95625504    5.50668085    c      6.000     0
         -6.29875956    1.83577445   -3.01965008    c      6.000     0
         -6.88192904   -2.39721209    2.22706114    c      6.000     0
         -4.89038446   -6.01889112   -0.12791556    c      6.000     0
         -4.71206991    5.51081935   -0.42526397    c      6.000     0
         -2.58123362   -7.35545662   -0.82363714    c      6.000     0
         -2.55978523    6.97511144    0.48887215    c      6.000     0
          7.61570970    8.13283326    0.91296449    c      6.000     0
          7.60593981   -7.90298587   -0.34729387    c      6.000     0
          1.87385243   -7.76938223    0.01364382    o      8.000     0
          1.93252843    7.63967143    0.07672288    o      8.000     0
          9.91972049   -5.18964150    3.63891333    o      8.000     0
         10.40354707    5.48075381   -2.80085759    o      8.000     0
          2.17938335   -2.68046314    7.27518105    o      8.000     0
          3.17545800    2.66610122   -7.17589484    o      8.000     0
          9.97344541    8.14778099    1.07901472    o      8.000     0
          9.97227378   -7.76664213   -0.32784859    o      8.000     0
         -6.81289735   -6.34781685   -1.49607728    o      8.000     0
         -6.77519731    5.72825124    0.75080709    o      8.000     0
         -2.38846265   -2.45352592    5.35126977    o      8.000     0
         -1.52060593    2.16564505   -5.67832467    o      8.000     0
         10.78015059    6.50379484   -1.20995385    h      1.000     0
         10.48542891   -6.18724682    2.09054733    h      1.000     0
         -8.48685455    3.63105207   -0.58957566    h      1.000     0
         -8.69750232   -4.25651363   -0.44508720    h      1.000     0
          1.30644326    2.45870377   -6.82650337    h      1.000     0
          0.34653798   -2.57053777    6.74031297    h      1.000     0
        -11.24564683    0.23948499    2.03644447    h      1.000     0
        -10.61740738   -0.75401962   -3.60140227    h      1.000     0
         -2.53644711   -8.25935042   -2.66003520    h      1.000     0
         -2.75758286    7.90071819    2.30533360    h      1.000     0
        -13.21105650    3.59333314   -0.81968761    h      1.000     0
        -13.32364638   -4.00499108   -1.28161226    h      1.000     0
        -13.69913496   -3.75367640    2.02113769    h      1.000     0
        -12.84161504    3.34026102   -4.12308007    h      1.000     0
        -16.10519097    0.25360125    1.51255569    h      1.000     0
        -15.46840995   -0.55731803   -4.18984409    h      1.000     0
         -6.53108249   -0.97472074    5.98793740    h      1.000     0
         -4.15730301   -1.31740368   -4.31547308    h      1.000     0
        -17.52813585   -2.15307837   -0.29341778    h      1.000     0
        -17.15895895    1.91724055   -2.74097217    h      1.000     0
         -5.13374340    0.92995313    3.69294060    h      1.000     0
         -7.45774749   -1.63918624   -4.80918293    h      1.000     0
          6.34564366   -1.24542401    8.50682895    h      1.000     0
          7.53586877    1.41744578   -7.98492439    h      1.000     0
         -8.46449909    0.93084130    3.98575367    h      1.000     0
         -5.58969652    0.41273508   -6.72991947    h      1.000     0
          9.22791065   -1.71643825    6.81624216    h      1.000     0
         10.23267804    2.14595410   -6.07911669    h      1.000     0
          7.83231011  -10.14096963   -3.66603090    h      1.000     0
          7.42458280   10.49763654    4.14590796    h      1.000     0
          0.04990767   -9.66165949    5.05760633    h      1.000     0
          0.46156561    9.46936096   -5.08544200    h      1.000     0
          4.78062917    8.41483709    3.82909537    h      1.000     0
          5.01368909   -8.28557982   -3.48027082    h      1.000     0
         -1.14785745   -7.29793335    7.13624838    h      1.000     0
         -0.41141228    7.06561042   -7.27833689    h      1.000     0
         -2.73974384    8.41368435   -5.23573192    h      1.000     0
         -3.20641171   -8.79212091    4.91485642    h      1.000     0
          5.29350084  -11.00364850   -1.59885949    h      1.000     0
          4.98761087   11.08602167    1.87184932    h      1.000     0
          8.76190419    4.19821558   -8.52457348    h      1.000     0
          8.17506863   -4.00000220    9.00087895    h      1.000     0
          6.86066962   -0.25076666   -0.09694295    c      6.000     0
          4.86940850    1.94114558    3.23026006    c      6.000     0
          4.20879804   -0.45650114   -0.46137664    c      6.000     0
          2.95224355    0.97557112    1.62093149    c      6.000     0
          3.45118794   -1.86943047   -2.58206510    c      6.000     0
          7.77932219   -2.63093341   -3.75762593    c      6.000     0
          1.82375579    3.82709226    5.89384794    c      6.000     0
          5.22499827   -2.91924893   -4.23200388    c      6.000     0
          7.39593455    1.24124771    2.23475233    c      6.000     0
          4.35997613    3.34619476    5.36978909    c      6.000     0
          8.66123848   -1.29533168   -1.67119820    c      6.000     0
         -0.10911279    2.94814284    4.35071648    c      6.000     0
          0.43881331    1.52094608    2.20109631    c      6.000     0
          0.80439972   -2.45021890   -3.21332811    n      7.000     0
          9.60630941   -3.78408209   -5.53232443    n      7.000     0
          1.16443035    5.34758481    8.13957958    n      7.000     0
         -0.83206531   -1.89560318   -1.63960198    o      8.000     0
          0.35010956   -3.51392685   -5.23051627    o      8.000     0
         11.85262687   -3.28175509   -5.20935134    o      8.000     0
          2.92111976    6.11630650    9.46543033    o      8.000     0
          8.74843044   -5.15564532   -7.21117603    o      8.000     0
         -1.09723168    5.76691503    8.53587404    o      8.000     0
          9.46318156    1.76254756    3.09975557    o      8.000     0
         -1.08874681    0.86027892    1.03088340    h      1.000     0
          4.58712121   -3.95986442   -5.87111453    h      1.000     0
         -2.04330418    3.38253419    4.85308127    h      1.000     0
         10.66179705   -1.07774861   -1.29376320    h      1.000     0
          5.85758409    4.05157283    6.57549105    h      1.000     0
 
       center of nuclear mass  :    1.05148406    0.00013320    0.07352086
       center of nuclear charge:    0.93676777   -0.00032400    0.06465370

              +--------------------------------------------------+
              |               basis set information              |
              +--------------------------------------------------+

              we will work with the 1s 3p 5d 7f 9g ... basis set
              ...i.e. with spherical basis functions...

   type   atoms  prim   cont   basis
   ---------------------------------------------------------------------------
    c       55     77     55   cc-pVQZ   [5s4p3d2f1g|21s6p3d2f1g]
    n        5     77     55   cc-pVQZ   [5s4p3d2f1g|21s6p3d2f1g]
    o       19     77     55   cc-pVQZ   [5s4p3d2f1g|21s6p3d2f1g]
    h       47     32     30   cc-pVQZ   [4s3p2d1f|6s3p2d1f]
   ---------------------------------------------------------------------------
   total:  126   7587   5755
   ---------------------------------------------------------------------------

   total number of primitive shells          :  111
   total number of contracted shells         : 1655
   total number of cartesian basis functions : 7175
   total number of SCF-basis functions       : 5755


 integral neglect threshold       :  0.46E-14
 integral storage threshold THIZE :  0.10E-04
 integral storage threshold THIME :         5

 RI-J AUXILIARY BASIS SET information:

              we will work with the 1s 3p 5d 7f 9g ... basis set
              ...i.e. with spherical basis functions...

   type   atoms  prim   cont   basis
   ---------------------------------------------------------------------------
    c       55     70     49   cc-pVQZ   [6s4p3d1f1g|12s5p4d2f1g]
    n        5     70     49   cc-pVQZ   [6s4p3d1f1g|12s5p4d2f1g]
    o       19     70     49   cc-pVQZ   [6s4p3d1f1g|12s5p4d2f1g]
    h       47     16     11   cc-pVQZ   [3s1p1d|5s2p1d]
   ---------------------------------------------------------------------------
   total:  126   6282   4388
   ---------------------------------------------------------------------------

   total number of primitive shells          :   80
   total number of contracted shells         : 1420
   total number of cartesian basis functions : 5383
   total number of SCF-basis functions       : 4388


 symmetry group of the molecule :   c1 

 the group has the following generators :
   c1(z)

    1 symmetry operations found

 there are 1 real representations :   a   

 maximum number of shells which are related by symmetry :  1


    mo occupation :
   irrep   mo's   occupied
    a     5755      282
 
 number of basis functions   :         5755
 number of occupied orbitals :          282
 
  
           ------------------
           density functional
           ------------------
 TPSS meta-GGA functional
 exchange:    LDA + TPSS
 correlation: LDA (PW) + TPSS
 grinp -> nfun, dfgga, dfhybrid 
           5 F F
 iterations will be done with small grid
  
 spherical integration : Lebedev's spherical grid
 spherical gridsize    :           5
    i.e. gridpoints    :         590
 value for diffuse not defined
 radial integration    : Chebyshev 2nd kind (scaling 3)
 radial gridsize       :           8
 integration cells     :         126
 partition function    : becke
 partition sharpness   :           3
  

 <rddim> : input of entry tasksize
           from data group '$pardft' failed !

               Default values taken

 <rddim> : input of entry memdiv
           from data group '$pardft' failed !

               Default values taken
  RIDFT: memory allocation for DFT gridpoints
  MEMORY is divided by 1 as DEFAULT
 Each node can hold at most  the            1 -th part
 of the gridpoints    

 biggest AO integral is expected to be     4.785886462
  
           ------------------------
               RI-J - INFORMATION
           ------------------------
 
 
 **************************************************
 *      MEMORY ALLOCATION FOR PARALLEL RI-DFT     *
 **************************************************
 
 
MEMORY FOR (MU NU/ ALPHA), SEQUENTIAL RUN               4838 MByte
 
            DIFFERENCE IN MEMORY NEED:       DIAG./SLAVE  
 
      TOTAL DIFFERENCE :                   1507 MByte
 
      difference in xcore:                  163 MByte
      difference in fatmat:                 446 MByte
      getcor calls skipped by slaves:       899 MByte
 
 
           Integral memory available for diagonal.      4838 MByte
 
           Integral memory available for slave             0 MByte
 
         MEMORY FOR (MU NU/ ALPHA) ON DIAGONALIZER      4838 MByte
 
         MEMORY FOR (MU NU/ ALPHA) ON ONE SLAVE            0 MByte
 
         TOTAL MEMORY FOR (MU NU/ ALPHA),ALL NODES      4838 MByte
 
 Contributions to RI integral batches: 
  neglected integral batches:      898943
  direct contribution:             431367
  memory contribution:       40030
 Memory core needed for (P|Q) and Cholesky    147 MByte
 Memory core minimum needed except of (P|Q)    17 MByte
 Total minimum memory core needed (sum)       164 MByte
     number of direct tasks:         160
  
 ****************************************
 Memory allocated for RI-J  5001 MByte
 ****************************************
                                            

          ------------------------
          nuclear repulsion energy  :   15887.6313224    
          ------------------------

 
          -----------------
          -S integrals
          -----------------

 1e-integrals will be neglected if expon. factor < 0.465779E-15
 
          -----------------
          -T+V integrals
          -----------------

 1e-integrals will be neglected if expon. factor < 0.465779E-15
 Difference densities >>NOT<< switched on in parallel ridft!

 automatic virtual orbital shift switched on 
      shift if e(lumo)-e(homo) < 0.10000000    


 DIIS switched on: error vector is FDS-SDF
 Max. Iterations for DIIS is     :   4
 DIIS matrix (see manual) 
    Scaling factor of diagonals  :  1.200
    threshold for scaling factor :  0.000

 scf convergence criterion : increment of total energy < .1000000D-08
                  and increment of one-electron energy < .1000000D-05


 <geterg> : there is no data group $energy 

  MOs are in ASCII format !


 reading orbital data $scfmo  from file mos . 

 orbital characterization : expanded
 
 mo provided and orthogonalized by Cholesky decomposition

 DSCF restart information will be dumped onto file mos


 Starting SCF iterations


 ITERATION  ENERGY          1e-ENERGY        2e-ENERGY     RMS[dD(SAO)]   TOL
   1  -3813.4278203962    -36748.436844     17047.377701    0.000D+00 0.465D-14
                            Exc = -509.931856764     Coul =  17557.3095582    
                              N = 563.99944065    
                            current damping = 0.700
 
          max. resid. norm for Fia-block=  4.118D-01 for orbital    169a         
          max. resid. fock norm         =  8.920D+00 for orbital   5255a         

 ITERATION  ENERGY          1e-ENERGY        2e-ENERGY     RMS[dD(SAO)]   TOL
   2  -3826.5836897380    -36863.209374     17148.994362    0.132D-01 0.465D-14
                            Exc = -511.804604013     Coul =  17660.7989663    
                              N = 563.99953358    
                            current damping = 0.650
 
          Norm of current diis error:  9.7652    
          max. resid. norm for Fia-block=  1.683D-01 for orbital     15a         
          max. resid. fock norm         =  3.888D-01 for orbital   5667a         

 ITERATION  ENERGY          1e-ENERGY        2e-ENERGY     RMS[dD(SAO)]   TOL
   3  -3828.3853213468    -36884.756345     17168.739702    0.427D-02 0.465D-14
                            Exc = -514.796783393     Coul =  17683.5364851    
                              N = 563.99960999    
                            current damping = 0.550
 
          Norm of current diis error:  4.9289    
          max. resid. norm for Fia-block=  6.561D-02 for orbital     14a         
          max. resid. fock norm         =  9.674D-02 for orbital    283a         

 ITERATION  ENERGY          1e-ENERGY        2e-ENERGY     RMS[dD(SAO)]   TOL
   4  -3829.0160564069    -36904.173390     17187.526011    0.141D-02 0.465D-14
                            Exc = -514.354834140     Coul =  17701.8808449    
                              N = 563.99961450    
                            current damping = 0.450
 
          Norm of current diis error:  2.3271    
          max. resid. norm for Fia-block=  4.948D-02 for orbital    258a         
          max. resid. fock norm         =  1.208D-01 for orbital   5749a         

 ITERATION  ENERGY          1e-ENERGY        2e-ENERGY     RMS[dD(SAO)]   TOL
   5  -3829.0939917563    -36892.829111     17176.103797    0.102D-02 0.465D-14
                            Exc = -515.266508500     Coul =  17691.3703055    
                              N = 563.99960719    
                            current damping = 0.500
 
          Norm of current diis error:  1.9342    
          max. resid. norm for Fia-block=  3.741D-02 for orbital    255a         
          max. resid. fock norm         =  1.122D-01 for orbital   5749a         
          irrep a   : virtual orbitals shifted by    0.01967
          mo-orthogonalization: Cholesky decomposition

 ITERATION  ENERGY          1e-ENERGY        2e-ENERGY     RMS[dD(SAO)]   TOL
   6  -3829.1737969848    -36905.432354     17188.627234    0.419D-03 0.465D-14
                            Exc = -515.458693413     Coul =  17704.0859278    
                              N = 563.99961396    
                            current damping = 0.550
 
          Norm of current diis error: 0.84831    
          max. resid. norm for Fia-block=  1.904D-02 for orbital    255a         
          max. resid. fock norm         =  6.354D-02 for orbital   5749a         
          irrep a   : virtual orbitals shifted by    0.02710

 ITERATION  ENERGY          1e-ENERGY        2e-ENERGY     RMS[dD(SAO)]   TOL
   7  -3829.1916758068    -36904.931318     17188.108320    0.252D-03 0.465D-14
                            Exc = -515.304759727     Coul =  17703.4130799    
                              N = 563.99960684    
                            current damping = 0.600
 
          Norm of current diis error: 0.36353    
          max. resid. norm for Fia-block=  1.123D-02 for orbital    253a         
          max. resid. fock norm         =  2.934D-02 for orbital   5749a         
          irrep a   : virtual orbitals shifted by    0.02633

 ITERATION  ENERGY          1e-ENERGY        2e-ENERGY     RMS[dD(SAO)]   TOL
   8  -3829.1932269474    -36903.984475     17187.159926    0.130D-03 0.465D-14
                            Exc = -515.254908877     Coul =  17702.4148348    
                              N = 563.99959731    
                            current damping = 0.500
 
          Norm of current diis error: 0.29391    
          max. resid. norm for Fia-block=  4.165D-03 for orbital    254a         
          max. resid. fock norm         =  1.044D-02 for orbital   5749a         
          irrep a   : virtual orbitals shifted by    0.03237

 ITERATION  ENERGY          1e-ENERGY        2e-ENERGY     RMS[dD(SAO)]   TOL
   9  -3829.1954800993    -36903.619097     17186.792295    0.310D-04 0.465D-14
                            Exc = -515.306373768     Coul =  17702.0986686    
                              N = 563.99959775    
                            current damping = 0.350
 
          Norm of current diis error: 0.66305E-01
          max. resid. norm for Fia-block=  1.104D-03 for orbital    259a         
          max. resid. fock norm         =  2.520D-03 for orbital   5737a         
          irrep a   : virtual orbitals shifted by    0.03957

 ITERATION  ENERGY          1e-ENERGY        2e-ENERGY     RMS[dD(SAO)]   TOL
  10  -3829.1955141979    -36904.202587     17187.375750    0.135D-04 0.465D-14
                            Exc = -515.312638014     Coul =  17702.6883882    
                              N = 563.99959799    
                            current damping = 0.400
 
          Norm of current diis error: 0.53895E-01
          max. resid. norm for Fia-block=  1.053D-03 for orbital    259a         
          max. resid. fock norm         =  2.751D-03 for orbital   5737a         
          irrep a   : virtual orbitals shifted by    0.03754
          mo-orthogonalization: Cholesky decomposition

 ITERATION  ENERGY          1e-ENERGY        2e-ENERGY     RMS[dD(SAO)]   TOL
  11  -3829.1955829374    -36904.106129     17187.279224    0.841D-05 0.465D-14
                            Exc = -515.314702817     Coul =  17702.5939268    
                              N = 563.99959747    
                            current damping = 0.450
 
          Norm of current diis error: 0.22577E-01
          max. resid. norm for Fia-block=  6.078D-04 for orbital    258a         
          max. resid. fock norm         =  1.685D-03 for orbital   5738a         
          irrep a   : virtual orbitals shifted by    0.03531

 ITERATION  ENERGY          1e-ENERGY        2e-ENERGY     RMS[dD(SAO)]   TOL
  12  -3829.1955897760    -36903.999175     17187.172263    0.486D-05 0.465D-14
                            Exc = -515.313946315     Coul =  17702.4862093    
                              N = 563.99959700    
                            current damping = 0.300
 
          Norm of current diis error: 0.16602E-01
          max. resid. norm for Fia-block=  3.749D-04 for orbital    253a         
          max. resid. fock norm         =  1.024D-03 for orbital   5749a         
          irrep a   : virtual orbitals shifted by    0.04204

 ITERATION  ENERGY          1e-ENERGY        2e-ENERGY     RMS[dD(SAO)]   TOL
  13  -3829.1955978165    -36904.017925     17187.191004    0.211D-05 0.465D-14
                            Exc = -515.313693965     Coul =  17702.5046982    
                              N = 563.99959682    
                            current damping = 0.350
 
          Norm of current diis error: 0.56948E-02
          max. resid. norm for Fia-block=  1.055D-04 for orbital    253a         
          max. resid. fock norm         =  3.319D-04 for orbital   5749a         
          irrep a   : virtual orbitals shifted by    0.03980

 ITERATION  ENERGY          1e-ENERGY        2e-ENERGY     RMS[dD(SAO)]   TOL
  14  -3829.1955985524    -36904.005838     17187.178917    0.869D-06 0.465D-14
                            Exc = -515.312572125     Coul =  17702.4914894    
                              N = 563.99959670    
                            current damping = 0.400
 
          Norm of current diis error: 0.28427E-02
          max. resid. norm for Fia-block=  3.693D-05 for orbital    270a         
          max. resid. fock norm         =  9.797D-05 for orbital   5748a         
          irrep a   : virtual orbitals shifted by    0.03759

 ITERATION  ENERGY          1e-ENERGY        2e-ENERGY     RMS[dD(SAO)]   TOL
  15  -3829.1955987196    -36904.015481     17187.188560    0.456D-06 0.465D-14
                            Exc = -515.313178040     Coul =  17702.5017378    
                              N = 563.99959669    
                            current damping = 0.450
 
          Norm of current diis error: 0.12858E-02
          max. resid. norm for Fia-block=  2.144D-05 for orbital    253a         
          max. resid. fock norm         =  6.016D-05 for orbital   5749a         
          irrep a   : virtual orbitals shifted by    0.03536
          mo-orthogonalization: Cholesky decomposition

 ITERATION  ENERGY          1e-ENERGY        2e-ENERGY     RMS[dD(SAO)]   TOL
  16  -3829.1955987620    -36904.017664     17187.190742    0.266D-06 0.465D-14
                            Exc = -515.313372642     Coul =  17702.5041150    
                              N = 563.99959667    
                            current damping = 0.300
 
          Norm of current diis error: 0.45887E-03
          max. resid. norm for Fia-block=  1.086D-05 for orbital    258a         
          max. resid. fock norm         =  3.116D-05 for orbital   5738a         
          irrep a   : virtual orbitals shifted by    0.04205

 ITERATION  ENERGY          1e-ENERGY        2e-ENERGY     RMS[dD(SAO)]   TOL
  17  -3829.1955987655    -36904.015028     17187.188107    0.117D-06 0.465D-14
                            Exc = -515.313319452     Coul =  17702.5014267    
                              N = 563.99959665    
                            current damping = 0.350
 
          Norm of current diis error: 0.32680E-03
          max. resid. norm for Fia-block=  5.636D-06 for orbital    258a         
          max. resid. fock norm         =  1.525D-05 for orbital   5738a         
          irrep a   : virtual orbitals shifted by    0.03982

 DENSITY CONVERGED !


 ITERATION  ENERGY          1e-ENERGY        2e-ENERGY     RMS[dD(SAO)]   TOL
  18  -3829.1955987677    -36904.015863     17187.188942    0.573D-07 0.465D-14
                            Exc = -515.313246025     Coul =  17702.5021876    
                              N = 563.99959664    
                            current damping = 0.400
 
          Norm of current diis error: 0.17309E-03
          max. resid. norm for Fia-block=  4.060D-06 for orbital    253a         
          max. resid. fock norm         =  1.107D-05 for orbital   5749a         
          irrep a   : virtual orbitals shifted by    0.03759

 DENSITY CONVERGED !


 ITERATION  ENERGY          1e-ENERGY        2e-ENERGY     RMS[dD(SAO)]   TOL
  19  -3829.1955987685    -36904.015226     17187.188305    0.260D-07 0.465D-14
                            Exc = -515.313253385     Coul =  17702.5015584    
                              N = 563.99959664    
                            current damping = 0.450
 
          Norm of current diis error: 0.10105E-03
          max. resid. norm for Fia-block=  1.726D-06 for orbital    253a         
          max. resid. fock norm         =  4.565D-06 for orbital   5749a         
          irrep a   : virtual orbitals shifted by    0.03536

 DENSITY CONVERGED !


 ITERATION  ENERGY          1e-ENERGY        2e-ENERGY     RMS[dD(SAO)]   TOL
  20  -3829.1955987685    -36904.015655     17187.188733    0.176D-07 0.465D-14
                            Exc = -515.313275850     Coul =  17702.5020093    
                              N = 563.99959664    
                            current damping = 0.500
 
          Norm of current diis error: 0.37418E-04
          max. resid. norm for Fia-block=  9.443D-07 for orbital    258a         
          max. resid. fock norm         =  2.646D-06 for orbital   5738a         
          irrep a   : virtual orbitals shifted by    0.03313
          mo-orthogonalization: Cholesky decomposition

 DENSITY CONVERGED !


 ITERATION  ENERGY          1e-ENERGY        2e-ENERGY     RMS[dD(SAO)]   TOL
  21  -3829.1955987685    -36904.015676     17187.188755    0.107D-07 0.465D-14
                            Exc = -515.313282952     Coul =  17702.5020381    
                              N = 563.99959664    
                            current damping = 0.350
 
          Norm of current diis error: 0.34421E-04
          max. resid. norm for Fia-block=  5.294D-07 for orbital    258a         
          max. resid. fock norm         =  1.474D-06 for orbital   5738a         
          irrep a   : virtual orbitals shifted by    0.03982

 ENERGY & DENSITY CONVERGED !


 ITERATION  ENERGY          1e-ENERGY        2e-ENERGY     RMS[dD(SAO)]   TOL
  22  -3829.1947191024    -36904.015686     17187.189645    0.407D-08 0.465D-14
                            Exc = -515.312399999     Coul =  17702.5020447    
                              N = 563.99997152    
                            current damping = 0.200
 
          Norm of current diis error: 0.12778E-04
          max. resid. norm for Fia-block=  2.677D-07 for orbital    258a         
          max. resid. fock norm         =  7.654D-07 for orbital   5738a         

 End of SCF iterations

   convergence criteria satisfied after   22 iterations


                  ------------------------------------------ 
                 |  total energy      =  -3829.19471910239  |
                  ------------------------------------------ 
                 :  kinetic energy    =   3813.73851879217  :
                 :  potential energy  =  -7642.93323789456  :
                 :  virial theorem    =      1.99596358988  :
                 :  wavefunction norm =      1.00000000000  :
                  .......................................... 


 <geterg> : there is no data group $energy 


 <skperg> : $end is missing 


 orbitals $scfmo  will be written to file mos

    irrep                278a        279a        280a        281a        282a   
 eigenvalues H         -0.22566    -0.21753    -0.21653    -0.20408    -0.20145
            eV          -6.1405     -5.9193     -5.8920     -5.5533     -5.4819
 occupation              2.0000      2.0000      2.0000      2.0000      2.0000 

    irrep                283a        284a        285a        286a        287a   
 eigenvalues H         -0.15688    -0.14409    -0.12646    -0.12313    -0.10617
            eV          -4.2689     -3.9210     -3.4412     -3.3506     -2.8890
 
 
 ! grave: sending quit signal to master process
 
 
 
 
 ==============================================================================
                           electrostatic moments
 ==============================================================================

 reference point for electrostatic moments:    0.00000   0.00000   0.00000

 
              nuc           elec       ->  total
 ------------------------------------------------------------------------------
                          charge      
 ------------------------------------------------------------------------------
         564.000000    -564.000000       0.000000
 
 ------------------------------------------------------------------------------
                       dipole moment  
 ------------------------------------------------------------------------------
   x     528.337021    -534.611954      -6.274932
   y      -0.182737      -0.166932      -0.349669
   z      36.464685     -37.203913      -0.739229
 
   | dipole moment | =     6.3280 a.u. =    16.0842 debye 
 
 ------------------------------------------------------------------------------
                     quadrupole moment
 ------------------------------------------------------------------------------
  xx   26331.900528  -26673.278865    -341.378337
  yy   13809.255218  -14148.333278    -339.078060
  zz    9380.018922   -9741.892097    -361.873175
  xy     -73.878633      76.842802       2.964169
  xz    -141.686945     149.354155       7.667211
  yz    -408.055764     385.296054     -22.759710
 
     1/3  trace=    -347.443191
     anisotropy=      47.214446
 
 ==============================================================================
 

    ridft profiling
  --------------------------------------------------------------------
             module   cpu total (s)       %  wall total (s)       %

               RIDFT         29102.8  100.00         29283.9  100.00
         Ridft_b_scf           399.7    1.37           400.2    1.37
        b_scf_prelim             0.0    0.00             0.0    0.00
        b_scf_molinp             0.0    0.00             0.0    0.00
         b_scf_init0             0.0    0.00             0.0    0.00
        b_scf_auxbas             0.0    0.00             0.0    0.00
      b_scf_symmetry             0.0    0.00             0.0    0.00
         b_scf_cosmo             0.0    0.00             0.0    0.00
        b_scf_params            56.3    0.19            56.4    0.19
          b_scf_ri-j            98.6    0.34            98.7    0.34
    b_scf_ri-j_auxpq            98.3    0.34            98.4    0.34
     ri-j_auxpq_chol             7.0    0.02             7.0    0.02
         b_scf_1elec            22.1    0.08            22.1    0.08
       b_scf_moinput           222.6    0.76           222.9    0.76
     moinput_orthmos           220.5    0.76           220.8    0.75
    b_scf_dft-dstmax             0.0    0.00             0.0    0.00
           Ridft_scf         28696.4   98.60         28876.9   98.61
          Scf_b_loop             0.0    0.00             0.0    0.00
                noga             0.0    0.00             0.0    0.00
            Scf_loop         28673.9   98.53         28847.1   98.51
     scf_loop_mkdmat           102.4    0.35           102.5    0.35
       scf_loop_ri-j          6342.9   21.79          6346.2   21.67
      parlp1.bc.dens             5.9    0.02             6.0    0.02
        parlp1.gs.gp           135.5    0.47           135.5    0.46
        parlp2.bc.gq             0.0    0.00             0.0    0.00
        scf_loop_dft         18285.7   62.83         18308.6   62.52
      pardft.bc.dens             0.0    0.00             0.0    0.00
        dft_grid_con            15.8    0.05            15.8    0.05
          dft_xcmrhf         18202.3   62.54         18225.1   62.24
          dft_getval           196.0    0.67           196.1    0.67
          funct2 dst             2.5    0.01             2.4    0.01
      funct2 f2loop1            27.2    0.09            27.1    0.09
      funct2 f2loop2            80.3    0.28            80.5    0.28
          funct2 s+c            83.7    0.29            83.8    0.29
        funct2 cmf_2            75.0    0.26            75.3    0.26
          dft_mkdens          7647.7   26.28          7657.7   26.15
        dft_mgga-fun             4.2    0.01             4.3    0.01
          dft_mkfock         10352.2   35.57         10365.0   35.39
     pardft.red.fock          1081.9    3.72          1083.2    3.70
     scf_loop_energy             0.7    0.00             0.7    0.00
     scf_loop_mkfock             1.2    0.00             1.2    0.00
       scf_loop_diis          1314.8    4.52          1316.4    4.50
       scf_loop_diag          1776.9    6.11          1779.5    6.08
         diag_tritrn           745.6    2.56           746.7    2.55
          diag_rdiag          1027.4    3.53          1029.0    3.51
     scf_loop_modump           429.6    1.48           571.6    1.95
      scf_loop_ortho           402.2    1.38           402.8    1.38
          Scf_a_loop            22.4    0.08            29.9    0.10
         Ridft_a_scf             6.8    0.02             6.8    0.02
         a_scf_fanal             6.7    0.02             6.7    0.02
 


    ------------------------------------------------------------------------
         total  cpu-time :  8 hours  5 minutes and 42 seconds
         total wall-time :  8 hours  8 minutes and 43 seconds
    ------------------------------------------------------------------------


   ****  ridft : all done  ****


    2016-02-16 02:03:44.481 

