STARTING ridft ON 32 PROCESSORS!
RUNNING PROGRAM /sopt/TURBOMOLE/7.3-official/bin/em64t-unknown-linux-gnu_smp/ridft_mpi.
           SMPCPUS    set: Shared-memory Parallelization with  32 CPUs.

           SMP Parallelization Reference:
           C. van Wullen, J. Comput. Chem. 32 (2011) 1195--1201
 operating system is UNIX !

 ridft (c-16-23) : TURBOMOLE V7.3 ( 22118 ) 1 Jul 2018 at 20:38:15
 Copyright (C) 2018 TURBOMOLE GmbH, Karlsruhe


    2019-03-12 12:37:52.158 



                                  r i d f t

                        DFT program with RI approximation 
                                for coulomb part 




                                                 
                                 References:     
                                                 
          TURBOMOLE:                             
              R. Ahlrichs, M. Baer, M. Haeser, H. Horn, and
              C. Koelmel
              Electronic structure calculations on workstation
              computers: the program system TURBOMOLE
              Chem. Phys. Lett. 162: 165 (1989)
          Density Functional:                              
              O. Treutler and R. Ahlrichs                      
              Efficient Molecular Numerical Integration Schemes
              J. Chem. Phys. 102: 346 (1995)                   
          Parallel Version:                                
              Performance of parallel TURBOMOLE for Density    
              Functional Calculations                          
              M. v. Arnim and R. Ahlrichs                      
              J. Comp. Chem. 19: 1746 (1998)                   
          RI-J Method:                                     
              Auxiliary Basis Sets to approximate Coulomb      
              Potentials                                       
              Chem. Phys. Lett. 240: 283 (1995)                
              K. Eichkorn, O. Treutler, H. Oehm, M. Haeser     
              and R. Ahlrichs                                  
              Chem. Phys. Lett. 242: 652 (1995)                
                                                           
              Auxiliary Basis Sets for Main Row Atoms and their
              Use to approximate Coulomb Potentials            
              K. Eichkorn, F. Weigend, O. Treutler and         
              R. Ahlrichs                                      
              Theo. Chem. Acc. 97: 119 (1997)                   
                                                           
              Accurate Coulomb-fitting basis sets for H to Rn 
              F. Weigend                                        
              Phys. Chem. Chem. Phys. 8: 1057 (2006)            
                                                           
          Multipole accelerated RI-J (MARI-J):             
              Fast evaluation of the Coulomb potential for     
              electron densities using multipole accelerated   
              resolution of identity approximation             
              M. Sierka, A. Hogekamp and R. Ahlrichs           
              J. Chem. Phys. 118: 9136 (2003)                  
          RI-JK Method:                                     
              A fully direct RI-HF algorithm: Implementation,
              optimised auxiliary basis sets, demonstration of
              accuracy and efficiency                         
              F. Weigend                                      
              Phys. Chem. Chem. Phys. 4: 4285 (2002)           
          Two-component HF and DFT with spin-orbit coupling:  
              Self-consistent treatment of spin-orbit         
              interactions with efficient Hartree-Fock and    
              density functional methods                      
              M. K. Armbruster, F. Weigend, C. van Wüllen and 
              W. Klopper                                      
              Phys. Chem. Chem. Phys. 10: 1748 (2008)         
          Two-component difference density and DIIS algorithm 
              Efficient two-component self-consistent field   
              procedures and gradients: implementation in     
              TURBOMOLE and application to Au20-              
              A. Baldes, F. Weigend                           
              Mol. Phys. 111: 2617 (2013)                     
          Relativistic all-electron 2c calculations           
              An efficient implementation of two-component    
              relativistic exact-decoupling methods for large 
              molecules                                       
              D. Peng, N. Middendorf, F. Weigend, M. Reiher   
              J. Chem. Phys. 138: 184105 (2013)               
          Finite nucleus model and SNSO approximation         
              Efficient implementation of one- and two-       
              component analytical energy gradients in exact  
              two-component theory                            
              Y. J. Franzke, N. Middendorf, F. Weigend        
              J. Chem. Phys. 148: 104110 (2018)               
                                         




              +--------------------------------------------------+
              |      general information about current run       |
              +--------------------------------------------------+

 
 PBE functional
 exchange:    LDA + PBE
 correlation: LDA (PW) + PBE
 A DFT calculation using the RI-J approximation will be carried out.
 Allocatable memory for RI due to $ricore (MB):                  8000


              +--------------------------------------------------+
              | Atomic coordinate, charge and isotop information |
              +--------------------------------------------------+

                    atomic coordinates            atom    charge  isotop
         -1.60497600   -0.64155967    4.70866205    c      6.000     0
          0.34835960   -0.02087640    4.56592873    h      1.000     0
         -1.66767936   -2.53610960    5.50421116    h      1.000     0
         -2.62823607    0.59881317    5.98746302    h      1.000     0
         -2.95559200   -0.66768390    2.19109105    c      6.000     0
         -5.19585185   -1.23122793    1.99698863    o      8.000     0
         -1.51490560   -0.05169273    0.16694156    n      7.000     0
          0.30460034    0.45421523    0.41330888    h      1.000     0
         -2.61793184   -0.00444367   -2.33218061    c      6.000     0
         -3.57463846   -1.78163612   -2.72138764    h      1.000     0
         -4.00616706    1.50462226   -2.51499782    h      1.000     0
         -1.12371796    0.28264758   -3.70977376    h      1.000     0
          4.03846890    0.47624381    0.85740428    o      8.000     0
          5.40068707    1.66166831    1.02826351    h      1.000     0
          5.01939581   -1.99053978    1.29937681    c      6.000     0
          3.44606368   -3.29215987    1.09986601    h      1.000     0
          6.46718824   -2.49886240   -0.07422879    h      1.000     0
          5.79058745   -2.18225098    3.19975058    h      1.000     0
 
       center of nuclear mass  :   -0.54065006   -0.57413314    1.24936956
       center of nuclear charge:   -0.41484447   -0.58684505    1.24110058

              +--------------------------------------------------+
              |               basis set information              |
              +--------------------------------------------------+

              we will work with the 1s 3p 5d 7f 9g ... basis set
              ...i.e. with spherical basis functions...

   type   atoms  prim   cont   basis
   ---------------------------------------------------------------------------
    c        4     77     57   def2-QZVP   [7s4p3d2f1g|15s8p3d2f1g]
    h       11     33     30   def2-QZVP   [4s3p2d1f|7s3p2d1f]
    o        2     77     57   def2-QZVP   [7s4p3d2f1g|15s8p3d2f1g]
    n        1     77     57   def2-QZVP   [7s4p3d2f1g|15s8p3d2f1g]
   ---------------------------------------------------------------------------
   total:   18    902    729
   ---------------------------------------------------------------------------

   total number of primitive shells          :  100
   total number of contracted shells         :  229
   total number of cartesian basis functions :  889
   total number of SCF-basis functions       :  729


 integral neglect threshold       :  0.37E-11
 integral storage threshold THIZE :  0.10E-04
 integral storage threshold THIME :         5

 RI-J AUXILIARY BASIS SET information:

              we will work with the 1s 3p 5d 7f 9g ... basis set
              ...i.e. with spherical basis functions...

   type   atoms  prim   cont   basis
   ---------------------------------------------------------------------------
    c        4     70     49   def2-QZVP   [6s4p3d1f1g|12s5p4d2f1g]
    h       11     16     11   def2-QZVP   [3s1p1d|5s2p1d]
    o        2     70     49   def2-QZVP   [6s4p3d1f1g|12s5p4d2f1g]
    n        1     70     49   def2-QZVP   [6s4p3d1f1g|12s5p4d2f1g]
   ---------------------------------------------------------------------------
   total:   18    666    464
   ---------------------------------------------------------------------------

   total number of primitive shells          :   80
   total number of contracted shells         :  160
   total number of cartesian basis functions :  559
   total number of SCF-basis functions       :  464


 symmetry group of the molecule :   c1 

 the group has the following generators :
   c1(z)

    1 symmetry operations found

 there are 1 real representations :   a   

 maximum number of shells which are related by symmetry :  1


    mo occupation :
   irrep   mo's   occupied
    a      729       29
 
 number of basis functions   :                    729
 number of occupied orbitals :                     29
 
  
           ------------------
           density functional
           ------------------
 PBE functional
 exchange:    LDA + PBE
 correlation: LDA (PW) + PBE

 iterations will be done with small grid
  
 spherical integration : Lebedev's spherical grid
 spherical gridsize    :                     4
    i.e. gridpoints    :                   434
 value for diffuse not defined
 radial integration    : Chebyshev 2nd kind (scaling 3)
 radial gridsize       :                     6
 integration cells     :                    18
 partition function    : becke
 partition sharpness   :                     3
  

 biggest AO integral is expected to be     6.990327543
  
           ------------------------
               RI-J - INFORMATION
           ------------------------
 Contributions to RI integral batches: 
  neglected integral batches:                  6256
  direct contribution:                            0
  memory contribution:                 20079
 Memory core needed for (P|Q) and Cholesky      2 MByte
 Memory core minimum needed except of (P|Q)     3 MByte
 Total minimum memory core needed (sum)         5 MByte
  
 ****************************************
 Memory allocated for RI-J  1248 MByte
 ****************************************
                                            

          ------------------------
          nuclear repulsion energy  :   314.847890169    
          ------------------------

   .------------------------------.
   |            DFT-D4            |
   |          ==========          |
   |  E. Caldeweyher,  S. Grimme  |
   |   University of Bonn, MCTC   |
   |     02/2018, Version 1.0     |
   '------------------------------'
  This code comes without any warranty

 Cite this work as:
   E. Caldeweyher, C. Bannwarth, and S. Grimme,
   J. Chem. Phys., 2017, 147, 034112.
   E. Caldeweyher, S. Ehlert, and S. Grimme,
   J. Chem. Phys., in preparation.

 Contributions:
   P. Shushkov - GBSA(H2O)
   S. Ehlert   - MBD, DFA fit

number of atoms            :    18
number of electrons        :    44
charge                     :  0
spin                       : 0.0
 Found param_gfn2.xtb file !
========================================================================
    G F N  parametrization, version 3
   Geometries Frequencies Non-covalent interactions
 /sopt/TURBOMOLE/7.3-official/parameter/param_gfn2.xtb
========================================================================
 method parameters:
------------------------------------------------------------------------
k(s)        :               1.8500
k(p)        :               2.2300
k(d)        :               2.2300
k(f)        :               2.0000
kEN (H0ij)  :              -2.0000
D3 a1       :               0.5200
D3 a2       :               5.0000
D3 s8       :               2.7000
D3atm       :               5.0000
alphaj      :               2.0000
AESdamp     :               4.0000
AESrad      :               3.0000
expscalexp  :               5.0000
------------------------------------------------------------------------
------------------------------------------------------------------------
 xTB basis
------------------------------------------------------------------------
  Z AO/shell   Hii/eV     exponent
  1     Wed Apr 25 08:07:45 CEST 2018   EN: 2.200 GM2: 0.406  GM3: 0.0800  RAES: 1.40
     1s    -10.707211    1.230000
  6     Wed Apr 25 08:07:45 CEST 2018   EN: 2.550 GM2: 0.538  GM3: 0.1500  RAES: 3.00
     2s    -13.970922    2.096432
     2p    -10.063292    1.800000
  7     Wed Apr 25 08:07:45 CEST 2018   EN: 3.040 GM2: 0.461  GM3:-0.0640  RAES: 1.90
     2s    -16.686243    2.339881
     2p    -12.523956    2.014332
  8     Wed Apr 25 08:07:45 CEST 2018   EN: 3.440 GM2: 0.452  GM3:-0.0517  RAES: 1.80
     2s    -20.229985    2.439742
     2p    -15.503117    2.137023
------------------------------------------------------------------------
 DFT-D4 reference setup
------------------------------------------------------------------------
 C      q(ref)        CN(ref)   cov. CN(ref)  alpha(AIM,ref)
     0.0000000      0.0000000      0.0000000     12.3555336
    -0.1299310      0.9367838      0.9179641     12.6203061
    -0.0788263      1.9884028      1.9096951      9.3103249
    -0.0767301      2.9881158      2.8401678      8.8356702
    -0.0945886      3.9165802      3.7567914      6.6924619
    -0.0285648      3.3673832      3.0308559      8.9184424
     0.0506204      0.9979550      0.8555886      7.7402501
 H      q(ref)        CN(ref)   cov. CN(ref)  alpha(AIM,ref)
     0.0000000      0.0000000      0.0000000      5.0540161
     0.0000000      0.8115055      0.8943405      2.7207580
 O      q(ref)        CN(ref)   cov. CN(ref)  alpha(AIM,ref)
     0.0000000      0.0000000      0.0000000      5.1967092
    -0.3306800      0.9547795      0.8033980      6.0646315
    -0.5637321      1.9239773      1.6098510      6.6505011
     0.0000000      0.9835639      0.9794547      5.1987934
 N      q(ref)        CN(ref)   cov. CN(ref)  alpha(AIM,ref)
     0.0000000      0.0000000      0.0000000      7.5385089
    -0.1797353      0.9622367      0.8575417      8.1244983
    -0.1525504      2.0397432      1.8555113      7.4399298
    -0.4289141      2.9186070      2.5786982      8.2914891
     0.0000000      0.9992288      0.9808497      5.8062716
 no old-style atom pair restraing (fixing) potential
------------------------------------------------------------------------
 SCC calculation
------------------------------------------------------------------------

------------------------------------------------------------------------
 Dispersion Energy Calculation
 * damping parameters for pbe-D4
 s6       :    1.0000
 s8       :    0.9516
 a1       :    0.4044
 a2       :    4.6501
========================================================================
 Edisp  /kcal,au:    -7.6205  -0.01214400
------------------------------------------------------------------------
 E(2)   /kcal,au:    -7.6680  -0.01221976
 Emany  /kcal,au:     0.0475   0.00007576
 Eresp  /kcal,au:     0.0000   0.00000000
========================================================================
 nuclear repulsion energy                  =     314.847890169
 empirical dispersive energy correction    =      -0.012143998
 nuclear repulsion + dispersion correction =     314.835746171


         -----------------
         -S,T+V- integrals
         -----------------

 1e-integrals will be neglected if expon. factor < 0.375924E-12
 Difference densities >>NOT<< switched on in parallel ridft!

 DIIS switched on: error vector is FDS-SDF
 Max. Iterations for DIIS is     :   4
 DIIS matrix (see manual) 
    Scaling factor of diagonals  :  1.200
    threshold for scaling factor :  0.000

 scf convergence criterion : increment of total energy < .1000000D-06
                  and increment of one-electron energy < .1000000D-03

  MOs are in ASCII format !


 automatic virtual orbital shift switched on 
      shift if e(lumo)-e(homo) < 0.10000000    


 reading orbital data $scfmo  from file mos
 orbital characterization : expanded
 mo provided and orthogonalized by Cholesky decomposition

 DSCF restart information will be dumped onto file mos


 Starting SCF iterations

          Overall gridpoints after grid construction =         44635

 ITERATION  ENERGY          1e-ENERGY        2e-ENERGY     NORM[dD(SAO)]  TOL
   1  -362.41880510478    -1112.8733579     435.61880662    0.000D+00 0.375D-11
                            Exc = -48.9657915258     Coul =  484.584598151    
                              N = 58.000130738    
                            current damping = 0.700
 
          max. resid. norm for Fia-block=  8.231D-01 for orbital      9a         
          max. resid. fock norm         =  6.197D+01 for orbital    628a         

 ITERATION  ENERGY          1e-ENERGY        2e-ENERGY     NORM[dD(SAO)]  TOL
   2  -363.73307884709    -1116.7690822     438.20025720    0.000D+00 0.375D-11
                            Exc = -49.1183083218     Coul =  487.318565525    
                              N = 58.000054054    
                            current damping = 0.650
 
          Norm of current diis error:  3.1971    
          max. resid. norm for Fia-block=  1.615D-01 for orbital      2a         
          max. resid. fock norm         =  3.266D-01 for orbital    628a         

 ITERATION  ENERGY          1e-ENERGY        2e-ENERGY     NORM[dD(SAO)]  TOL
   3  -363.92487639215    -1118.8367408     440.07611819    0.000D+00 0.375D-11
                            Exc = -49.4280017539     Coul =  489.504119949    
                              N = 58.000024727    
                            current damping = 0.550
 
          Norm of current diis error:  1.5235    
          max. resid. norm for Fia-block=  6.477D-02 for orbital      2a         
          max. resid. fock norm         =  6.868D-02 for orbital      2a         

 ITERATION  ENERGY          1e-ENERGY        2e-ENERGY     NORM[dD(SAO)]  TOL
   4  -363.98533936320    -1118.4971196     439.67603408    0.000D+00 0.375D-11
                            Exc = -49.3743732526     Coul =  489.050407334    
                              N = 57.999990486    
                            current damping = 0.600
 
          Norm of current diis error: 0.65451    
          max. resid. norm for Fia-block=  3.537D-02 for orbital      9a         
          max. resid. fock norm         =  6.923D-02 for orbital    680a         

 ITERATION  ENERGY          1e-ENERGY        2e-ENERGY     NORM[dD(SAO)]  TOL
   5  -363.99439410353    -1119.2286523     440.39851207    0.000D+00 0.375D-11
                            Exc = -49.5006813825     Coul =  489.899193456    
                              N = 57.999986913    
                            current damping = 0.650
 
          Norm of current diis error: 0.38124    
          max. resid. norm for Fia-block=  1.327D-02 for orbital     29a         
          max. resid. fock norm         =  1.509D-02 for orbital     28a         
          mo-orthogonalization: Cholesky decomposition

 ITERATION  ENERGY          1e-ENERGY        2e-ENERGY     NORM[dD(SAO)]  TOL
   6  -363.99861059893    -1119.3445862     440.51022945    0.000D+00 0.375D-11
                            Exc = -49.5005512021     Coul =  490.010780651    
                              N = 57.999983219    
                            current damping = 0.500
 
          Norm of current diis error: 0.12281    
          max. resid. norm for Fia-block=  5.624D-03 for orbital     27a         
          max. resid. fock norm         =  7.979D-03 for orbital    729a         

 ITERATION  ENERGY          1e-ENERGY        2e-ENERGY     NORM[dD(SAO)]  TOL
   7  -363.99903066915    -1119.1218303     440.28705343    0.000D+00 0.375D-11
                            Exc = -49.4814521001     Coul =  489.768505527    
                              N = 57.999979224    
                            current damping = 0.550
 
          Norm of current diis error: 0.57834E-01
          max. resid. norm for Fia-block=  1.870D-03 for orbital      8a         
          max. resid. fock norm         =  2.912D-03 for orbital    681a         

 ITERATION  ENERGY          1e-ENERGY        2e-ENERGY     NORM[dD(SAO)]  TOL
   8  -363.99910751197    -1119.2042819     440.36942817    0.000D+00 0.375D-11
                            Exc = -49.4903962494     Coul =  489.859824419    
                              N = 57.999979452    
                            current damping = 0.600
 
          Norm of current diis error: 0.13430E-01
          max. resid. norm for Fia-block=  7.590D-04 for orbital      9a         
          max. resid. fock norm         =  1.216D-03 for orbital    708a         

 ITERATION  ENERGY          1e-ENERGY        2e-ENERGY     NORM[dD(SAO)]  TOL
   9  -363.99911100642    -1119.2245745     440.38971737    0.000D+00 0.375D-11
                            Exc = -49.4931203642     Coul =  489.882837735    
                              N = 57.999979326    
                            current damping = 0.450
 
          Norm of current diis error: 0.77047E-02
          max. resid. norm for Fia-block=  4.306D-04 for orbital     29a         
          max. resid. fock norm         =  5.773D-04 for orbital    713a         

 ITERATION  ENERGY          1e-ENERGY        2e-ENERGY     NORM[dD(SAO)]  TOL
  10  -363.99911179924    -1119.2236679     440.38880990    0.000D+00 0.375D-11
                            Exc = -49.4924673949     Coul =  489.881277290    
                              N = 57.999979259    
                            current damping = 0.500
 
          Norm of current diis error: 0.64042E-02
          max. resid. norm for Fia-block=  2.273D-04 for orbital     28a         
          max. resid. fock norm         =  3.520D-04 for orbital    691a         
          mo-orthogonalization: Cholesky decomposition

 ITERATION  ENERGY          1e-ENERGY        2e-ENERGY     NORM[dD(SAO)]  TOL
  11  -363.99911283304    -1119.2229301     440.38807112    0.000D+00 0.375D-11
                            Exc = -49.4927996876     Coul =  489.880870812    
                              N = 57.999979261    
                            current damping = 0.350
 
          Norm of current diis error: 0.24003E-02
          max. resid. norm for Fia-block=  7.301D-05 for orbital     14a         
          max. resid. fock norm         =  1.066D-04 for orbital    646a         

 ITERATION  ENERGY          1e-ENERGY        2e-ENERGY     NORM[dD(SAO)]  TOL
  12  -363.99911294629    -1119.2239820     440.38912291    0.000D+00 0.375D-11
                            Exc = -49.4928945384     Coul =  489.882017446    
                              N = 57.999979244    
                            current damping = 0.400
 
          Norm of current diis error: 0.55125E-03
          max. resid. norm for Fia-block=  2.098D-05 for orbital     29a         
          max. resid. fock norm         =  3.123D-05 for orbital    390a         

 ITERATION  ENERGY          1e-ENERGY        2e-ENERGY     NORM[dD(SAO)]  TOL
  13  -363.99911294999    -1119.2251876     440.39032853    0.000D+00 0.375D-11
                            Exc = -49.4930135333     Coul =  489.883342059    
                              N = 57.999979243    
                            current damping = 0.250
 
          Norm of current diis error: 0.37665E-03
          max. resid. norm for Fia-block=  8.048D-06 for orbital     29a         
          max. resid. fock norm         =  1.055D-05 for orbital    481a         

 ITERATION  ENERGY          1e-ENERGY        2e-ENERGY     NORM[dD(SAO)]  TOL
  14  -363.99911295333    -1119.2245743     440.38971513    0.000D+00 0.375D-11
                            Exc = -49.4929520762     Coul =  489.882667208    
                              N = 57.999979239    
                            current damping = 0.300
 
          Norm of current diis error: 0.71489E-04
          max. resid. norm for Fia-block=  2.927D-06 for orbital     27a         
          max. resid. fock norm         =  4.148D-06 for orbital    713a         

 ENERGY CONVERGED !

          Overall gridpoints after grid construction =        167311

 ITERATION  ENERGY          1e-ENERGY        2e-ENERGY     NORM[dD(SAO)]  TOL
  15  -363.99902908060    -1119.2246047     440.38982945    0.000D+00 0.375D-11
                            Exc = -49.4928756980     Coul =  489.882705152    
                              N = 58.000000711    
                            current damping = 0.350
 
          Norm of current diis error: 0.49983E-04
          max. resid. norm for Fia-block=  1.216D-06 for orbital     27a         
          max. resid. fock norm         =  1.874D-06 for orbital    678a         

 End of SCF iterations

   convergence criteria satisfied after    15 iterations


                  ------------------------------------------ 
                 |  total energy      =   -363.99902908060  |
                  ------------------------------------------ 
                 :  kinetic energy    =    362.62847884849  :
                 :  potential energy  =   -726.62750792910  :
                 :  virial theorem    =      1.99623474207  :
                 :  wavefunction norm =      1.00000000000  :
                  .......................................... 


 <geterg> : there is no data group $energy 


 <skperg> : $end is missing 


 orbitals $scfmo  will be written to file mos

    irrep                 25a         26a         27a         28a         29a   
 eigenvalues H         -0.31880    -0.29649    -0.26099    -0.20836    -0.19193
            eV          -8.6752     -8.0678     -7.1020     -5.6698     -5.2227
 occupation              2.0000      2.0000      2.0000      2.0000      2.0000 

    irrep                 30a         31a         32a         33a         34a   
 eigenvalues H         -0.02875     0.00040     0.00905     0.01978     0.02858
            eV          -0.7823      0.0109      0.2462      0.5384      0.7776
 
 
 
 
 ==============================================================================
                           electrostatic moments
 ==============================================================================

 reference point for electrostatic moments:    0.00000   0.00000   0.00000

 
              nuc           elec       ->  total
 ------------------------------------------------------------------------------
                          charge      
 ------------------------------------------------------------------------------
          58.000000     -58.000000       0.000000
 
 ------------------------------------------------------------------------------
                       dipole moment  
 ------------------------------------------------------------------------------
   x     -24.060979      26.429305       2.368326
   y     -34.037013      34.346532       0.309519
   z      71.983834     -72.173821      -0.189987
 
   | dipole moment | =     2.3960 a.u. =     6.0900 debye 
 
 ------------------------------------------------------------------------------
                     quadrupole moment
 ------------------------------------------------------------------------------
  xx     779.060948    -815.536898     -36.475950
  yy      79.999734    -112.275016     -32.275282
  zz     369.747995    -401.632992     -31.884998
  xy      -3.104724       0.858078      -2.246647
  xz     -37.347171      42.253877       4.906706
  yz     -77.798506      78.298827       0.500321
 
     1/3  trace=     -33.545410
     anisotropy=      10.371013
 
 ==============================================================================
 


    ------------------------------------------------------------------------
         total  cpu-time :  4 minutes and 30 seconds
         total wall-time :  1 minutes and 11 seconds
    ------------------------------------------------------------------------

   ****  ridft : all done  ****


    2019-03-12 12:39:03.083 

