Using OpenMPI from /sopt/mpi/openmpi-1.8.6/intel_15.0.3/bin/mpiexec
STARTING ridft ON 8 PROCESSORS!
RUNNING PROGRAM /beegfs/modfac/apps/TURBOMOLE/7.0_intel/bin/em64t-unknown-linux-gnu_mpi/ridft_mpi.
PLEASE WAIT UNTIL ridft HAS FINISHED.
Look for the output in slave1.output.
  this is node-proc. number 1 running on node c-6-28.local
  the total number of node-proc. spawned is            7
  parallel platform: MPP, or cluster with fast interconnect

 ridft (c-6-28.local) : TURBOMOLE V7.0( ) 6 Jul 2015 at 19:34:44
 Copyright (C) 2015 TURBOMOLE GmbH, Karlsruhe


    2017-11-09 10:35:56.384 



                                  r i d f t

                        DFT program with RI approximation 
                                for coulomb part 




                                                 
                                 References:     
                                                 
          TURBOMOLE:                             
              R. Ahlrichs, M. Baer, M. Haeser, H. Horn, and
              C. Koelmel
              Electronic structure calculations on workstation
              computers: the program system TURBOMOLE
              Chem. Phys. Lett. 162: 165 (1989)
          Density Functional:                              
              O. Treutler and R. Ahlrichs                      
              Efficient Molecular Numerical Integration Schemes
              J. Chem. Phys. 102: 346 (1995)                   
          Parallel Version:                                
              Performance of parallel TURBOMOLE for Density    
              Functional Calculations                          
              M. v. Arnim and R. Ahlrichs                      
              J. Comp. Chem. 19: 1746 (1998)                   
          RI-J Method:                                     
              Auxiliary Basis Sets to approximate Coulomb      
              Potentials                                       
              Chem. Phys. Lett. 240: 283 (1995)                
              K. Eichkorn, O. Treutler, H. Oehm, M. Haeser     
              and R. Ahlrichs                                  
              Chem. Phys. Lett. 242: 652 (1995)                
                                                           
              Auxiliary Basis Sets for Main Row Atoms and their
              Use to approximate Coulomb Potentials            
              K. Eichkorn, F. Weigend, O. Treutler and         
              R. Ahlrichs                                      
              Theo. Chem. Acc. 97: 119 (1997)                   
                                                           
              Accurate Coulomb-fitting basis sets for H to Rn 
              F. Weigend                                        
              Phys. Chem. Chem. Phys. 8: 1057 (2006)            
                                                           
          Multipole accelerated RI-J (MARI-J):             
              Fast evaluation of the Coulomb potential for     
              electron densities using multipole accelerated   
              resolution of identity approximation             
              M. Sierka, A. Hogekamp and R. Ahlrichs           
              J. Chem. Phys. 118: 9136 (2003)                  
          RI-JK Method:                                     
              A fully direct RI-HF algorithm: Implementation,
              optimised auxiliary basis sets, demonstration of
              accuracy and efficiency                         
              F. Weigend                                      
              Phys. Chem. Chem. Phys. 4: 4285 (2002)           
          Two-component HF and DFT with spin-orbit coupling:  
              Self-consistent treatment of spin-orbit         
              interactions with efficient Hartree-Fock and    
              density functional methods                      
              M. K. Armbruster, F. Weigend, C. van Wüllen and 
              W. Klopper                                      
              Phys. Chem. Chem. Phys. 10: 1748 (2008)         
          Relativistic all-electron 2c calculations           
              An efficient implementation of two-component    
              relativistic exact-decoupling methods for large 
              molecules                                       
              D. Peng, N. Middendorf, F. Weigend, M. Reiher   
              J. Chem. Phys. 138, 184105 (2013)               
                                         


 


              +--------------------------------------------------+
              |      general information about current run       |
              +--------------------------------------------------+

 

 SCF run will be profiled !


 DENSITY CONVERGENCE CHECK SWITCHED ON !
 SCF CONVERGENCE IF RMS(delta[D]) <     0.1000000000E-06

 PBE functional
 exchange:    LDA + PBE
 correlation: LDA (PW) + PBE
 A DFT calculation using the RI-J approximation will be carried out.
 Allocatable memory for RI due to $ricore (MB):       13000


              +--------------------------------------------------+
              | Atomic coordinate, charge and isotop information |
              +--------------------------------------------------+

                    atomic coordinates            atom    charge  isotop
          5.82419040   -0.61904476   -4.09973144    c      0.000     0
          7.21893589   -2.18932142   -5.66025584    c      0.000     0
          5.99310584   -4.58405427   -5.73302825    c      0.000     0
          3.87019927   -4.44732074   -4.21111498    c      0.000     0
          6.30480954    2.11410846   -3.35928439    c      0.000     0
          8.85158754    2.92571639   -4.55623210    c      0.000     0
          4.24438324    3.87332748   -4.33358737    c      0.000     0
          4.31842106    5.61013301   -6.28009020    c      0.000     0
          1.93964629   -6.45105896   -3.52074225    c      0.000     0
          1.85982000   -6.76096890   -0.61128358    c      0.000     0
          2.75528210   -8.98903858   -4.68437160    c      0.000     0
         -0.66734799   -5.77679576   -4.49562994    c      0.000     0
         -2.03456741   -6.69379149   -6.53359972    c      0.000     0
          3.78955893   -2.02485712   -3.23139234    n      0.000     0
          1.85800617    4.03586505   -3.23796400    n      0.000     0
         -2.18906671   -4.03774015   -3.28951464    n      0.000     0
         -4.15564276    4.36611957   -4.55167420    c      0.000     0
         -6.24088176    4.43394242   -6.13090535    c      0.000     0
         -7.49046877    2.05606852   -5.95473316    c      0.000     0
         -6.14734759    0.57016324   -4.27237140    c      0.000     0
         -2.31146548    6.43686163   -3.82556357    c      0.000     0
         -2.54212091    6.90425982   -0.94537824    c      0.000     0
         -3.07077018    8.89574883   -5.18390275    c      0.000     0
          0.39685660    5.80343941   -4.53472813    c      0.000     0
          1.91326139    6.81640297   -6.40547641    c      0.000     0
         -6.57119586   -2.14752546   -3.46327131    c      0.000     0
         -9.13988716   -3.04057583   -4.54419600    c      0.000     0
         -4.49096892   -3.83996324   -4.48894701    c      0.000     0
         -4.43915431   -5.47701404   -6.52939623    c      0.000     0
         -4.12199958    2.00133821   -3.43809300    n      0.000     0
          6.56632802    2.41057789   -0.50729781    c      0.000     0
          7.04902713    4.58623004    0.94462274    c      0.000     0
          6.48999450    0.41338003    1.10858581    n      0.000     0
          7.25800748    3.81716588    3.51626409    c      0.000     0
          6.88754349    1.19891753    3.57127019    c      0.000     0
         -6.67431101   -2.42194604   -0.59851895    c      0.000     0
         -6.86384502   -4.61753793    0.87727958    c      0.000     0
         -6.74670294   -0.40075877    0.99872995    n      0.000     0
         -7.08841571   -3.85555541    3.43839789    c      0.000     0
         -6.98848404   -1.20751412    3.47853116    c      0.000     0
          6.81366690   -0.53248565    5.68808226    c      0.000     0
         -6.88899101    0.51030418    5.59572846    c      0.000     0
          7.12928242    0.04960413    7.91251297    o      0.000     0
         -7.09566647   -0.10272938    7.82945932    o      0.000     0
          6.33845859   -2.94977961    4.92871738    o      0.000     0
         -6.47571038    2.94242374    4.83811164    o      0.000     0
         -6.14461399    4.80295834    6.85010157    c      0.000     0
          6.26154425   -4.82910017    6.95621897    c      0.000     0
         -4.58189401    6.95587191    5.79390771    c      0.000     0
          5.55415209   -7.33943957    5.78106426    c      0.000     0
         -7.30579126   -5.60785376    5.66113133    c      0.000     0
          7.66890660    5.52767490    5.74279796    c      0.000     0
          5.18205764    6.70937277    6.69731956    c      0.000     0
         -4.72650176   -6.36100655    6.78390332    c      0.000     0
         -6.85922483   -7.30255721   -0.04121608    c      0.000     0
          7.42619826    7.23858046   -0.02267806    c      0.000     0
         -0.01886314    0.58096630    2.23141740    c      6.000     0
          0.47457167    2.73388731    3.07772986    o      8.000     0
         -0.41898054   -1.58586152    4.05152111    c      6.000     0
         -0.15969443    0.07354608   -0.16025597    o      8.000     0
          8.94052278   -1.68722974   -6.63680688    h      0.000     0
          6.61552987   -6.22932160   -6.77212015    h      0.000     0
          9.26788901    4.88808784   -4.08331538    h      0.000     0
          8.76985319    2.74466893   -6.61157908    h      0.000     0
         10.36765422    1.72510115   -3.83557650    h      0.000     0
          5.93731072    6.02239467   -7.45574660    h      0.000     0
          0.47835888   -8.20902892   -0.08672789    h      0.000     0
          1.33452364   -4.99817964    0.33121955    h      0.000     0
          3.72591517   -7.32271330    0.07683335    h      0.000     0
          2.85521857   -8.88061253   -6.74603155    h      0.000     0
          1.39425785  -10.45687939   -4.16986102    h      0.000     0
          4.61844155   -9.52604374   -3.96691936    h      0.000     0
         -1.40076431   -8.11882642   -7.85409015    h      0.000     0
          1.13020111    2.68659291   -2.02057002    h      0.000     0
         -1.66603341   -2.96724421   -1.76858408    h      0.000     0
         -6.83526706    6.02995675   -7.25866299    h      0.000     0
         -9.18433373    1.50391423   -6.95389164    h      0.000     0
         -1.32003759    8.48566110   -0.38321231    h      0.000     0
         -2.07893350    5.21139547    0.15345541    h      0.000     0
         -4.48591866    7.42319357   -0.47549853    h      0.000     0
         -3.01271469    8.67749255   -7.23770895    h      0.000     0
         -1.77762220   10.41569412   -4.64579458    h      0.000     0
         -4.98933941    9.43198190   -4.63495722    h      0.000     0
          1.37860160    8.29875262   -7.70554896    h      0.000     0
         -9.13665279   -2.92881023   -6.60744076    h      0.000     0
        -10.65638566   -1.84545356   -3.81202714    h      0.000     0
         -9.49267964   -4.99482523   -3.98645805    h      0.000     0
         -5.97179812   -5.81134608   -7.83819419    h      0.000     0
         -2.75743527    1.36354977   -2.22041139    h      0.000     0
          6.20645022   -1.40452760    0.57914962    h      0.000     0
         -6.65219272    1.43166537    0.45861267    h      0.000     0
         -5.21016734    3.87555593    8.43863063    h      0.000     0
         -8.02320974    5.42351338    7.45422858    h      0.000     0
          4.87822845   -4.20601993    8.35869991    h      0.000     0
          8.12551449   -4.88285790    7.84726747    h      0.000     0
         -2.73201262    6.25730895    5.19351981    h      0.000     0
         -4.30869097    8.38478462    7.26567817    h      0.000     0
         -5.52242773    7.84751286    4.18439544    h      0.000     0
          3.67238509   -7.26108869    4.92963859    h      0.000     0
          5.54105374   -8.79025852    7.25571837    h      0.000     0
          6.92009635   -7.89259767    4.33101599    h      0.000     0
         -8.30573496   -7.31961300    5.05861099    h      0.000     0
         -8.44149830   -4.71278838    7.13694536    h      0.000     0
          8.98772815    7.03674328    5.22162103    h      0.000     0
          8.52560970    4.44824492    7.27854515    h      0.000     0
          4.40008281    8.03747903    5.30436708    h      0.000     0
          5.49957745    7.79787891    8.42701643    h      0.000     0
          3.77735359    5.24107798    7.08725802    h      0.000     0
         -3.51019370   -7.21954975    5.34541592    h      0.000     0
         -4.97563200   -7.72863517    8.31774994    h      0.000     0
         -3.75432373   -4.70214713    7.54166998    h      0.000     0
         -6.06201122   -7.43597852   -1.94156833    h      0.000     0
         -8.77645722   -8.09381094   -0.09621437    h      0.000     0
         -5.73332354   -8.50570230    1.21024307    h      0.000     0
          6.33786291    7.58690995   -1.74880217    h      0.000     0
          9.41598177    7.60458777   -0.47167368    h      0.000     0
          6.88123140    8.64636001    1.39615231    h      0.000     0
          1.37566228   -2.59923771    4.25222045    h      1.000     0
         -1.82716477   -2.90582560    3.32620401    h      1.000     0
         -0.97961810   -0.88385042    5.90682337    h      1.000     0
          2.38191767   -1.35018166   -2.08267006    h      0.000     0
          2.25233307    6.14136487    1.52277709    na    11.000     0
 
       center of nuclear mass  :    0.02612026    0.18923023   -0.10137276
       center of nuclear charge:    0.55324998    1.84752847    2.17317186

              +--------------------------------------------------+
              |               basis set information              |
              +--------------------------------------------------+

              we will work with the 1s 3p 5d 7f 9g ... basis set
              ...i.e. with spherical basis functions...

   type   atoms  prim   cont   basis
   ---------------------------------------------------------------------------
    c       48     50     30   cc-pVTZ   [4s3p2d1f|18s5p2d1f]
    n        6     50     30   cc-pVTZ   [4s3p2d1f|18s5p2d1f]
    o        6     50     30   cc-pVTZ   [4s3p2d1f|18s5p2d1f]
    h       61     16     14   cc-pVTZ   [3s2p1d|5s2p1d]
    na       1    115     34   cc-pVTZ   [5s4p2d1f|44s18p2d1f]
   ---------------------------------------------------------------------------
   total:  122   4091   2688
   ---------------------------------------------------------------------------

   total number of primitive shells          :  151
   total number of contracted shells         :  978
   total number of cartesian basis functions : 3054
   total number of SCF-basis functions       : 2688


 integral neglect threshold       :  0.11E-13
 integral storage threshold THIZE :  0.10E-04
 integral storage threshold THIME :         5

 RI-J AUXILIARY BASIS SET information:

              we will work with the 1s 3p 5d 7f 9g ... basis set
              ...i.e. with spherical basis functions...

   type   atoms  prim   cont   basis
   ---------------------------------------------------------------------------
    c       48     70     49   cc-pVTZ   [6s4p3d1f1g|12s5p4d2f1g]
    n        6     70     49   cc-pVTZ   [6s4p3d1f1g|12s5p4d2f1g]
    o        6     70     49   cc-pVTZ   [6s4p3d1f1g|12s5p4d2f1g]
    h       61     16     11   cc-pVTZ   [3s1p1d|5s2p1d]
    na       1     77     56   universal   [8s4p4d1f1g|14s5p5d2f1g]
   ---------------------------------------------------------------------------
   total:  122   5253   3667
   ---------------------------------------------------------------------------

   total number of primitive shells          :  107
   total number of contracted shells         : 1223
   total number of cartesian basis functions : 4461
   total number of SCF-basis functions       : 3667


 symmetry group of the molecule :   c1 

 the group has the following generators :
   c1(z)

    1 symmetry operations found

 there are 1 real representations :   a   

 maximum number of shells which are related by symmetry :  1


    mo occupation :
   irrep   mo's   occupied
    a     2688       21
 
 number of basis functions   :         2688
 number of occupied orbitals :           21
 
  
           ------------------
           density functional
           ------------------
 Dummy atoms with grid-point found.
 DFT quadrature threshold dgrenze tightened by factor 1/10.

 PBE functional
 exchange:    LDA + PBE
 correlation: LDA (PW) + PBE
 Dummy atoms with grid-point found.
 DFT quadrature threshold dgrenze tightened by factor 1/10.

 Dummy atoms with grid-point found.
 DFT quadrature threshold dgrenze tightened by factor 1/10.

 grinp -> nfun, dfgga, dfhybrid 
           6 T F
 iterations will be done with small grid
  
 spherical integration : Lebedev's spherical grid
 spherical gridsize    :           5
    i.e. gridpoints    :         590
 value for diffuse not defined
 radial integration    : Chebyshev 2nd kind (scaling 3)
 radial gridsize       :           8
 integration cells     :         122
 partition function    : becke
 partition sharpness   :           3
  
 found dummy atom(s) with basis: included in dft

 <rddim> : input of entry tasksize
           from data group '$pardft' failed !

               Default values taken

 <rddim> : input of entry memdiv
           from data group '$pardft' failed !

               Default values taken
  RIDFT: memory allocation for DFT gridpoints
  MEMORY is divided by 1 as DEFAULT
 Each node can hold at most  the            1 -th part
 of the gridpoints    

 biggest AO integral is expected to be     6.588557154
  
           ------------------------
               RI-J - INFORMATION
           ------------------------
 
 
 **************************************************
 *      MEMORY ALLOCATION FOR PARALLEL RI-DFT     *
 **************************************************
 
 
MEMORY FOR (MU NU/ ALPHA), SEQUENTIAL RUN              12897 MByte
 
            DIFFERENCE IN MEMORY NEED:       DIAG./SLAVE  
 
      TOTAL DIFFERENCE :                    391 MByte
 
      difference in xcore:                  104 MByte
      difference in fatmat:                 106 MByte
      getcor calls skipped by slaves:       182 MByte
 
 
           Integral memory available for diagonal.     12897 MByte
 
           Integral memory available for slave             0 MByte
 
         MEMORY FOR (MU NU/ ALPHA) ON DIAGONALIZER     12897 MByte
 
         MEMORY FOR (MU NU/ ALPHA) ON ONE SLAVE            0 MByte
 
         TOTAL MEMORY FOR (MU NU/ ALPHA),ALL NODES     12897 MByte
 
 Contributions to RI integral batches: 
  neglected integral batches:      266454
  direct contribution:             124899
  memory contribution:       87378
 Memory core needed for (P|Q) and Cholesky    103 MByte
 Memory core minimum needed except of (P|Q)     3 MByte
 Total minimum memory core needed (sum)       106 MByte
     number of direct tasks:         140
  
 ****************************************
 Memory allocated for RI-J 13003 MByte
 ****************************************
                                            

          ------------------------
          nuclear repulsion energy  :   168.109537424    
          ------------------------

 
          -----------------
          -S integrals
          -----------------

 1e-integrals will be neglected if expon. factor < 0.109429E-14
 
          -----------------
          -T+V integrals
          -----------------

 1e-integrals will be neglected if expon. factor < 0.109429E-14
 Difference densities >>NOT<< switched on in parallel ridft!

 automatic virtual orbital shift switched on 
      shift if e(lumo)-e(homo) < 0.10000000    


 DIIS switched on: error vector is FDS-SDF
 Max. Iterations for DIIS is     :   4
 DIIS matrix (see manual) 
    Scaling factor of diagonals  :  1.200
    threshold for scaling factor :  0.000

 scf convergence criterion : increment of total energy < .1000000D-08
                  and increment of one-electron energy < .1000000D-05


 <geterg> : there is no data group $energy 

  MOs are in ASCII format !


 reading orbital data $scfmo  from file mos . 

 orbital characterization : expanded
 
 mo provided and orthogonalized by Cholesky decomposition

 DSCF restart information will be dumped onto file mos


 Starting SCF iterations


 ITERATION  ENERGY          1e-ENERGY        2e-ENERGY     RMS[dD(SAO)]   TOL
   1  -389.41165979649    -875.62581006     318.10461284    0.000D+00 0.109D-13
                            Exc = -43.6474267788     Coul =  361.752039620    
                              N = 42.000220079    
                            current damping = 0.700
 
          max. resid. norm for Fia-block=  4.023D-01 for orbital     13a         
          max. resid. fock norm         =  1.396D+01 for orbital   2528a         

 ITERATION  ENERGY          1e-ENERGY        2e-ENERGY     RMS[dD(SAO)]   TOL
   2  -390.37032858548    -875.59455000     317.11468399    0.481D-03 0.109D-13
                            Exc = -43.2364359768     Coul =  360.351119965    
                              N = 42.000102156    
                            current damping = 0.650
 
          Norm of current diis error:  1.6645    
          max. resid. norm for Fia-block=  1.438D-01 for orbital      2a         
          max. resid. fock norm         =  3.292D-01 for orbital   2597a         

 ITERATION  ENERGY          1e-ENERGY        2e-ENERGY     RMS[dD(SAO)]   TOL
   3  -390.48857901978    -876.38760512     317.78948867    0.283D-03 0.109D-13
                            Exc = -43.3208943308     Coul =  361.110383006    
                              N = 42.000016920    
                            current damping = 0.600
 
          Norm of current diis error: 0.81636    
          max. resid. norm for Fia-block=  5.984D-02 for orbital      2a         
          max. resid. fock norm         =  9.800D-02 for orbital   2597a         

 ITERATION  ENERGY          1e-ENERGY        2e-ENERGY     RMS[dD(SAO)]   TOL
   4  -390.52390465539    -875.51517873     316.88173665    0.206D-03 0.109D-13
                            Exc = -43.2201402484     Coul =  360.101876900    
                              N = 41.999929246    
                            current damping = 0.650
 
          Norm of current diis error: 0.37430    
          max. resid. norm for Fia-block=  3.197D-02 for orbital     10a         
          max. resid. fock norm         =  4.291D-02 for orbital   2627a         

 ITERATION  ENERGY          1e-ENERGY        2e-ENERGY     RMS[dD(SAO)]   TOL
   5  -390.53161199618    -875.92192696     317.28077754    0.825D-04 0.109D-13
                            Exc = -43.2650655288     Coul =  360.545843068    
                              N = 41.999907637    
                            current damping = 0.700
 
          Norm of current diis error: 0.17772    
          max. resid. norm for Fia-block=  1.035D-02 for orbital     19a         
          max. resid. fock norm         =  1.160D-02 for orbital   2597a         
          mo-orthogonalization: Cholesky decomposition

 ITERATION  ENERGY          1e-ENERGY        2e-ENERGY     RMS[dD(SAO)]   TOL
   6  -390.53371150345    -875.58210611     316.93885718    0.572D-04 0.109D-13
                            Exc = -43.2285754799     Coul =  360.167432663    
                              N = 41.999884735    
                            current damping = 0.750
 
          Norm of current diis error: 0.73294E-01
          max. resid. norm for Fia-block=  6.152D-03 for orbital     10a         
          max. resid. fock norm         =  8.294D-03 for orbital   2627a         
          irrep a   : virtual orbitals shifted by    0.00503

 ITERATION  ENERGY          1e-ENERGY        2e-ENERGY     RMS[dD(SAO)]   TOL
   7  -390.53402742599    -875.62915620     316.98559134    0.166D-04 0.109D-13
                            Exc = -43.2364412822     Coul =  360.222032627    
                              N = 41.999882263    
                            current damping = 0.800
 
          Norm of current diis error: 0.33632E-01
          max. resid. norm for Fia-block=  1.931D-03 for orbital     10a         
          max. resid. fock norm         =  3.258D-03 for orbital     17a         
          irrep a   : virtual orbitals shifted by    0.00700

 ITERATION  ENERGY          1e-ENERGY        2e-ENERGY     RMS[dD(SAO)]   TOL
   8  -390.53408939355    -875.63295412     316.98932730    0.877D-05 0.109D-13
                            Exc = -43.2366964017     Coul =  360.226023705    
                              N = 41.999880479    
                            current damping = 0.650
 
          Norm of current diis error: 0.19321E-01
          max. resid. norm for Fia-block=  1.138D-03 for orbital     10a         
          max. resid. fock norm         =  1.676D-03 for orbital   2627a         
          irrep a   : virtual orbitals shifted by    0.01859

 ITERATION  ENERGY          1e-ENERGY        2e-ENERGY     RMS[dD(SAO)]   TOL
   9  -390.53410747535    -875.62577981     316.98213491    0.507D-05 0.109D-13
                            Exc = -43.2355793767     Coul =  360.217714287    
                              N = 41.999879436    
                            current damping = 0.700
 
          Norm of current diis error: 0.12366E-01
          max. resid. norm for Fia-block=  5.454D-04 for orbital     19a         
          max. resid. fock norm         =  9.007D-04 for orbital   2597a         
          irrep a   : virtual orbitals shifted by    0.01704

 ITERATION  ENERGY          1e-ENERGY        2e-ENERGY     RMS[dD(SAO)]   TOL
  10  -390.53411404634    -875.61140707     316.96775560    0.226D-05 0.109D-13
                            Exc = -43.2349068523     Coul =  360.202662455    
                              N = 41.999878922    
                            current damping = 0.550
 
          Norm of current diis error: 0.40800E-02
          max. resid. norm for Fia-block=  2.658D-04 for orbital     21a         
          max. resid. fock norm         =  4.736D-04 for orbital   2622a         
          irrep a   : virtual orbitals shifted by    0.02430
          mo-orthogonalization: Cholesky decomposition

 ITERATION  ENERGY          1e-ENERGY        2e-ENERGY     RMS[dD(SAO)]   TOL
  11  -390.53411460447    -875.62580142     316.98214939    0.102D-05 0.109D-13
                            Exc = -43.2364441088     Coul =  360.218593497    
                              N = 41.999879228    
                            current damping = 0.600
 
          Norm of current diis error: 0.26439E-02
          max. resid. norm for Fia-block=  1.734D-04 for orbital     19a         
          max. resid. fock norm         =  2.079D-04 for orbital     19a         
          irrep a   : virtual orbitals shifted by    0.02218

 ITERATION  ENERGY          1e-ENERGY        2e-ENERGY     RMS[dD(SAO)]   TOL
  12  -390.53411485398    -875.61908133     316.97542905    0.683D-06 0.109D-13
                            Exc = -43.2355745112     Coul =  360.211003559    
                              N = 41.999878953    
                            current damping = 0.650
 
          Norm of current diis error: 0.17953E-02
          max. resid. norm for Fia-block=  6.932D-05 for orbital     10a         
          max. resid. fock norm         =  1.271D-04 for orbital   2627a         
          irrep a   : virtual orbitals shifted by    0.01986

 ITERATION  ENERGY          1e-ENERGY        2e-ENERGY     RMS[dD(SAO)]   TOL
  13  -390.53411495912    -875.61811437     316.97446199    0.247D-06 0.109D-13
                            Exc = -43.2355546521     Coul =  360.210016642    
                              N = 41.999878943    
                            current damping = 0.500
 
          Norm of current diis error: 0.83733E-03
          max. resid. norm for Fia-block=  5.097D-05 for orbital     20a         
          max. resid. fock norm         =  6.737D-05 for orbital     11a         
          irrep a   : virtual orbitals shifted by    0.02711

 ITERATION  ENERGY          1e-ENERGY        2e-ENERGY     RMS[dD(SAO)]   TOL
  14  -390.53411497251    -875.61815703     316.97450463    0.145D-06 0.109D-13
                            Exc = -43.2356339235     Coul =  360.210138553    
                              N = 41.999878960    
                            current damping = 0.550
 
          Norm of current diis error: 0.60753E-03
          max. resid. norm for Fia-block=  2.164D-05 for orbital     20a         
          max. resid. fock norm         =  2.910D-05 for orbital   2328a         
          irrep a   : virtual orbitals shifted by    0.02469

 DENSITY CONVERGED !


 ITERATION  ENERGY          1e-ENERGY        2e-ENERGY     RMS[dD(SAO)]   TOL
  15  -390.53411498832    -875.61894687     316.97529446    0.813D-07 0.109D-13
                            Exc = -43.2356922544     Coul =  360.210986715    
                              N = 41.999878979    
                            current damping = 0.400
 
          Norm of current diis error: 0.53128E-04
          max. resid. norm for Fia-block=  3.754D-06 for orbital     21a         
          max. resid. fock norm         =  1.568D-05 for orbital     22a         
          irrep a   : virtual orbitals shifted by    0.03198
          mo-orthogonalization: Cholesky decomposition

 ENERGY & DENSITY CONVERGED !


 ITERATION  ENERGY          1e-ENERGY        2e-ENERGY     RMS[dD(SAO)]   TOL
  16  -390.53414990406    -875.61894052     316.97525319    0.246D-07 0.109D-13
                            Exc = -43.2357240827     Coul =  360.210977276    
                              N = 42.000021916    
                            current damping = 0.450
 
          Norm of current diis error: 0.16386E-04
          max. resid. norm for Fia-block=  1.326D-06 for orbital     21a         
          max. resid. fock norm         =  6.160D-06 for orbital     22a         

 End of SCF iterations

   convergence criteria satisfied after   16 iterations


                  ------------------------------------------ 
                 |  total energy      =   -390.53414990406  |
                  ------------------------------------------ 
                 :  kinetic energy    =    388.22934831204  :
                 :  potential energy  =   -778.76349821610  :
                 :  virial theorem    =      1.99409833534  :
                 :  wavefunction norm =      1.00000000000  :
                  .......................................... 


 <geterg> : there is no data group $energy 


 <skperg> : $end is missing 


 orbitals $scfmo  will be written to file mos

    irrep                 17a         18a         19a         20a         21a   
 eigenvalues H         -0.29420    -0.27917    -0.18401    -0.17884    -0.14164
            eV          -8.0057     -7.5967     -5.0072     -4.8666     -3.8544
 occupation              2.0000      2.0000      2.0000      2.0000      2.0000 

    irrep                 22a         23a         24a         25a         26a   
 eigenvalues H         -0.09306    -0.01728    -0.01390    -0.00063     0.01598
            eV          -2.5324     -0.4702     -0.3781     -0.0172      0.4349
 
 
 ! grave: sending quit signal to master process
 
 
 
 
 ==============================================================================
                           electrostatic moments
 ==============================================================================

 reference point for electrostatic moments:    0.00000   0.00000   0.00000

 
              nuc           elec       ->  total
 ------------------------------------------------------------------------------
                          charge      
 ------------------------------------------------------------------------------
          42.000000     -42.000000       0.000000
 
 ------------------------------------------------------------------------------
                       dipole moment  
 ------------------------------------------------------------------------------
   x      23.236499     -21.592943       1.643556
   y      77.596196     -74.136733       3.459463
   z      91.273218     -90.908385       0.364833
 
   | dipole moment | =     3.8474 a.u. =     9.7790 debye 
 
 ------------------------------------------------------------------------------
                     quadrupole moment
 ------------------------------------------------------------------------------
  xx      65.054844     -81.959335     -16.904491
  yy     507.812301    -501.685180       6.127121
  zz     293.892031    -318.343716     -24.451685
  xy     168.962338    -157.745887      11.216452
  xz      33.165441     -31.429729       1.735713
  yz     113.378983    -110.886704       2.492279
 
     1/3  trace=     -11.743018
     anisotropy=      34.151693
 
 ==============================================================================
 

    ridft profiling
  --------------------------------------------------------------------
             module   cpu total (s)       %  wall total (s)       %

               RIDFT          3949.2  100.00          3946.3  100.00
         Ridft_b_scf          1551.6   39.29          1550.4   39.29
        b_scf_prelim             0.0    0.00             0.0    0.00
        b_scf_molinp             0.0    0.00             0.0    0.00
         b_scf_init0             0.0    0.00             0.0    0.00
        b_scf_auxbas             0.0    0.00             0.0    0.00
      b_scf_symmetry             0.0    0.00             0.0    0.00
         b_scf_cosmo             0.0    0.00             0.0    0.00
        b_scf_params           974.4   24.67           973.7   24.67
          b_scf_ri-j           553.5   14.01           553.0   14.01
    b_scf_ri-j_auxpq           553.4   14.01           553.0   14.01
     ri-j_auxpq_chol             4.6    0.12             4.7    0.12
         b_scf_1elec             1.1    0.03             1.1    0.03
       b_scf_moinput            22.5    0.57            22.5    0.57
     moinput_orthmos            22.4    0.57            22.4    0.57
    b_scf_dft-dstmax             0.0    0.00             0.0    0.00
           Ridft_scf          2397.1   60.70          2395.4   60.70
          Scf_b_loop             0.0    0.00             0.0    0.00
                noga             0.0    0.00             0.0    0.00
            Scf_loop          2394.1   60.62          2392.4   60.62
     scf_loop_mkdmat             4.0    0.10             4.0    0.10
       scf_loop_ri-j           376.3    9.53           376.0    9.53
      parlp1.bc.dens             1.2    0.03             1.2    0.03
        parlp1.gs.gp             4.0    0.10             4.0    0.10
        parlp2.bc.gq             0.0    0.00             0.0    0.00
        scf_loop_dft          1732.0   43.86          1730.7   43.86
      pardft.bc.dens             0.0    0.00             0.0    0.00
        dft_grid_con            53.7    1.36            53.6    1.36
           dft_xcrhf          1640.4   41.54          1639.2   41.54
          dft_getval           103.9    2.63           103.9    2.63
          funct2 dst             3.1    0.08             3.2    0.08
      funct2 f2loop1            17.1    0.43            17.3    0.44
      funct2 f2loop2            49.2    1.25            49.1    1.24
          funct2 s+c            30.4    0.77            30.5    0.77
        funct2 cmf_2            28.1    0.71            28.2    0.71
          dft_mkdens           745.3   18.87           744.8   18.87
         dft_gga-fun             1.0    0.03             0.9    0.02
          dft_mkfock           786.7   19.92           786.1   19.92
     pardft.red.fock           180.7    4.58           180.6    4.58
     scf_loop_energy             0.1    0.00             0.1    0.00
     scf_loop_mkfock             0.2    0.00             0.2    0.00
       scf_loop_diis           119.6    3.03           119.5    3.03
       scf_loop_diag            98.3    2.49            98.2    2.49
         diag_tritrn            35.4    0.90            35.4    0.90
          diag_rdiag            62.4    1.58            62.4    1.58
     scf_loop_modump            39.1    0.99            39.2    0.99
      scf_loop_ortho            23.0    0.58            23.0    0.58
          Scf_a_loop             2.9    0.07             2.9    0.07
         Ridft_a_scf             0.5    0.01             0.5    0.01
         a_scf_fanal             0.5    0.01             0.5    0.01
 


    ------------------------------------------------------------------------
         total  cpu-time :  1 hours  5 minutes and 53 seconds
         total wall-time :  1 hours  5 minutes and 50 seconds
    ------------------------------------------------------------------------


   ****  ridft : all done  ****


    2017-11-09 11:41:46.276 

