
   OpenMP run-time library returned nthreads = 28

 rirpa (c-15-42) : TURBOMOLE V7.3.1 () 25 Feb 2019 at 10:13:53
 Copyright (C) 2019 TURBOMOLE GmbH, Karlsruhe


    2019-11-27 01:58:15.250 

 
 
    *************************************************************************
    *************************** PROGRAM RIRPA *******************************
    ******                                                             ******
    ******              H. Eshuis, J. E. Bates and F. Furche           ******
    ******                                                             ******
    ****** Nov 2011                                                    ******
    ****** Copyright TURBOMOLE GmbH                                    ******
    *************************************************************************
    
    
                                References:                                  
    
                   RIRPA:                                                    
                     H. Eshuis, J. Yarkony and F. Furche                     
                     Fast computation of molecular random phase              
                     approximation correlation energies using resolution     
                     of the identity imaginary frequency integration         
                     J. Chem. Phys. 132: 234114 (2010)                       
    
                     H. Eshuis, J. E. Bates and F. Furche                    
                     Electron correlation methods based on                   
                     the random phase approximation                          
                     Theor. Chem. Acc.  131: 1084 (2012)                     
    
                   TWO-COMPONENT RIRPA:                                      
                     M. Kuehn                                                
                     Correlation energies from the                           
                     two-component random-phase approximation                
                     J. Chem. Theory Comput. 10: 623 (2014)                  
    
                   RIRPA GRADIENTS:                                          
                     Asbjoern M. Burow, Jefferson E. Bates, Filipp Furche*,  
                     and Henk Eshuis                                         
                     Analytical First-Order Molecular Properties and Forces  
                     within the Adiabatic Connection Random Phase            
                     Approximation                                           
                     J. Chem. Theory Comput. 10: 180 (2014)                  
    
    
    
      ... OpenMP parallelization enabled, threads:   28

   *-----------------------------------------------------------------------*
   |                     program will use 28 thread(s)                     |
   *-----------------------------------------------------------------------*
 
                FOUND RI-J FLAG
 
  HF exact exchange energy will be computed using RI-J.
 
  The HXX energy will NOT be computed due to nohxx option. 
 


              +--------------------------------------------------+
              | Atomic coordinate, charge and isotop information |
              +--------------------------------------------------+

                    atomic coordinates            atom    charge  isotop
          1.37796688    2.10345646    0.61742692    c      0.000     0
          2.46272114    3.80632859    0.30076932    h      0.000     0
          2.59853854   -0.22556971    0.78003538    c      0.000     0
          4.63080174   -0.32999153    0.59206481    h      0.000     0
          1.20005132   -2.41989520    1.18936606    c      0.000     0
          2.14736096   -4.22546064    1.32321866    h      0.000     0
         -1.41915717   -2.28591533    1.43220518    c      0.000     0
         -2.50299120   -3.98999200    1.74648284    h      0.000     0
         -2.64001247    0.04284163    1.27195507    c      0.000     0
         -4.67220683    0.14832132    1.46264423    h      0.000     0
         -1.24135602    2.23799551    0.86613440    c      0.000     0
         -2.18797867    4.04512344    0.74662339    h      0.000     0
          0.29877741    0.28892083    7.72119959    c      6.000     0
          0.52956287    0.71502281    5.73618131    h      1.000     0
         -1.76306795   -1.13763080    8.52874811    c      6.000     0
         -3.12462418   -1.81134511    7.16116385    h      1.000     0
         -2.06674690   -1.69344711   11.08545321    c      6.000     0
         -3.66754824   -2.80076722   11.70953062    h      1.000     0
         -0.30574407   -0.82218249   12.84005273    c      6.000     0
         -0.53986885   -1.25297610   14.82427934    h      1.000     0
          1.75705282    0.60475360   12.03646505    c      6.000     0
          3.12354985    1.28096031   13.39779098    h      1.000     0
          2.05714869    1.15935991    9.47873714    c      6.000     0
          3.65823411    2.26688076    8.85503809    h      1.000     0
 
       center of nuclear mass  :   -0.01218943   -0.17894649    5.65403324
       center of nuclear charge:   -0.00371844   -0.26675193   10.28161712
              +-------------------------------------------------+
              |        Rotational Constants Section             |
              +-------------------------------------------------+
                                   Center of Mass [a.u]:
              -0.01218943212225        -0.17894648523681         5.65403324004859
                     Principal Moments of Inertia [a.u.]
             940.83984500764882      3988.20780397803082      4294.38081835134653
                       Rotational constants A,B,C [a.u.]
               0.00053144007734         0.00012536959571         0.00011643122051
                     Rotational constants A,B,C [cm**-1]
               0.06398505209562         0.01509442071609         0.01401824594577
                        Rotational constants A,B,C [MHz]
            1918.22360430046137       452.51934885637701       420.25644089312908

   * BASIS SET information:

              +--------------------------------------------------+
              |               basis set information              |
              +--------------------------------------------------+

              we will work with the 1s 3p 5d 7f 9g ... basis set
              ...i.e. with spherical basis functions...

   type   atoms  prim   cont   basis
   ---------------------------------------------------------------------------
    c       12     77     55   cc-pVQZ   [5s4p3d2f1g|21s6p3d2f1g]
    h       12     32     30   cc-pVQZ   [4s3p2d1f|6s3p2d1f]
   ---------------------------------------------------------------------------
   total:   24   1308   1020
   ---------------------------------------------------------------------------

   total number of primitive shells          :   45
   total number of contracted shells         :  300
   total number of cartesian basis functions : 1260
   total number of SCF-basis functions       : 1020


   * AUXILIARY BASIS SET information:

              +--------------------------------------------------+
              |               basis set information              |
              +--------------------------------------------------+

              we will work with the 1s 3p 5d 7f 9g ... basis set
              ...i.e. with spherical basis functions...

   type   atoms  prim   cont   basis
   ---------------------------------------------------------------------------
    c       12    132    132   cc-pVQZ   [8s7p6d5f3g1h|8s7p6d5f3g1h]
    h       12     55     55   cc-pVQZ   [5s4p3d2f1g|5s4p3d2f1g]
   ---------------------------------------------------------------------------
   total:   24   2244   2244
   ---------------------------------------------------------------------------

   total number of primitive shells          :   45
   total number of contracted shells         :  540
   total number of cartesian basis functions : 3012
   total number of SCF-basis functions       : 2244


   * RIJ AUXILIARY BASIS SET information:

              +--------------------------------------------------+
              |               basis set information              |
              +--------------------------------------------------+

              we will work with the 1s 3p 5d 7f 9g ... basis set
              ...i.e. with spherical basis functions...

   type   atoms  prim   cont   basis
   ---------------------------------------------------------------------------
    c       12     70     49   cc-pVQZ   [6s4p3d1f1g|12s5p4d2f1g]
    h       12     16     11   cc-pVQZ   [3s1p1d|5s2p1d]
   ---------------------------------------------------------------------------
   total:   24   1032    720
   ---------------------------------------------------------------------------

   total number of primitive shells          :   32
   total number of contracted shells         :  240
   total number of cartesian basis functions :  876
   total number of SCF-basis functions       :  720

  No keyword $dft found! - HARTREE FOCK CALCULATION

 reading orbital data $scfmo  from file mos
 orbital characterization : scfconv=9

 integral neglect threshold       :  0.32E+02

 scfconv                     9

 MAXIMUM CORE MEMORY WHICH CAN BE ALLOCATED DYNAMICALLY = 140000 MiB
              ( or 18350080000 double words per process)


 there are 1 real representations :   a   

 maximum number of shells which are related by symmetry :  1

 time elapsed for calculating density matrices :   0.100 sec

     total memory allocated for calculation of (Q|P)**(-1/2) : 58 MiB


     calculation of (P|Q) ...
     time in lp2sym        cpu:  4.89 sec    wall:  0.17 sec    ratio: 27.9


     calculation of the Cholesky decomposition of (P|Q)**(-1) ...
     time in invmetri      cpu: 29.58 sec    wall:  1.26 sec    ratio: 23.4

   threshold for RMS(d[D]) in SCF was     :  0.10E-06
   integral neglect threshold             :  0.11E-13
   derivative integral neglect threshold  :  0.10E-06


 setting up bound for integral derivative estimation

 increment for numerical differentiation : 0.00050000
 total memory allocated for calculation of (Q|P)**(-1/2) : 58 MiB
 Dividing biap into                   4091  block chunks,
 using                    17 MiB per block
 Reserved                  69969 MiB for BLAS routines
 Estimated total memory usage:                 139977 MiB
 number of passes for ispin    1
 =    1
 
 Number of eigenvalues < 6e-3:                      0
 
 
            -----------------------------
            Complex frequency integration
            -----------------------------
 
 Number of Clenshaw-Curtis nodes:                    100
 Optimized scaling parameter    :    1.34684956962368     
 Sensitivity measure            :  -3.431881168136641E-011
 
 Done with rirpa frequency point #                     1
 Done with rirpa frequency point #                     2
 Done with rirpa frequency point #                     3
 Done with rirpa frequency point #                     4
 Done with rirpa frequency point #                     5
 Done with rirpa frequency point #                     6
 Done with rirpa frequency point #                     7
 Done with rirpa frequency point #                     8
 Done with rirpa frequency point #                     9
 Done with rirpa frequency point #                    10
 Done with rirpa frequency point #                    11
 Done with rirpa frequency point #                    12
 Done with rirpa frequency point #                    13
 Done with rirpa frequency point #                    14
 Done with rirpa frequency point #                    15
 Done with rirpa frequency point #                    16
 Done with rirpa frequency point #                    17
 Done with rirpa frequency point #                    18
 Done with rirpa frequency point #                    19
 Done with rirpa frequency point #                    20
 Done with rirpa frequency point #                    21
 Done with rirpa frequency point #                    22
 Done with rirpa frequency point #                    23
 Done with rirpa frequency point #                    24
 Done with rirpa frequency point #                    25
 Done with rirpa frequency point #                    26
 Done with rirpa frequency point #                    27
 Done with rirpa frequency point #                    28
 Done with rirpa frequency point #                    29
 Done with rirpa frequency point #                    30
 Done with rirpa frequency point #                    31
 Done with rirpa frequency point #                    32
 Done with rirpa frequency point #                    33
 Done with rirpa frequency point #                    34
 Done with rirpa frequency point #                    35
 Done with rirpa frequency point #                    36
 Done with rirpa frequency point #                    37
 Done with rirpa frequency point #                    38
 Done with rirpa frequency point #                    39
 Done with rirpa frequency point #                    40
 Done with rirpa frequency point #                    41
 Done with rirpa frequency point #                    42
 Done with rirpa frequency point #                    43
 Done with rirpa frequency point #                    44
 Done with rirpa frequency point #                    45
 Done with rirpa frequency point #                    46
 Done with rirpa frequency point #                    47
 Done with rirpa frequency point #                    48
 Done with rirpa frequency point #                    49
 Done with rirpa frequency point #                    50
 Done with rirpa frequency point #                    51
 Done with rirpa frequency point #                    52
 Done with rirpa frequency point #                    53
 Done with rirpa frequency point #                    54
 Done with rirpa frequency point #                    55
 Done with rirpa frequency point #                    56
 Done with rirpa frequency point #                    57
 Done with rirpa frequency point #                    58
 Done with rirpa frequency point #                    59
 Done with rirpa frequency point #                    60
 Done with rirpa frequency point #                    61
 Done with rirpa frequency point #                    62
 Done with rirpa frequency point #                    63
 Done with rirpa frequency point #                    64
 Done with rirpa frequency point #                    65
 Done with rirpa frequency point #                    66
 Done with rirpa frequency point #                    67
 Done with rirpa frequency point #                    68
 Done with rirpa frequency point #                    69
 Done with rirpa frequency point #                    70
 Done with rirpa frequency point #                    71
 Done with rirpa frequency point #                    72
 Done with rirpa frequency point #                    73
 Done with rirpa frequency point #                    74
 Done with rirpa frequency point #                    75
 Done with rirpa frequency point #                    76
 Done with rirpa frequency point #                    77
 Done with rirpa frequency point #                    78
 Done with rirpa frequency point #                    79
 Done with rirpa frequency point #                    80
 Done with rirpa frequency point #                    81
 Done with rirpa frequency point #                    82
 Done with rirpa frequency point #                    83
 Done with rirpa frequency point #                    84
 Done with rirpa frequency point #                    85
 Done with rirpa frequency point #                    86
 Done with rirpa frequency point #                    87
 Done with rirpa frequency point #                    88
 Done with rirpa frequency point #                    89
 Done with rirpa frequency point #                    90
 Done with rirpa frequency point #                    91
 Done with rirpa frequency point #                    92
 Done with rirpa frequency point #                    93
 Done with rirpa frequency point #                    94
 Done with rirpa frequency point #                    95
 Done with rirpa frequency point #                    96
 Done with rirpa frequency point #                    97
 Done with rirpa frequency point #                    98
 Done with rirpa frequency point #                    99
 Done with rirpa frequency point #                   100
 


 RI-RPA correlation energy: -0.1200911194414689E+01
 
 
 HXX Energy calculation skipped due to nohxx option
 

                  --------------------------------------------------- 
                 |  HXX+RIRPA total energy     =     -1.20091119441  |
                  ---------------------------------------------------- 
                 :  RIRPA correlation energy   =     -1.20091119441  :
                 :  HXX total energy           =      0.00000000000  :
                 :  Hartree energy             =      0.00000000000  :
                 :  Exact Exchange energy      =      0.00000000000  :
                  .................................................... 


    ------------------------------------------------------------------------
    Rirpa profiling                cpu                    wall         ratio
    ------------------------------------------------------------------------
    module                         sec     %               sec     %
    ------------------------------------------------------------------------
    RIRPA                      6061.6  100.00          241.0  100.00  25.2
    STARTUP                       5.1    0.08            1.2    0.48   4.4
    riccmos                      13.1    0.22            1.5    0.62   8.8
    riccaux                      34.9    0.58            1.5    0.60  24.0
    riccbound                    15.2    0.25           10.3    4.26   1.5
    ccmkbaoi                    153.2    2.53            6.1    2.53  25.1
    cc3idxnrm                     7.9    0.13            0.3    0.12  26.4
    ecrpa                      5829.9   96.18          220.1   91.35  26.5
    tread                       466.2    7.69           27.6   11.45  16.9
    tqbuild                    4533.7   74.79          162.5   67.45  27.9
    trpaln                      434.0    7.16           15.5    6.45  27.9
    ------------------------------------------------------------------------
    sum                       17554.7  289.61          687.5  285.31  25.5
    ------------------------------------------------------------------------


    ------------------------------------------------------------------------
         total  cpu-time :  1 hours 41 minutes and  4 seconds
         total wall-time :  4 minutes and  1 seconds
    ------------------------------------------------------------------------

   ****  rirpa : all done  ****


    2019-11-27 02:02:16.222 

