
 eiger (gplogin3.local) : TURBOMOLE V7.2 ( 21285 ) 30 Jun 2017 at 11:51:10
 Copyright (C) 2017 TURBOMOLE GmbH, Karlsruhe


    2017-11-05 19:14:04.640 

                                                                                
  
 HOMO-LUMO Separation
   HOMO:    24.    24 a     -0.22764202 H =     -6.19446 eV
   LUMO:    25.    25 a     +0.00535527 H =     +0.14572 eV
   Gap :                    +0.23299729 H =     +6.34018 eV
 
Number of MOs=    630, Electrons=     48.00, Symmetry: c1   
 
   Nr.   Orbital    Occupation       Energy
   41.    41 a                     +0.202052 H =        +5.498 eV
   40.    40 a                     +0.186191 H =        +5.067 eV
   39.    39 a                     +0.175705 H =        +4.781 eV
   38.    38 a                     +0.162069 H =        +4.410 eV
   37.    37 a                     +0.140648 H =        +3.827 eV
   36.    36 a                     +0.136413 H =        +3.712 eV
   35.    35 a                     +0.131149 H =        +3.569 eV
   34.    34 a                     +0.117267 H =        +3.191 eV
   33.    33 a                     +0.097573 H =        +2.655 eV
   32.    32 a                     +0.090134 H =        +2.453 eV
   31.    31 a                     +0.079361 H =        +2.160 eV
   30.    30 a                     +0.074398 H =        +2.024 eV
   29.    29 a                     +0.060026 H =        +1.633 eV
   28.    28 a                     +0.054238 H =        +1.476 eV
   27.    27 a                     +0.038677 H =        +1.052 eV
   26.    26 a                     +0.029010 H =        +0.789 eV
   25.    25 a                     +0.005355 H =        +0.146 eV
   24.    24 a        2.000        -0.227642 H =        -6.194 eV
   23.    23 a        2.000        -0.273275 H =        -7.436 eV
   22.    22 a        2.000        -0.288159 H =        -7.841 eV
   21.    21 a        2.000        -0.297215 H =        -8.088 eV
   20.    20 a        2.000        -0.300214 H =        -8.169 eV
   19.    19 a        2.000        -0.316263 H =        -8.606 eV
   18.    18 a        2.000        -0.325237 H =        -8.850 eV
   17.    17 a        2.000        -0.339774 H =        -9.246 eV
   16.    16 a        2.000        -0.381305 H =       -10.376 eV
   15.    15 a        2.000        -0.422564 H =       -11.499 eV
   14.    14 a        2.000        -0.439375 H =       -11.956 eV
   13.    13 a        2.000        -0.459097 H =       -12.493 eV
   12.    12 a        2.000        -0.512707 H =       -13.951 eV
   11.    11 a        2.000        -0.529292 H =       -14.403 eV
   10.    10 a        2.000        -0.644522 H =       -17.538 eV
    9.     9 a        2.000        -0.655840 H =       -17.846 eV


    ------------------------------------------------------------------------
         total  cpu-time :   0.21 seconds
         total wall-time :   0.27 seconds
    ------------------------------------------------------------------------

   ****  eiger : all done  ****


    2017-11-05 19:14:04.887 

