
   OpenMP run-time library returned nthreads = 24
 operating system is UNIX !

 dscf (c-19-293) : TURBOMOLE V7.3 ( 22142 ) 4 Jul 2018 at 18:12:42
 Copyright (C) 2018 TURBOMOLE GmbH, Karlsruhe


    2019-03-05 10:34:30.257 



                             d s c f - program

                   idea & directorship : reinhart ahlrichs
                   program development : marco haeser
                                         michael baer
                           dft version : oliver treutler


                          quantum chemistry group
                          universitaet  karlsruhe
                                  germany




                          References             
                                                 
          TURBOMOLE:                             
              R. Ahlrichs, M. Baer, M. Haeser, H. Horn, and
              C. Koelmel
              Electronic structure calculations on workstation
              computers: the program system TURBOMOLE
              Chem. Phys. Lett. 162: 165 (1989)
          Density Functional:                              
              O. Treutler and R. Ahlrichs                      
              Efficient Molecular Numerical Integration Schemes
              J. Chem. Phys. 102: 346 (1995)                   
          Parallel Version:                                
              Performance of parallel TURBOMOLE for Density    
              Functional Calculations                          
              M. v. Arnim and R. Ahlrichs                      
              J. Comp. Chem. 19: 1746 (1998)                   
                                         



 UHF mode switched on !


              +--------------------------------------------------+
              | Atomic coordinate, charge and isotop information |
              +--------------------------------------------------+

                    atomic coordinates            atom    charge  isotop
          5.14667671    3.54004493  -14.14371524    c      0.000     0
          5.32102049    1.40053156  -15.66646165    c      0.000     0
          4.82182134   -0.96133674  -14.61941066    c      0.000     0
          4.21504164   -1.09832343  -12.05418067    c      0.000     0
          4.09211796    0.95005586  -10.56414609    n      0.000     0
          4.51448159    3.22639040  -11.60111801    c      0.000     0
          3.54900230   -3.63323360  -10.91837712    c      0.000     0
          3.27285014   -5.51884397  -12.25164808    o      0.000     0
          4.16005418    5.53915232   -9.96045643    c      0.000     0
          4.30924051    7.68546303  -10.84363884    o      0.000     0
          3.26706030   -3.57192577   -8.36156350    n      0.000     0
          2.32117110   -5.56063226   -6.81748226    c      0.000     0
         -0.14334892   -6.47149550   -7.15713417    c      0.000     0
         -1.05164951   -8.29518068   -5.46988695    c      0.000     0
          0.38779124   -9.20167882   -3.45427491    c      0.000     0
          2.84845142   -8.26092913   -3.18798793    c      0.000     0
          3.85292432   -6.47861108   -4.85080877    c      0.000     0
         -0.68067292  -11.09730479   -1.51853186    c      0.000     0
         -3.08615532  -12.41857579   -2.53967791    c      0.000     0
         -4.08792816  -14.45672949   -0.74238536    c      0.000     0
         -2.09644377  -16.50435215   -0.27619940    c      0.000     0
          0.34406575  -15.31263664    0.72231294    c      0.000     0
          1.29420470  -13.21335614   -1.03861212    c      0.000     0
         -1.70348696  -17.49555833   -2.05947915    h      0.000     0
         -2.80715692  -17.91931234    1.05950084    h      0.000     0
         -1.29897109   -9.58109293    0.89325367    c      0.000     0
         -3.50692637   -8.12894148    1.02626808    c      0.000     0
         -4.11820523   -6.68467072    3.14402015    c      0.000     0
         -2.42396687   -6.64110092    5.19279945    c      0.000     0
         -0.18030695   -8.05783612    5.12716797    c      0.000     0
          0.32323751   -9.51093798    2.97317136    c      0.000     0
         -6.55715381   -5.21835718    3.25568895    c      0.000     0
         -2.92701554   -4.95668960    7.22369686    n      0.000     0
         -3.07391163   -5.55636064    9.72261588    c      0.000     0
         -3.04897188   -7.71284102   10.59205749    o      0.000     0
          1.69319054   -7.98224372    7.26418237    c      0.000     0
         -1.80964091   -5.49144120   -9.24177712    c      0.000     0
          6.52260753   -5.52903661   -4.54960948    c      0.000     0
         -3.21949055   -3.26708541   11.42436399    c      0.000     0
         -2.99927210   -0.97449915   10.36245380    n      0.000     0
         -2.93806737    1.05827357   11.87757776    c      0.000     0
         -3.15327443    0.88801779   14.50276166    c      0.000     0
         -3.44634316   -1.49225326   15.58515614    c      0.000     0
         -3.45950125   -3.61493530   14.02926223    c      0.000     0
         -2.49671898    3.61284852   10.68108222    c      0.000     0
         -2.04020069    5.49110586   11.97382576    o      0.000     0
          3.62625389    4.96731161   -7.51061316    n      0.000     0
          2.82974022    6.66669126   -5.58702523    c      0.000     0
          0.60013874    8.07539155   -5.86054627    c      0.000     0
         -0.22693463    9.53210180   -3.80678686    c      0.000     0
          1.06511471    9.59870987   -1.50816208    c      0.000     0
          3.28482290    8.16850710   -1.31126205    c      0.000     0
          4.21078254    6.72851608   -3.31319925    c      0.000     0
          0.13722007   11.16050956    0.76964765    c      0.000     0
         -2.09575883   12.90367228    0.04497224    c      0.000     0
         -2.92573797   14.61041078    2.23514864    c      0.000     0
         -0.74149873   16.27987161    3.14450989    c      0.000     0
          1.55690398   14.65955726    3.83573262    c      0.000     0
          2.31581892   12.92999106    1.63823009    c      0.000     0
         -0.21813956   17.60246383    1.63134839    h      0.000     0
         -1.33323428   17.42192668    4.76821141    h      0.000     0
         -0.63428758    9.27734867    2.85341072    c      0.000     0
         -3.08513598    8.28442857    2.95968562    c      0.000     0
         -3.78870475    6.46715487    4.73861106    c      0.000     0
         -1.96398152    5.58478836    6.45263702    c      0.000     0
          0.50616941    6.55121187    6.42503997    c      0.000     0
          1.10676604    8.39701674    4.63198476    c      0.000     0
         -6.44613121    5.44266824    4.81124397    c      0.000     0
         -2.62529819    3.57596021    8.11158118    n      0.000     0
          2.48929043    5.60872029    8.23089049    c      0.000     0
         -0.92431659    7.99111983   -8.25944144    c      0.000     0
          6.65304178    5.28449017   -3.06803085    c      0.000     0
         -3.08130893   -3.08174123    6.78854305    h      0.000     0
          3.63614623   -1.88472427   -7.50479014    h      0.000     0
         -4.81277132   -8.10915411   -0.55712644    h      0.000     0
          2.06901726  -10.58806673    2.95011138    h      0.000     0
         -2.96530127   -8.97377950   -5.75306626    h      0.000     0
          4.03132173   -8.91329737   -1.64044260    h      0.000     0
         -7.63610730   -5.72795034    4.94785824    h      0.000     0
         -7.71529580   -5.60981215    1.59072252    h      0.000     0
         -6.22070449   -3.17742241    3.35010158    h      0.000     0
          2.01804654   -6.03702029    7.89743390    h      0.000     0
          3.49851184   -8.79534586    6.67335957    h      0.000     0
          0.98065978   -9.03289878    8.89871062    h      0.000     0
          7.47678574   -6.51096466   -3.00233587    h      0.000     0
          6.56951089   -3.49352637   -4.15857145    h      0.000     0
          7.60546060   -5.82802852   -6.28783104    h      0.000     0
         -1.18973838   -6.22387675  -11.07543608    h      0.000     0
         -3.77341222   -6.04959888   -8.92485403    h      0.000     0
         -1.71792125   -3.42586626   -9.35485430    h      0.000     0
         -4.58022497  -11.04153291   -2.91607395    h      0.000     0
         -2.60587013  -13.28171855   -4.36548042    h      0.000     0
         -4.61778158  -13.58043018    1.06246070    h      0.000     0
         -5.80981647  -15.28712385   -1.53967149    h      0.000     0
         -0.00746646  -14.53519289    2.61132952    h      0.000     0
          1.82327498  -16.74930443    0.92816980    h      0.000     0
          1.76371684  -14.02650473   -2.88850556    h      0.000     0
          3.05559590  -12.42248484   -0.30086481    h      0.000     0
         -3.62230026   -5.52334920   14.75807299    h      0.000     0
         -3.63154268   -1.69345630   17.61946801    h      0.000     0
          4.86527940   -2.69174165  -15.71588998    h      0.000     0
          5.81197016    1.57471484  -17.65126808    h      0.000     0
         -3.11522537    1.89271706    7.31067127    h      0.000     0
          3.64649193    3.09193882   -7.05364663    h      0.000     0
         -4.51185807    8.92521939    1.63068844    h      0.000     0
          3.02384976    9.12781511    4.63546985    h      0.000     0
         -1.95793928   10.60556025   -4.04510931    h      0.000     0
          4.33652129    8.16081238    0.45158770    h      0.000     0
         -6.48951537    3.42647949    4.32985495    h      0.000     0
         -7.25485981    5.62677920    6.70787321    h      0.000     0
         -7.65532108    6.45558967    3.47666215    h      0.000     0
          2.46992158    3.54078487    8.34052076    h      0.000     0
          4.36803339    6.22213249    7.62932452    h      0.000     0
          2.13037432    6.31675561   10.14278302    h      0.000     0
          6.36322741    3.24498674   -3.26933492    h      0.000     0
          7.52478546    5.63921615   -1.22855371    h      0.000     0
          7.98293883    5.85039408   -4.55018136    h      0.000     0
         -1.14438538    6.04347453   -8.92821189    h      0.000     0
         -2.80032017    8.80195933   -7.95664760    h      0.000     0
          0.02978004    9.03909323   -9.76721034    h      0.000     0
         -3.70719337   11.80155641   -0.63909161    h      0.000     0
         -1.48024203   14.08710275   -1.54422614    h      0.000     0
         -3.59837655   13.43790672    3.80742920    h      0.000     0
         -4.52380712   15.78114838    1.62724888    h      0.000     0
          1.10816727   13.50694856    5.49975529    h      0.000     0
          3.16297180   15.86389449    4.34841710    h      0.000     0
          2.84763836   14.08063173   -0.00318411    h      0.000     0
          3.99578750   11.83227869    2.13423934    h      0.000     0
         -3.06642707    2.60778913   15.61349654    h      0.000     0
          5.45415690    5.43690089  -14.85593063    h      0.000     0
         -1.46662525   -0.06442068    2.06439102    c      6.000     0
         -1.59632650    2.16336804    0.39930505    c      6.000     0
         -0.19363950    2.30583203   -1.71543619    c      6.000     0
          1.52635518    0.22771894   -2.41334901    c      6.000     0
          1.65549540   -1.99789844   -0.74698963    c      6.000     0
          0.25705741   -2.13704040    1.36817250    c      6.000     0
         -2.79570777   -0.20060323    3.98988476    o      8.000     0
          2.85725861    0.34983714   -4.33680007    o      8.000     0
         -2.84324142    3.68069157    0.98219927    h      1.000     0
         -0.24492477    3.93635118   -2.95961561    h      1.000     0
          2.90154268   -3.51463139   -1.32887612    h      1.000     0
          0.31071257   -3.76795585    2.61066617    h      1.000     0
 
       center of nuclear mass  :    0.09697857    0.00391994   -0.05895140
       center of nuclear charge:    0.03054279    0.08060149   -0.17382833

              +--------------------------------------------------+
              |               basis set information              |
              +--------------------------------------------------+

              we will work with the 1s 3p 5d 7f 9g ... basis set
              ...i.e. with spherical basis functions...

   type   atoms  prim   cont   basis
   ---------------------------------------------------------------------------
    c       64     77     55   cc-pVQZ   [5s4p3d2f1g|21s6p3d2f1g]
    n        6     77     55   cc-pVQZ   [5s4p3d2f1g|21s6p3d2f1g]
    o        6     77     55   cc-pVQZ   [5s4p3d2f1g|21s6p3d2f1g]
    h       66     32     30   cc-pVQZ   [4s3p2d1f|6s3p2d1f]
   ---------------------------------------------------------------------------
   total:  142   7964   6160
   ---------------------------------------------------------------------------

   total number of primitive shells          :  111
   total number of contracted shells         : 1800
   total number of cartesian basis functions : 7630
   total number of SCF-basis functions       : 6160


 integral neglect threshold       :  0.44E-12
 integral storage threshold THIZE :  0.10E-04
 integral storage threshold THIME :         5


 DENSITY CONVERGENCE CHECK SWITCHED ON !
 SCF CONVERGENCE IF RMS(delta[D]) <     0.1000000000E-06


 symmetry group of the molecule :   c1 

 the group has the following generators :
   c1(z)

    1 symmetry operations found

 there are 1 real representations :   a   

 maximum number of shells which are related by symmetry :  1


    mo occupation :
   irrep   mo's   occupied
    a     6160       28
 
 number of basis functions   :                   6160
 number of occupied orbitals :                     28
 

 automatic virtual orbital shift switched on 
      shift if e(lumo)-e(homo) < 0.10000000    


          ------------------------
          nuclear repulsion energy  :   322.516625407    
          ------------------------


         -----------------
         -S,T+V- integrals
         -----------------

 1e-integrals will be neglected if expon. factor < 0.438003E-13
 
   Difference densities algorithm switched on.
   The maximal number of linear combinations of
   difference densities is                    20 .

 DIIS switched on: error vector is FDS-SDF
 Max. Iterations for DIIS is     :   5
 DIIS matrix (see manual) 
    Scaling factor of diagonals  :  1.200
    threshold for scaling factor :  0.000

 scf convergence criterion : increment of total energy < .1000000D-06
                  and increment of one-electron energy < .1000000D-03

  MOs are in ASCII format !


 reading orbital data $uhfmo_alpha  from file alpha
 orbital characterization : scfconv=7

 reading orbital data $uhfmo_beta  from file beta
 orbital characterization : scfconv=7

 DSCF restart information will be dumped onto file alpha

 
                                              current damping :  0.300
 ITERATION  ENERGY          1e-ENERGY        2e-ENERGY     RMS[dD(SAO)]   TOL
   1  -379.32677067467    -1154.7767213     452.93332518    0.000D+00 0.437D-12
          max. resid. norm for Fia-block=  8.380D-02 for orbital     26a    alpha
          max. resid. fock norm         =  1.020D-01 for orbital     26a    alpha
          Delta Eig. =     5.2973616304 eV 
 
                                              current damping :  0.250
 ITERATION  ENERGY          1e-ENERGY        2e-ENERGY     RMS[dD(SAO)]   TOL
   2  -379.36463115859    -1155.2604310     453.37917442    0.824D-04 0.280D-12
          Norm of current diis error: 0.41900    
          max. resid. norm for Fia-block=  5.500D-02 for orbital     27a    beta 
          max. resid. fock norm         =  6.212D-02 for orbital     27a    beta 
          Delta Eig. =     2.1981086257 eV 
 
                                              current damping :  0.100
 ITERATION  ENERGY          1e-ENERGY        2e-ENERGY     RMS[dD(SAO)]   TOL
   3  -379.37692622091    -1155.3045103     453.41095866    0.470D-04 0.215D-12
          Norm of current diis error: 0.19974    
          max. resid. norm for Fia-block=  4.326D-02 for orbital     26a    beta 
          max. resid. fock norm         =  4.529D-02 for orbital     26a    beta 
          Delta Eig. =     0.7456371781 eV 
 
                                              current damping :  0.150
 ITERATION  ENERGY          1e-ENERGY        2e-ENERGY     RMS[dD(SAO)]   TOL
   4  -379.38326282683    -1155.2993623     453.39947411    0.379D-04 0.174D-12
          Norm of current diis error: 0.86035E-01
          max. resid. norm for Fia-block=  2.372D-02 for orbital     25a    beta 
          max. resid. fock norm         =  2.452D-02 for orbital     25a    beta 
          Delta Eig. =     0.3922557887 eV 
 
                                              current damping :  0.200
 ITERATION  ENERGY          1e-ENERGY        2e-ENERGY     RMS[dD(SAO)]   TOL
   5  -379.38459002195    -1155.3492621     453.44804671    0.162D-04 0.158D-12
          Norm of current diis error: 0.34355E-01
          max. resid. norm for Fia-block=  8.783D-03 for orbital     25a    beta 
          max. resid. fock norm         =  9.105D-03 for orbital     25a    beta 
 mo-orthogonalization: Cholesky decomposition
          Delta Eig. =     0.0973553673 eV 
 
                                              current damping :  0.250
 ITERATION  ENERGY          1e-ENERGY        2e-ENERGY     RMS[dD(SAO)]   TOL
   6  -379.38481169426    -1155.3406589     453.43922179    0.477D-05 0.150D-12
          Norm of current diis error: 0.17492E-01
          max. resid. norm for Fia-block=  3.789D-03 for orbital     25a    beta 
          max. resid. fock norm         =  3.957D-03 for orbital     25a    beta 
          Delta Eig. =     0.0508445798 eV 
 
                                              current damping :  0.300
 ITERATION  ENERGY          1e-ENERGY        2e-ENERGY     RMS[dD(SAO)]   TOL
   7  -379.38487434865    -1155.3443773     453.44287753    0.160D-05 0.144D-12
          Norm of current diis error: 0.11638E-01
          max. resid. norm for Fia-block=  2.837D-03 for orbital     24a    alpha
          max. resid. fock norm         =  2.837D-03 for orbital     24a    alpha
          Delta Eig. =     0.0185438959 eV 
 
                                              current damping :  0.350
 ITERATION  ENERGY          1e-ENERGY        2e-ENERGY     RMS[dD(SAO)]   TOL
   8  -379.38490526352    -1155.3435169     453.44198627    0.423D-06 0.138D-12
          Norm of current diis error: 0.10042E-01
          max. resid. norm for Fia-block=  2.406D-03 for orbital     24a    alpha
          max. resid. fock norm         =  2.406D-03 for orbital     24a    alpha
          Delta Eig. =     0.0157067295 eV 
 
                                              current damping :  0.200
 ITERATION  ENERGY          1e-ENERGY        2e-ENERGY     RMS[dD(SAO)]   TOL
   9  -379.38493032397    -1155.3430886     453.44153283    0.239D-06 0.129D-12
          Norm of current diis error: 0.93503E-02
          max. resid. norm for Fia-block=  2.339D-03 for orbital     24a    alpha
          max. resid. fock norm         =  2.339D-03 for orbital     24a    alpha
          Delta Eig. =     0.0165102909 eV 
 
                                              current damping :  0.100
 ITERATION  ENERGY          1e-ENERGY        2e-ENERGY     RMS[dD(SAO)]   TOL
  10  -379.38495617188    -1155.3424657     453.44088408    0.233D-06 0.117D-12
          Norm of current diis error: 0.88562E-02
          max. resid. norm for Fia-block=  2.841D-03 for orbital     24a    alpha
          max. resid. fock norm         =  2.841D-03 for orbital     24a    alpha
 mo-orthogonalization: Cholesky decomposition
          Delta Eig. =     0.0236341755 eV 
 
                                              current damping :  0.100
 ITERATION  ENERGY          1e-ENERGY        2e-ENERGY     RMS[dD(SAO)]   TOL
  11  -379.38498996700    -1155.3419169     453.44030154    0.277D-06 0.103D-12
          Norm of current diis error: 0.83200E-02
          max. resid. norm for Fia-block=  4.144D-03 for orbital     24a    alpha
          max. resid. fock norm         =  4.144D-03 for orbital     24a    alpha
          Delta Eig. =     0.0343099368 eV 
 
                                              current damping :  0.100
 ITERATION  ENERGY          1e-ENERGY        2e-ENERGY     RMS[dD(SAO)]   TOL
  12  -379.38503477867    -1155.3409837     453.43932353    0.409D-06 0.880D-13
          Norm of current diis error: 0.75502E-02
          max. resid. norm for Fia-block=  7.800D-03 for orbital     24a    beta 
          max. resid. fock norm         =  7.800D-03 for orbital     24a    beta 
          Delta Eig. =     0.0656354999 eV 
 
                                              current damping :  0.100
 ITERATION  ENERGY          1e-ENERGY        2e-ENERGY     RMS[dD(SAO)]   TOL
  13  -379.38510693287    -1155.3396541     453.43792173    0.658D-06 0.731D-13
          Norm of current diis error: 0.62717E-02
          max. resid. norm for Fia-block=  1.230D-02 for orbital     24a    beta 
          max. resid. fock norm         =  1.230D-02 for orbital     24a    beta 
          Delta Eig. =     0.1048565759 eV 
 
                                              current damping :  0.100
 ITERATION  ENERGY          1e-ENERGY        2e-ENERGY     RMS[dD(SAO)]   TOL
  14  -379.38519113710    -1155.3383469     453.43653040    0.923D-06 0.617D-13
          Norm of current diis error: 0.45570E-02
          max. resid. norm for Fia-block=  9.632D-03 for orbital     24a    beta 
          max. resid. fock norm         =  9.632D-03 for orbital     24a    beta 
          Delta Eig. =     0.0794156611 eV 
 
                                              current damping :  0.100
 ITERATION  ENERGY          1e-ENERGY        2e-ENERGY     RMS[dD(SAO)]   TOL
  15  -379.38523202817    -1155.3372534     453.43539599    0.441D-06 0.565D-13
          Norm of current diis error: 0.29053E-02
          max. resid. norm for Fia-block=  9.014D-03 for orbital     24a    beta 
          max. resid. fock norm         =  9.014D-03 for orbital     24a    beta 
 mo-orthogonalization: Cholesky decomposition
          Delta Eig. =     0.0752340177 eV 
 
                                              current damping :  0.100
 ITERATION  ENERGY          1e-ENERGY        2e-ENERGY     RMS[dD(SAO)]   TOL
  16  -379.38525253982    -1155.3369707     453.43509271    0.345D-06 0.551D-13
          Norm of current diis error: 0.22139E-02
          max. resid. norm for Fia-block=  2.903D-03 for orbital     24a    beta 
          max. resid. fock norm         =  2.903D-03 for orbital     24a    beta 
          Delta Eig. =     0.0238714676 eV 
 
                                              current damping :  0.100
 ITERATION  ENERGY          1e-ENERGY        2e-ENERGY     RMS[dD(SAO)]   TOL
  17  -379.38525557225    -1155.3362385     453.43435748    0.101D-06 0.556D-13
          Norm of current diis error: 0.10706E-02
          max. resid. norm for Fia-block=  2.446D-03 for orbital     24a    alpha
          max. resid. fock norm         =  2.446D-03 for orbital     24a    alpha
          Delta Eig. =     0.0201662073 eV 

 DENSITY CONVERGED !

 
                                              current damping :  0.100
 ITERATION  ENERGY          1e-ENERGY        2e-ENERGY     RMS[dD(SAO)]   TOL
  18  -379.38525670027    -1155.3361556     453.43427352    0.788D-07 0.124D-12
          Norm of current diis error: 0.68349E-03
          max. resid. norm for Fia-block=  7.715D-04 for orbital     24a    alpha
          max. resid. fock norm         =  7.717D-04 for orbital     24a    alpha
          Delta Eig. =     0.0066170154 eV 
 
                                              current damping :  0.100
 ITERATION  ENERGY          1e-ENERGY        2e-ENERGY     RMS[dD(SAO)]   TOL
  19  -379.38525684585    -1155.3360292     453.43414691    0.114D-06 0.125D-12
          Norm of current diis error: 0.43437E-03
          max. resid. norm for Fia-block=  1.427D-04 for orbital     24a    alpha
          max. resid. fock norm         =  1.440D-04 for orbital     24a    alpha
          Delta Eig. =     0.0011596471 eV 

 ENERGY & DENSITY CONVERGED !

 
                                              current damping :  0.150
 ITERATION  ENERGY          1e-ENERGY        2e-ENERGY     RMS[dD(SAO)]   TOL
  20  -379.38525689642    -1155.3360570     453.43417468    0.344D-07 0.125D-12
          max. resid. norm for Fia-block=  3.441D-05 for orbital     28a    beta 
          max. resid. fock norm         =  4.311D-05 for orbital     29a    beta 

 convergence criteria satisfied after    20 iterations


                  ------------------------------------------ 
                 |  total energy      =   -379.38525689642  |
                  ------------------------------------------ 
                 :  kinetic energy    =    378.77217307823  :
                 :  potential energy  =   -758.15742997466  :
                 :  virial theorem    =      1.99838400727  :
                 :  wavefunction norm =      1.00000000000  :
                  .......................................... 


 orbitals $uhfmo_beta  will be written to file beta

 orbitals $uhfmo_alpha  will be written to file alpha
 
 alpha: 

    irrep                 24a         25a         26a         27a         28a   
 eigenvalues H         -0.54848    -0.46745    -0.45028    -0.41451    -0.41349
            eV         -14.9250    -12.7200    -12.2528    -11.2794    -11.2518
 occupation              1.0000      1.0000      1.0000      1.0000      1.0000 

    irrep                 29a         30a         31a         32a         33a   
 eigenvalues H         -0.00510     0.02769     0.02962     0.04489     0.05142
            eV          -0.1387      0.7534      0.8059      1.2215      1.3993
 
 beta:  

    irrep                 24a         25a         26a         27a         28a   
 eigenvalues H         -0.54857    -0.46747    -0.45030    -0.41463    -0.41348
            eV         -14.9274    -12.7207    -12.2533    -11.2827    -11.2514
 occupation              1.0000      1.0000      1.0000      1.0000      1.0000 

    irrep                 29a         30a         31a         32a         33a   
 eigenvalues H         -0.00514     0.02769     0.02962     0.04489     0.05142
            eV          -0.1397      0.7534      0.8059      1.2214      1.3993
 

                                             _ _ _ 
  IRREP     alpha occ.     beta occ.      tr(D*D-D)


 a         28.00000000    28.00000000    -0.00005637

   -------------------------------------------------

   sum     28.00000000    28.00000000    -0.00005637

 <S*S>     0.00011273

 
 
 
 ==============================================================================
                           electrostatic moments
 ==============================================================================

 reference point for electrostatic moments:    0.00000   0.00000   0.00000

 
              nuc           elec       ->  total
 ------------------------------------------------------------------------------
                          charge      
 ------------------------------------------------------------------------------
          56.000000     -56.000000      -0.000000
 a-b                                    -0.000000
 
 ------------------------------------------------------------------------------
                       dipole moment  
 ------------------------------------------------------------------------------
   x       1.710396      -1.710542      -0.000146
   y       4.513684      -4.505889       0.007795
   z      -9.734386       9.731252      -0.003135
 
   | dipole moment | =     0.0084 a.u. =     0.0214 debye 
 
 ------------------------------------------------------------------------------
                     quadrupole moment
 ------------------------------------------------------------------------------
  xx     203.738259    -241.848583     -38.110324
  yy     168.562908    -197.269086     -28.706178
  zz     389.829766    -433.805149     -43.975384
  xy     -54.202991      51.323514      -2.879477
  xz    -240.888659     248.139537       7.250879
  yz     -62.975634      62.379502      -0.596132
 
     1/3  trace=     -36.930629
     anisotropy=      19.017328
 
 ==============================================================================
 


    ------------------------------------------------------------------------
         total  cpu-time :  16 days 18 hours 11 minutes and 13 seconds
         total wall-time : 17 hours 31 minutes and 38 seconds
    ------------------------------------------------------------------------

   ****  dscf : all done  ****


    2019-03-06 04:06:08.277 

