STARTING ridft ON 32 PROCESSORS!
RUNNING PROGRAM /sopt/TURBOMOLE/7.3-official/bin/em64t-unknown-linux-gnu_smp/ridft_mpi.
           SMPCPUS    set: Shared-memory Parallelization with  32 CPUs.

           SMP Parallelization Reference:
           C. van Wullen, J. Comput. Chem. 32 (2011) 1195--1201
 operating system is UNIX !

 ridft (c-13-38) : TURBOMOLE V7.3 ( 22118 ) 1 Jul 2018 at 20:38:15
 Copyright (C) 2018 TURBOMOLE GmbH, Karlsruhe


    2019-03-12 22:47:33.943 



                                  r i d f t

                        DFT program with RI approximation 
                                for coulomb part 




                                                 
                                 References:     
                                                 
          TURBOMOLE:                             
              R. Ahlrichs, M. Baer, M. Haeser, H. Horn, and
              C. Koelmel
              Electronic structure calculations on workstation
              computers: the program system TURBOMOLE
              Chem. Phys. Lett. 162: 165 (1989)
          Density Functional:                              
              O. Treutler and R. Ahlrichs                      
              Efficient Molecular Numerical Integration Schemes
              J. Chem. Phys. 102: 346 (1995)                   
          Parallel Version:                                
              Performance of parallel TURBOMOLE for Density    
              Functional Calculations                          
              M. v. Arnim and R. Ahlrichs                      
              J. Comp. Chem. 19: 1746 (1998)                   
          RI-J Method:                                     
              Auxiliary Basis Sets to approximate Coulomb      
              Potentials                                       
              Chem. Phys. Lett. 240: 283 (1995)                
              K. Eichkorn, O. Treutler, H. Oehm, M. Haeser     
              and R. Ahlrichs                                  
              Chem. Phys. Lett. 242: 652 (1995)                
                                                           
              Auxiliary Basis Sets for Main Row Atoms and their
              Use to approximate Coulomb Potentials            
              K. Eichkorn, F. Weigend, O. Treutler and         
              R. Ahlrichs                                      
              Theo. Chem. Acc. 97: 119 (1997)                   
                                                           
              Accurate Coulomb-fitting basis sets for H to Rn 
              F. Weigend                                        
              Phys. Chem. Chem. Phys. 8: 1057 (2006)            
                                                           
          Multipole accelerated RI-J (MARI-J):             
              Fast evaluation of the Coulomb potential for     
              electron densities using multipole accelerated   
              resolution of identity approximation             
              M. Sierka, A. Hogekamp and R. Ahlrichs           
              J. Chem. Phys. 118: 9136 (2003)                  
          RI-JK Method:                                     
              A fully direct RI-HF algorithm: Implementation,
              optimised auxiliary basis sets, demonstration of
              accuracy and efficiency                         
              F. Weigend                                      
              Phys. Chem. Chem. Phys. 4: 4285 (2002)           
          Two-component HF and DFT with spin-orbit coupling:  
              Self-consistent treatment of spin-orbit         
              interactions with efficient Hartree-Fock and    
              density functional methods                      
              M. K. Armbruster, F. Weigend, C. van Wüllen and 
              W. Klopper                                      
              Phys. Chem. Chem. Phys. 10: 1748 (2008)         
          Two-component difference density and DIIS algorithm 
              Efficient two-component self-consistent field   
              procedures and gradients: implementation in     
              TURBOMOLE and application to Au20-              
              A. Baldes, F. Weigend                           
              Mol. Phys. 111: 2617 (2013)                     
          Relativistic all-electron 2c calculations           
              An efficient implementation of two-component    
              relativistic exact-decoupling methods for large 
              molecules                                       
              D. Peng, N. Middendorf, F. Weigend, M. Reiher   
              J. Chem. Phys. 138: 184105 (2013)               
          Finite nucleus model and SNSO approximation         
              Efficient implementation of one- and two-       
              component analytical energy gradients in exact  
              two-component theory                            
              Y. J. Franzke, N. Middendorf, F. Weigend        
              J. Chem. Phys. 148: 104110 (2018)               
                                         




              +--------------------------------------------------+
              |      general information about current run       |
              +--------------------------------------------------+

 
 PBE functional
 exchange:    LDA + PBE
 correlation: LDA (PW) + PBE
 A DFT calculation using the RI-J approximation will be carried out.
 Allocatable memory for RI due to $ricore (MB):                  8000


              +--------------------------------------------------+
              | Atomic coordinate, charge and isotop information |
              +--------------------------------------------------+

                    atomic coordinates            atom    charge  isotop
         -4.89018803   -0.61058122    0.88714758    c      6.000     0
         -4.93292050   -1.65609180   -0.88745217    h      1.000     0
         -5.02618793   -1.98777749    2.41452974    h      1.000     0
         -6.56875430    0.57754679    0.96179744    h      1.000     0
         -2.47470942    0.93993890    1.10560809    c      6.000     0
         -2.48924287    2.04706832    2.84657210    h      1.000     0
         -2.38554629    2.29710149   -0.44744211    h      1.000     0
         -0.10739249   -0.69591110    1.05529898    c      6.000     0
         -0.16284764   -2.02835421    2.63782216    h      1.000     0
         -0.10168464   -1.84596637   -0.66418946    h      1.000     0
          2.32737925    0.83160344    1.19436826    c      6.000     0
          2.29277334    1.99094351    2.89996058    h      1.000     0
          2.39295516    2.13799197   -0.40271129    h      1.000     0
          4.67249002   -0.83742156    1.17015902    c      6.000     0
          4.76346834   -1.95636434   -0.55727448    h      1.000     0
          6.40189018    0.27229016    1.29240016    h      1.000     0
          4.64739787   -2.15308636    2.75638896    h      1.000     0
          0.07967505    0.38029242    7.77907310    c      6.000     0
          0.13053186    2.61975675    7.22757319    o      8.000     0
          2.21994159   -1.04055042    7.97337464    n      7.000     0
          3.86578014   -0.24198897    7.46567656    h      1.000     0
          2.14635950   -2.91494457    8.22172798    h      1.000     0
         -2.35848925   -1.01609706    8.27881842    c      6.000     0
         -2.08022707   -2.83159732    9.19935006    h      1.000     0
         -3.31512064   -1.31525758    6.48204159    h      1.000     0
         -3.56402860    0.16920801    9.44151372    h      1.000     0
 
       center of nuclear mass  :   -0.03057277    0.04356050    4.10983421
       center of nuclear charge:   -0.05458783   -0.02451533    4.00159136

              +--------------------------------------------------+
              |               basis set information              |
              +--------------------------------------------------+

              we will work with the 1s 3p 5d 7f 9g ... basis set
              ...i.e. with spherical basis functions...

   type   atoms  prim   cont   basis
   ---------------------------------------------------------------------------
    c        7     68     48   def2-QZVP   [7s4p3d2f|15s8p3d2f]
    h       17     26     23   def2-QZVP   [4s3p2d|7s3p2d]
    o        1     68     48   def2-QZVP   [7s4p3d2f|15s8p3d2f]
    n        1     68     48   def2-QZVP   [7s4p3d2f|15s8p3d2f]
   ---------------------------------------------------------------------------
   total:   26   1054    823
   ---------------------------------------------------------------------------

   total number of primitive shells          :   96
   total number of contracted shells         :  297
   total number of cartesian basis functions :  938
   total number of SCF-basis functions       :  823


 integral neglect threshold       :  0.36E-11
 integral storage threshold THIZE :  0.10E-04
 integral storage threshold THIME :         5

 RI-J AUXILIARY BASIS SET information:

              we will work with the 1s 3p 5d 7f 9g ... basis set
              ...i.e. with spherical basis functions...

   type   atoms  prim   cont   basis
   ---------------------------------------------------------------------------
    c        7     70     49   def2-QZVP   [6s4p3d1f1g|12s5p4d2f1g]
    h       17     16     11   def2-QZVP   [3s1p1d|5s2p1d]
    o        1     70     49   def2-QZVP   [6s4p3d1f1g|12s5p4d2f1g]
    n        1     70     49   def2-QZVP   [6s4p3d1f1g|12s5p4d2f1g]
   ---------------------------------------------------------------------------
   total:   26    902    628
   ---------------------------------------------------------------------------

   total number of primitive shells          :   80
   total number of contracted shells         :  220
   total number of cartesian basis functions :  753
   total number of SCF-basis functions       :  628


 symmetry group of the molecule :   c1 

 the group has the following generators :
   c1(z)

    1 symmetry operations found

 there are 1 real representations :   a   

 maximum number of shells which are related by symmetry :  1


    mo occupation :
   irrep   mo's   occupied
    a      823       37
 
 number of basis functions   :                    823
 number of occupied orbitals :                     37
 
  
           ------------------
           density functional
           ------------------
 PBE functional
 exchange:    LDA + PBE
 correlation: LDA (PW) + PBE

 iterations will be done with small grid
  
 spherical integration : Lebedev's spherical grid
 spherical gridsize    :                     4
    i.e. gridpoints    :                   434
 value for diffuse not defined
 radial integration    : Chebyshev 2nd kind (scaling 3)
 radial gridsize       :                     6
 integration cells     :                    26
 partition function    : becke
 partition sharpness   :                     3
  

 biggest AO integral is expected to be     6.990327543
  
           ------------------------
               RI-J - INFORMATION
           ------------------------
 Contributions to RI integral batches: 
  neglected integral batches:                 10911
  direct contribution:                            0
  memory contribution:                 33342
 Memory core needed for (P|Q) and Cholesky      4 MByte
 Memory core minimum needed except of (P|Q)     3 MByte
 Total minimum memory core needed (sum)         6 MByte
  
 ****************************************
 Memory allocated for RI-J  1895 MByte
 ****************************************
                                            

          ------------------------
          nuclear repulsion energy  :   478.481687286    
          ------------------------

  _________________________________
 |                                 |
 |         DFTD3 V3.1 Rev 0        |
 | S.Grimme, University Bonn       |
 |            June  2014           |
 |   see standalone version        |
 |       dftd3 -h for options      |
 |_________________________________|
 
 Please cite DFT-D3 work done with this code as:
 S. Grimme, J. Antony, S. Ehrlich and H. Krieg,
 J. Chem. Phys, 132 (2010), 154104.
 If used with BJ-damping cite also
 S. Grimme, S. Ehrlich and L. Goerigk,
 J. Comput. Chem. 32 (2011), 1456-1465
 For DFT-D2 the reference is
 S. Grimme, J. Comput. Chem., 27 (2006), 1787-1799
 
C6 coefficients used:
                     2  C6 for element                      1
Z=  1 CN= 0.912     C6(AA)=    3.03
Z=  1 CN= 0.000     C6(AA)=    7.59
                     5  C6 for element                      6
Z=  6 CN= 0.000     C6(AA)=   49.11
Z=  6 CN= 0.987     C6(AA)=   43.25
Z=  6 CN= 1.998     C6(AA)=   29.36
Z=  6 CN= 2.999     C6(AA)=   25.78
Z=  6 CN= 3.984     C6(AA)=   18.21
                     4  C6 for element                      7
Z=  7 CN= 0.000     C6(AA)=   25.27
Z=  7 CN= 0.994     C6(AA)=   22.12
Z=  7 CN= 2.014     C6(AA)=   19.68
Z=  7 CN= 2.990     C6(AA)=   15.58
                     3  C6 for element                      8
Z=  8 CN= 0.000     C6(AA)=   15.51
Z=  8 CN= 0.993     C6(AA)=   12.82
Z=  8 CN= 1.989     C6(AA)=   10.37

#           XYZ [au]              R0(AA) [Ang.]  CN          C6(AA)     C8(AA)   C10(AA) [au]
  1  -4.89019  -0.61058   0.88715   c   0.610  4.017        18.3       529.6     18763.1
  2  -4.93292  -1.65609  -0.88745   h   0.395  0.998         3.1        37.4       553.4
  3  -5.02619  -1.98778   2.41453   h   0.395  0.998         3.1        37.4       553.4
  4  -6.56875   0.57755   0.96180   h   0.395  0.998         3.1        37.4       553.4
  5  -2.47471   0.93994   1.10561   c   0.610  4.028        18.3       529.3     18753.7
  6  -2.48924   2.04707   2.84657   h   0.395  1.003         3.1        37.3       553.0
  7  -2.38555   2.29710  -0.44744   h   0.395  1.003         3.1        37.3       553.0
  8  -0.10739  -0.69591   1.05530   c   0.610  4.061        18.3       528.7     18731.8
  9  -0.16285  -2.02835   2.63782   h   0.395  1.003         3.1        37.3       553.0
 10  -0.10168  -1.84597  -0.66419   h   0.395  1.003         3.1        37.3       553.0
 11   2.32738   0.83160   1.19437   c   0.610  4.029        18.3       529.3     18753.3
 12   2.29277   1.99094   2.89996   h   0.395  1.003         3.1        37.3       553.0
 13   2.39296   2.13799  -0.40271   h   0.395  1.003         3.1        37.3       553.0
 14   4.67249  -0.83742   1.17016   c   0.610  4.017        18.3       529.6     18762.8
 15   4.76347  -1.95636  -0.55727   h   0.395  0.998         3.1        37.4       553.4
 16   6.40189   0.27229   1.29240   h   0.395  0.998         3.1        37.4       553.4
 17   4.64740  -2.15309   2.75639   h   0.395  0.998         3.1        37.4       553.4
 18   0.07968   0.38029   7.77907   c   0.610  3.026        25.6       741.1     26255.2
 19   0.13053   2.61976   7.22757   o   0.510  1.059        12.8       257.6      6367.2
 20   2.21994  -1.04055   7.97337   n   0.533  3.069        15.6       344.7      9316.4
 21   3.86578  -0.24199   7.46568   h   0.395  1.006         3.1        37.3       552.7
 22   2.14636  -2.91494   8.22173   h   0.395  1.006         3.1        37.3       552.8
 23  -2.35849  -1.01610   8.27882   c   0.610  4.041        18.3       529.1     18744.8
 24  -2.08023  -2.83160   9.19935   h   0.395  0.999         3.1        37.4       553.4
 25  -3.31512  -1.31526   6.48204   h   0.395  1.000         3.1        37.4       553.3
 26  -3.56403   0.16921   9.44151   h   0.395  1.000         3.1        37.4       553.3

molecular C6(AA) [au] =      4616.55

           DFT-D V3(BJ)
 DF pbe                                               
 parameters
 s6       :    1.0000
 s8       :    0.7875
 a1       :    0.4289
 a2       :    4.4407
 k1-k3    :   16.0000    1.3333   -4.0000
 
 Edisp /kcal,au:   -13.9434 -0.02222024

 E6    /kcal :   -10.2231
 E8    /kcal :    -3.7204
 % E8        : 26.68
 nuclear repulsion energy                  =     478.481687286
 empirical dispersive energy correction    =      -0.022220243
 nuclear repulsion + dispersion correction =     478.459467043


         -----------------
         -S,T+V- integrals
         -----------------

 1e-integrals will be neglected if expon. factor < 0.356286E-12
 Difference densities >>NOT<< switched on in parallel ridft!

 DIIS switched on: error vector is FDS-SDF
 Max. Iterations for DIIS is     :   4
 DIIS matrix (see manual) 
    Scaling factor of diagonals  :  1.200
    threshold for scaling factor :  0.000

 scf convergence criterion : increment of total energy < .1000000D-06
                  and increment of one-electron energy < .1000000D-03

  MOs are in ASCII format !


 automatic virtual orbital shift switched on 
      shift if e(lumo)-e(homo) < 0.10000000    


 reading orbital data $scfmo  from file mos
 orbital characterization : expanded
 mo provided and orthogonalized by Cholesky decomposition

 DSCF restart information will be dumped onto file mos


 Starting SCF iterations

          Overall gridpoints after grid construction =         61454

 ITERATION  ENERGY          1e-ENERGY        2e-ENERGY     NORM[dD(SAO)]  TOL
   1  -404.98058541107    -1486.7132083     603.27315584    0.000D+00 0.355D-11
                            Exc = -58.1195037119     Coul =  661.392659557    
                              N = 73.998227847    
                            current damping = 0.700
 
          max. resid. norm for Fia-block=  8.054D-01 for orbital     10a         
          max. resid. fock norm         =  6.158D+01 for orbital    709a         

 ITERATION  ENERGY          1e-ENERGY        2e-ENERGY     NORM[dD(SAO)]  TOL
   2  -406.35473876188    -1494.9982385     610.18403273    0.000D+00 0.355D-11
                            Exc = -58.7842047971     Coul =  668.968237529    
                              N = 73.998498344    
                            current damping = 0.650
 
          Norm of current diis error:  3.4777    
          max. resid. norm for Fia-block=  1.641D-01 for orbital      1a         
          max. resid. fock norm         =  3.458D-01 for orbital    533a         

 ITERATION  ENERGY          1e-ENERGY        2e-ENERGY     NORM[dD(SAO)]  TOL
   3  -406.56801927457    -1497.3033131     612.27582682    0.000D+00 0.355D-11
                            Exc = -59.1629548968     Coul =  671.438781721    
                              N = 73.998655114    
                            current damping = 0.550
 
          Norm of current diis error:  1.7081    
          max. resid. norm for Fia-block=  6.552D-02 for orbital      1a         
          max. resid. fock norm         =  6.992D-02 for orbital      1a         

 ITERATION  ENERGY          1e-ENERGY        2e-ENERGY     NORM[dD(SAO)]  TOL
   4  -406.63610441515    -1497.8043731     612.70880160    0.000D+00 0.355D-11
                            Exc = -59.2156974703     Coul =  671.924499072    
                              N = 73.998733156    
                            current damping = 0.400
 
          Norm of current diis error: 0.75525    
          max. resid. norm for Fia-block=  4.079D-02 for orbital     10a         
          max. resid. fock norm         =  8.324D-02 for orbital    534a         

 ITERATION  ENERGY          1e-ENERGY        2e-ENERGY     NORM[dD(SAO)]  TOL
   5  -406.64410488833    -1499.0363703     613.93279835    0.000D+00 0.355D-11
                            Exc = -59.3906556504     Coul =  673.323453998    
                              N = 73.998778288    
                            current damping = 0.300
 
          Norm of current diis error: 0.53853    
          max. resid. norm for Fia-block=  1.746D-02 for orbital     37a         
          max. resid. fock norm         =  2.243D-02 for orbital     36a         
          mo-orthogonalization: Cholesky decomposition

 ITERATION  ENERGY          1e-ENERGY        2e-ENERGY     NORM[dD(SAO)]  TOL
   6  -406.65250175847    -1498.7114312     613.59946242    0.000D+00 0.355D-11
                            Exc = -59.3625720628     Coul =  672.962034479    
                              N = 73.998790339    
                            current damping = 0.350
 
          Norm of current diis error: 0.13605    
          max. resid. norm for Fia-block=  5.822D-03 for orbital     36a         
          max. resid. fock norm         =  8.523D-03 for orbital     36a         

 ITERATION  ENERGY          1e-ENERGY        2e-ENERGY     NORM[dD(SAO)]  TOL
   7  -406.65283728751    -1498.7033669     613.59106254    0.000D+00 0.355D-11
                            Exc = -59.3553442024     Coul =  672.946406740    
                              N = 73.998785730    
                            current damping = 0.200
 
          Norm of current diis error: 0.76551E-01
          max. resid. norm for Fia-block=  2.152D-03 for orbital     16a         
          max. resid. fock norm         =  2.985D-03 for orbital    533a         

 ITERATION  ENERGY          1e-ENERGY        2e-ENERGY     NORM[dD(SAO)]  TOL
   8  -406.65296443264    -1498.7824984     613.67006694    0.000D+00 0.355D-11
                            Exc = -59.3673754677     Coul =  673.037442410    
                              N = 73.998790090    
                            current damping = 0.250
 
          Norm of current diis error: 0.12167E-01
          max. resid. norm for Fia-block=  2.451D-04 for orbital     30a         
          max. resid. fock norm         =  4.898D-04 for orbital    817a         

 ITERATION  ENERGY          1e-ENERGY        2e-ENERGY     NORM[dD(SAO)]  TOL
   9  -406.65296770982    -1498.7611916     613.64875680    0.000D+00 0.355D-11
                            Exc = -59.3657932466     Coul =  673.014550049    
                              N = 73.998789767    
                            current damping = 0.300
 
          Norm of current diis error: 0.52199E-02
          max. resid. norm for Fia-block=  1.981D-04 for orbital     37a         
          max. resid. fock norm         =  2.729D-04 for orbital     27a         

 ITERATION  ENERGY          1e-ENERGY        2e-ENERGY     NORM[dD(SAO)]  TOL
  10  -406.65296766095    -1498.7665590     613.65412435    0.000D+00 0.355D-11
                            Exc = -59.3657994113     Coul =  673.019923758    
                              N = 73.998789947    
                            current damping = 0.350
 
          Norm of current diis error: 0.45927E-02
          max. resid. norm for Fia-block=  1.013D-04 for orbital     36a         
          max. resid. fock norm         =  1.430D-04 for orbital    534a         
          mo-orthogonalization: Cholesky decomposition

 ITERATION  ENERGY          1e-ENERGY        2e-ENERGY     NORM[dD(SAO)]  TOL
  11  -406.65296822640    -1498.7665490     613.65411373    0.000D+00 0.355D-11
                            Exc = -59.3659353784     Coul =  673.020049111    
                              N = 73.998789897    
                            current damping = 0.400
 
          Norm of current diis error: 0.12292E-02
          max. resid. norm for Fia-block=  3.276D-05 for orbital     37a         
          max. resid. fock norm         =  4.917D-05 for orbital     27a         

 ITERATION  ENERGY          1e-ENERGY        2e-ENERGY     NORM[dD(SAO)]  TOL
  12  -406.65296826546    -1498.7669341     613.65449881    0.000D+00 0.355D-11
                            Exc = -59.3660387263     Coul =  673.020537532    
                              N = 73.998789907    
                            current damping = 0.450
 
          Norm of current diis error: 0.20505E-03
          max. resid. norm for Fia-block=  8.623D-06 for orbital     36a         
          max. resid. fock norm         =  1.157D-05 for orbital    532a         

 ITERATION  ENERGY          1e-ENERGY        2e-ENERGY     NORM[dD(SAO)]  TOL
  13  -406.65296826614    -1498.7664974     613.65406213    0.000D+00 0.355D-11
                            Exc = -59.3659975830     Coul =  673.020059717    
                              N = 73.998789891    
                            current damping = 0.500
 
          Norm of current diis error: 0.10400E-03
          max. resid. norm for Fia-block=  3.322D-06 for orbital     36a         
          max. resid. fock norm         =  4.710D-06 for orbital    766a         

 ENERGY CONVERGED !

          Overall gridpoints after grid construction =        232882

 ITERATION  ENERGY          1e-ENERGY        2e-ENERGY     NORM[dD(SAO)]  TOL
  14  -406.65298766631    -1498.7664902     613.65403546    0.000D+00 0.355D-11
                            Exc = -59.3660205348     Coul =  673.020055998    
                              N = 73.999947670    
                            current damping = 0.350
 
          Norm of current diis error: 0.29522E-04
          max. resid. norm for Fia-block=  9.278D-07 for orbital     37a         
          max. resid. fock norm         =  1.229D-06 for orbital    790a         

 End of SCF iterations

   convergence criteria satisfied after    14 iterations


                  ------------------------------------------ 
                 |  total energy      =   -406.65298766631  |
                  ------------------------------------------ 
                 :  kinetic energy    =    404.98759900780  :
                 :  potential energy  =   -811.64058667412  :
                 :  virial theorem    =      1.99590464423  :
                 :  wavefunction norm =      1.00000000000  :
                  .......................................... 


 orbitals $scfmo  will be written to file mos

    irrep                 33a         34a         35a         36a         37a   
 eigenvalues H         -0.28173    -0.27456    -0.27246    -0.24273    -0.21455
            eV          -7.6663     -7.4712     -7.4141     -6.6051     -5.8383
 occupation              2.0000      2.0000      2.0000      2.0000      2.0000 

    irrep                 38a         39a         40a         41a         42a   
 eigenvalues H         -0.02512    -0.01786     0.00855     0.01571     0.03080
            eV          -0.6836     -0.4861      0.2326      0.4274      0.8380
 
 
 
 
 ==============================================================================
                           electrostatic moments
 ==============================================================================

 reference point for electrostatic moments:    0.00000   0.00000   0.00000

 
              nuc           elec       ->  total
 ------------------------------------------------------------------------------
                          charge      
 ------------------------------------------------------------------------------
          74.000000     -74.000000      -0.000000
 
 ------------------------------------------------------------------------------
                       dipole moment  
 ------------------------------------------------------------------------------
   x      -4.039499       4.276500       0.237001
   y      -1.814135       0.565260      -1.248875
   z     296.117760    -295.851171       0.266589
 
   | dipole moment | =     1.2988 a.u. =     3.3013 debye 
 
 ------------------------------------------------------------------------------
                     quadrupole moment
 ------------------------------------------------------------------------------
  xx     660.333094    -703.033781     -42.700687
  yy     147.767753    -194.639752     -46.871999
  zz    2053.271089   -2094.312267     -41.041178
  xy      -7.467367       6.695136      -0.772231
  xz       0.264046       1.208586       1.472632
  yz      -1.093514      -9.287417     -10.380931
 
     1/3  trace=     -43.537955
     anisotropy=      18.938382
 
 ==============================================================================
 


    ------------------------------------------------------------------------
         total  cpu-time :  5 minutes and 52 seconds
         total wall-time :  1 minutes and 25 seconds
    ------------------------------------------------------------------------

   ****  ridft : all done  ****


    2019-03-12 22:48:58.632 

