Using Slurm to start processes with PMI2
STARTING ridft ON 8 PROCESSORS!
RUNNING PROGRAM /beegfs/modfac/apps/TURBOMOLE/7.0_intel_GA/bin/em64t-unknown-linux-gnu_mpi/ridft_mpi.
PLEASE WAIT UNTIL ridft HAS FINISHED.
Look for the output in slave1.output.
  this is node-proc. number 1 running on node c-15-41.local
  the total number of node-proc. spawned is            8
  parallel platform: MPP, or cluster with fast interconnect

 ridft (c-15-41.local) : TURBOMOLE V7.0.2( ) 15 Jan 2016 at 17:47:42
 Copyright (C) 2016 TURBOMOLE GmbH, Karlsruhe


    2017-11-07 10:58:36.271 



                                  r i d f t

                        DFT program with RI approximation 
                                for coulomb part 




                                                 
                                 References:     
                                                 
          TURBOMOLE:                             
              R. Ahlrichs, M. Baer, M. Haeser, H. Horn, and
              C. Koelmel
              Electronic structure calculations on workstation
              computers: the program system TURBOMOLE
              Chem. Phys. Lett. 162: 165 (1989)
          Density Functional:                              
              O. Treutler and R. Ahlrichs                      
              Efficient Molecular Numerical Integration Schemes
              J. Chem. Phys. 102: 346 (1995)                   
          Parallel Version:                                
              Performance of parallel TURBOMOLE for Density    
              Functional Calculations                          
              M. v. Arnim and R. Ahlrichs                      
              J. Comp. Chem. 19: 1746 (1998)                   
          RI-J Method:                                     
              Auxiliary Basis Sets to approximate Coulomb      
              Potentials                                       
              Chem. Phys. Lett. 240: 283 (1995)                
              K. Eichkorn, O. Treutler, H. Oehm, M. Haeser     
              and R. Ahlrichs                                  
              Chem. Phys. Lett. 242: 652 (1995)                
                                                           
              Auxiliary Basis Sets for Main Row Atoms and their
              Use to approximate Coulomb Potentials            
              K. Eichkorn, F. Weigend, O. Treutler and         
              R. Ahlrichs                                      
              Theo. Chem. Acc. 97: 119 (1997)                   
                                                           
              Accurate Coulomb-fitting basis sets for H to Rn 
              F. Weigend                                        
              Phys. Chem. Chem. Phys. 8: 1057 (2006)            
                                                           
          Multipole accelerated RI-J (MARI-J):             
              Fast evaluation of the Coulomb potential for     
              electron densities using multipole accelerated   
              resolution of identity approximation             
              M. Sierka, A. Hogekamp and R. Ahlrichs           
              J. Chem. Phys. 118: 9136 (2003)                  
          RI-JK Method:                                     
              A fully direct RI-HF algorithm: Implementation,
              optimised auxiliary basis sets, demonstration of
              accuracy and efficiency                         
              F. Weigend                                      
              Phys. Chem. Chem. Phys. 4: 4285 (2002)           
          Two-component HF and DFT with spin-orbit coupling:  
              Self-consistent treatment of spin-orbit         
              interactions with efficient Hartree-Fock and    
              density functional methods                      
              M. K. Armbruster, F. Weigend, C. van Wüllen and 
              W. Klopper                                      
              Phys. Chem. Chem. Phys. 10: 1748 (2008)         
          Relativistic all-electron 2c calculations           
              An efficient implementation of two-component    
              relativistic exact-decoupling methods for large 
              molecules                                       
              D. Peng, N. Middendorf, F. Weigend, M. Reiher   
              J. Chem. Phys. 138, 184105 (2013)               
                                         


 


              +--------------------------------------------------+
              |      general information about current run       |
              +--------------------------------------------------+

 

 SCF run will be profiled !


 DENSITY CONVERGENCE CHECK SWITCHED ON !
 SCF CONVERGENCE IF RMS(delta[D]) <     0.1000000000E-06

 TPSS meta-GGA functional
 exchange:    LDA + TPSS
 correlation: LDA (PW) + TPSS
 A DFT calculation using the RI-J approximation will be carried out.
 Allocatable memory for RI due to $ricore (MB):       12000


              +--------------------------------------------------+
              | Atomic coordinate, charge and isotop information |
              +--------------------------------------------------+

                    atomic coordinates            atom    charge  isotop
          2.49364621   -1.26507338   -8.01170292    c      0.000     0
          2.53494542    3.03706102   -7.55092609    c      0.000     0
          0.02477006   -0.35889454   -8.49808667    c      0.000     0
          0.05354870    2.30023333   -8.22058254    c      0.000     0
          4.04428682    0.83289603   -7.41509646    c      0.000     0
         -2.11573637   -1.85802927   -8.28298728    c      0.000     0
         -2.10092615    3.70349471   -7.71726855    c      0.000     0
          3.06608971   -3.72160108   -7.30561999    c      0.000     0
          3.07658939    5.28935768   -6.32617825    c      0.000     0
          6.26821327    0.69226021   -6.03061447    c      0.000     0
          5.56358485    5.31242654   -5.15102944    c      0.000     0
          5.62633899   -3.98941004   -6.35593577    c      0.000     0
         -4.41782324    2.26387163   -8.00091368    c      0.000     0
         -4.44407934   -0.40506423   -8.08372697    c      0.000     0
         -1.53700404   -4.52897138   -8.04587632    c      0.000     0
         -1.55952568    6.21887195   -6.75240052    c      0.000     0
          0.90447206   -5.42157482   -7.43472764    c      0.000     0
          0.93946502    7.01369184   -6.24791086    c      0.000     0
          7.86723999   -7.21682937   -3.05992706    c      0.000     0
          8.17695886    6.87957646   -0.87034308    c      0.000     0
          7.10287412   -1.89617824   -5.59685648    c      0.000     0
          7.12276193    3.14179954   -5.12158150    c      0.000     0
          9.20092132   -5.17035088   -2.05507463    c      0.000     0
          9.78940939    4.79436330   -1.03635388    c      0.000     0
         -9.06440282    2.65966792   -5.90122638    c      0.000     0
         -9.06573963    0.03370790   -5.61629019    c      0.000     0
         -3.90049572   -8.49833916   -5.81749655    c      0.000     0
         -2.99798165    9.82913641   -3.22365467    c      0.000     0
         -1.55268726   -9.35801588   -4.96873549    c      0.000     0
         -0.51695791   10.71240456   -3.02158206    c      0.000     0
         -1.40553142  -10.85831182   -2.79478808    c      0.000     0
          0.29967127   11.91886111   -0.82032423    c      0.000     0
         -4.69305784   10.20032059   -1.23062256    c      0.000     0
         -6.09833858   -9.06350437   -4.46955470    c      0.000     0
        -10.47767909   -1.07462187   -3.67523318    c      0.000     0
        -10.43846264    4.19129640   -4.24721889    c      0.000     0
          7.32752921   -9.32811673   -1.56877779    c      0.000     0
          7.83453253    8.10420411    1.44578185    c      0.000     0
         10.05561042   -5.25818828    0.44358680    c      0.000     0
         11.01616860    3.87941580    1.11585305    c      0.000     0
          9.13736794    7.25267803    3.56957871    c      0.000     0
          8.23575530   -9.43151682    0.90256064    c      0.000     0
          9.60562828   -7.40872947    1.89974673    c      0.000     0
         10.70972307    5.13715612    3.41024664    c      0.000     0
        -11.90711145    0.44736131   -2.07136350    c      0.000     0
        -11.88564062    3.07290575   -2.35256865    c      0.000     0
         -3.90325112   11.48500151    0.92928631    c      0.000     0
         -5.94542140  -10.59438356   -2.32917436    c      0.000     0
         -3.60833748  -11.50612407   -1.50763770    c      0.000     0
         -1.41156360   12.32818395    1.14147829    c      0.000     0
          6.64325746    8.07422270   -3.58905798    s      0.000     0
          6.99237136   -7.04024089   -6.27432210    s      0.000     0
         -7.39590085   -1.95354081   -7.73644177    s      0.000     0
         -7.29206644    3.92030701   -8.42994172    s      0.000     0
          1.25642617   -8.66208332   -6.64998729    s      0.000     0
          1.48652448   10.26088852   -5.65059781    s      0.000     0
         -3.96198999   -6.74708411   -8.65900711    s      0.000     0
         -4.07136424    8.30704510   -6.00363116    s      0.000     0
          9.94667960   -2.50492193   -3.93558814    s      0.000     0
         10.27865444    3.46001031   -4.05651299    s      0.000     0
         11.05406921   -3.65047082    1.23542481    h      0.000     0
         12.21730670    2.22315567    0.96992597    h      0.000     0
          0.42705632  -11.48462476   -2.11847706    h      0.000     0
          2.24843481   12.54102131   -0.67201645    h      0.000     0
        -10.37365401    6.22956334   -4.46768460    h      0.000     0
        -10.43516566   -3.11004814   -3.42393768    h      0.000     0
         -7.90017396   -8.32784177   -5.11691506    h      0.000     0
         -6.60310011    9.46432732   -1.37059464    h      0.000     0
          6.54253927    9.69285451    1.57447733    h      0.000     0
          6.23778648  -10.87427686   -2.36189853    h      0.000     0
         10.28319587   -7.47986520    3.83489008    h      0.000     0
         11.67854769    4.44979509    5.08308224    h      0.000     0
          8.88285948    8.21042134    5.36594648    h      0.000     0
          7.85654633  -11.08434137    2.05765752    h      0.000     0
        -12.97789182    4.25115167   -1.07621749    h      0.000     0
        -13.00367354   -0.41720566   -0.56868284    h      0.000     0
         -7.65221580  -11.06114290   -1.29055316    h      0.000     0
         -5.22464978   11.77780575    2.47095688    h      0.000     0
         -0.79302115   13.28698349    2.84680946    h      0.000     0
         -3.49323676  -12.67444632    0.17471550    h      0.000     0
         -1.90843828   -1.10953111   -2.47899975    c      6.000     0
         -0.88477137    1.42760058   -2.27544955    c      6.000     0
          0.04612128   -0.00823250   10.74299451    c      6.000     0
         -0.97953122   -2.54664483   10.53648671    c      6.000     0
          4.52442156   -4.12059109    2.55643729    c      6.000     0
         -7.41840035    0.46504368    5.49662970    c      6.000     0
          5.55675797   -1.58460992    2.76006019    c      6.000     0
         -6.39219633    3.00368800    5.70316527    c      6.000     0
         -5.11209763   -0.72442752    9.37251906    c      6.000     0
          2.26151188   -2.83381173   -1.30672004    c      6.000     0
         -4.12560297    1.71574058    9.57006614    c      6.000     0
          3.24422088   -0.39553146   -1.10990678    c      6.000     0
         -5.05687293    1.50426828   -0.75028583    c      6.000     0
          3.19060957   -2.62219920    9.00704861    c      6.000     0
         -4.77886270    3.61717241    7.70034274    c      6.000     0
         -6.79161689   -1.36243108    7.29628381    c      6.000     0
          4.92949969    0.24176816    0.96317032    c      6.000     0
          2.91952566   -4.73956220    0.55825277    c      6.000     0
         -1.34013478   -5.32235983   -0.56652507    c      6.000     0
          2.33217718    3.75970866    0.16637803    c      6.000     0
         -0.52266339    4.20841322    8.83151976    c      6.000     0
         -4.19626541   -4.87917540    8.09319431    c      6.000     0
          0.69040146   -6.27484847    1.01946632    c      6.000     0
          4.36108736    2.80726793    1.75362316    c      6.000     0
         -6.22589375   -3.93018291    6.50675513    c      6.000     0
         -2.55139221    5.15668921    7.24285672    c      6.000     0
         -2.82825853    3.04523304   -1.20596769    c      6.000     0
         -4.48439694   -1.06461555   -1.53317711    c      6.000     0
          0.96316571   -4.16213954    9.46276266    c      6.000     0
          2.62385164   -0.05475505    9.79730972    c      6.000     0
         -7.50632260   -0.19990886    2.83348901    c      6.000     0
         -5.84709580    3.90735635    3.16668214    c      6.000     0
          3.98062465   -5.02614280    5.08773501    c      6.000     0
          5.64590272   -0.91883600    5.42219554    c      6.000     0
          4.67006752   -3.04578195    6.86167131    c      6.000     0
         -6.53929642    1.92739068    1.39184273    c      6.000     0
          5.09876864    1.54974579    6.18227116    c      6.000     0
          1.84250024   -6.51212374    5.52872260    c      6.000     0
         -6.96068323   -2.66898377    2.07418997    c      6.000     0
         -3.70069100    5.37956273    2.72999475    c      6.000     0
         -3.50802676   -2.89784823    9.86460232    c      6.000     0
         -0.36745739   -3.19727290   -2.00281824    c      6.000     0
         -1.49554917    2.08099497   10.26954027    c      6.000     0
          1.64172191    1.77679519   -1.60180315    c      6.000     0
          2.50410927    5.06715275    5.38433807    c      6.000     0
          0.55474372    5.98283742    3.85740479    c      6.000     0
         -2.41479646   -7.10464826    4.39788604    c      6.000     0
         -4.36337756   -6.18615545    2.87165741    c      6.000     0
          0.30219372   -6.06768668    7.75848250    c      6.000     0
          3.55867930    1.98971429    8.41326674    c      6.000     0
         -2.16243257    4.94490661    0.49808223    c      6.000     0
         -5.42071876   -3.10998175   -0.15580111    c      6.000     0
         -3.81681029   -5.28189664    0.33763361    c      6.000     0
          0.46811856    5.32001863    1.19180773    c      6.000     0
         -2.32839900   -6.43328585    7.05950483    c      6.000     0
          1.95424188    4.16357598    7.92022028    c      6.000     0
         -2.02322924    6.02254237    4.80586109    c      6.000     0
         -6.30664721   -4.56990029    3.94625723    c      6.000     0
          0.16456496   -7.15438284    3.45149530    c      6.000     0
          4.44484104    3.44750317    4.31132710    c      6.000     0
 
       center of nuclear mass  :    0.17430634    0.07284534   -0.75663732
       center of nuclear charge:   -0.93140832   -0.55996325    4.12946717

              +--------------------------------------------------+
              |               basis set information              |
              +--------------------------------------------------+

              we will work with the 1s 3p 5d 7f 9g ... basis set
              ...i.e. with spherical basis functions...

   type   atoms  prim   cont   basis
   ---------------------------------------------------------------------------
    c      110     50     30   cc-pVTZ   [4s3p2d1f|18s5p2d1f]
    s       10    106     34   cc-pVTZ   [5s4p2d1f|41s16p2d1f]
    h       20     16     14   cc-pVTZ   [3s2p1d|5s2p1d]
   ---------------------------------------------------------------------------
   total:  140   6880   3920
   ---------------------------------------------------------------------------

   total number of primitive shells          :   94
   total number of contracted shells         : 1340
   total number of cartesian basis functions : 4540
   total number of SCF-basis functions       : 3920


 integral neglect threshold       :  0.73E-14
 integral storage threshold THIZE :  0.10E-04
 integral storage threshold THIME :         5

 RI-J AUXILIARY BASIS SET information:

              we will work with the 1s 3p 5d 7f 9g ... basis set
              ...i.e. with spherical basis functions...

   type   atoms  prim   cont   basis
   ---------------------------------------------------------------------------
    c      110     70     49   cc-pVTZ   [6s4p3d1f1g|12s5p4d2f1g]
    s       10     77     51   cc-pVTZ   [8s4p3d1f1g|14s5p5d2f1g]
    h       20     16     11   cc-pVTZ   [3s1p1d|5s2p1d]
   ---------------------------------------------------------------------------
   total:  140   8790   6120
   ---------------------------------------------------------------------------

   total number of primitive shells          :   59
   total number of contracted shells         : 1920
   total number of cartesian basis functions : 7580
   total number of SCF-basis functions       : 6120


 symmetry group of the molecule :   c1 

 the group has the following generators :
   c1(z)

    1 symmetry operations found

 there are 1 real representations :   a   

 maximum number of shells which are related by symmetry :  1


    mo occupation :
   irrep   mo's   occupied
    a     3920      180
 
 number of basis functions   :         3920
 number of occupied orbitals :          180
 
  
           ------------------
           density functional
           ------------------
 Dummy atoms with grid-point found.
 DFT quadrature threshold dgrenze tightened by factor 1/10.

 TPSS meta-GGA functional
 exchange:    LDA + TPSS
 correlation: LDA (PW) + TPSS
 Dummy atoms with grid-point found.
 DFT quadrature threshold dgrenze tightened by factor 1/10.

 Dummy atoms with grid-point found.
 DFT quadrature threshold dgrenze tightened by factor 1/10.

 grinp -> nfun, dfgga, dfhybrid 
           5 F F
 iterations will be done with small grid
  
 spherical integration : Lebedev's spherical grid
 spherical gridsize    :           5
    i.e. gridpoints    :         590
 value for diffuse not defined
 radial integration    : Chebyshev 2nd kind (scaling 3)
 radial gridsize       :           8
 integration cells     :         140
 partition function    : becke
 partition sharpness   :           3
  
 found dummy atom(s) with basis: included in dft

 <rddim> : input of entry tasksize
           from data group '$pardft' failed !

               Default values taken

 <rddim> : input of entry memdiv
           from data group '$pardft' failed !

               Default values taken
  RIDFT: memory allocation for DFT gridpoints
  MEMORY is divided by 1 as DEFAULT
 Each node can hold at most  the            1 -th part
 of the gridpoints    

 biggest AO integral is expected to be     9.679779311
  
           ------------------------
               RI-J - INFORMATION
           ------------------------
 
 
 **************************************************
 *      MEMORY ALLOCATION FOR PARALLEL RI-DFT     *
 **************************************************
 
 
MEMORY FOR (MU NU/ ALPHA), SEQUENTIAL RUN              11708 MByte
 
            DIFFERENCE IN MEMORY NEED:       DIAG./SLAVE  
 
      TOTAL DIFFERENCE :                    906 MByte
 
      difference in xcore:                  293 MByte
      difference in fatmat:                 222 MByte
      getcor calls skipped by slaves:       392 MByte
 
 
           Integral memory available for diagonal.     11708 MByte
 
           Integral memory available for slave             0 MByte
 
         MEMORY FOR (MU NU/ ALPHA) ON DIAGONALIZER     11708 MByte
 
         MEMORY FOR (MU NU/ ALPHA) ON ONE SLAVE            0 MByte
 
         TOTAL MEMORY FOR (MU NU/ ALPHA),ALL NODES     11708 MByte
 
 Contributions to RI integral batches: 
  neglected integral batches:      527398
  direct contribution:             297412
  memory contribution:       73660
 Memory core needed for (P|Q) and Cholesky    286 MByte
 Memory core minimum needed except of (P|Q)     8 MByte
 Total minimum memory core needed (sum)       294 MByte
     number of direct tasks:         160
  
 ****************************************
 Memory allocated for RI-J 12002 MByte
 ****************************************
                                            

          ------------------------
          nuclear repulsion energy  :   8326.12921790    
          ------------------------

 
          -----------------
          -S integrals
          -----------------

 1e-integrals will be neglected if expon. factor < 0.736115E-15
 
          -----------------
          -T+V integrals
          -----------------

 1e-integrals will be neglected if expon. factor < 0.736115E-15
 Difference densities >>NOT<< switched on in parallel ridft!

 automatic virtual orbital shift switched on 
      shift if e(lumo)-e(homo) < 0.10000000    


 DIIS switched on: error vector is FDS-SDF
 Max. Iterations for DIIS is     :   4
 DIIS matrix (see manual) 
    Scaling factor of diagonals  :  1.200
    threshold for scaling factor :  0.000

 scf convergence criterion : increment of total energy < .1000000D-08
                  and increment of one-electron energy < .1000000D-05


 <geterg> : there is no data group $energy 

  MOs are in ASCII format !


 reading orbital data $scfmo  from file mos . 

 orbital characterization : expanded
 
 mo provided and orthogonalized by Cholesky decomposition

 DSCF restart information will be dumped onto file mos


 Starting SCF iterations


 ITERATION  ENERGY          1e-ENERGY        2e-ENERGY     RMS[dD(SAO)]   TOL
   1  -2280.8728244388    -19563.360691     8956.3586484    0.000D+00 0.734D-14
                            Exc = -320.887521880     Coul =  9277.24617027    
                              N = 360.00109541    
                            current damping = 0.700
 
          max. resid. norm for Fia-block=  2.629D-01 for orbital     95a         
          max. resid. fock norm         =  1.466D+01 for orbital   1533a         

 ITERATION  ENERGY          1e-ENERGY        2e-ENERGY     RMS[dD(SAO)]   TOL
   2  -2285.8820713653    -19649.919549     9037.9082596    0.220D-02 0.734D-14
                            Exc = -324.978392654     Coul =  9362.88665225    
                              N = 360.00113915    
                            current damping = 0.650
 
          Norm of current diis error:  6.4423    
          max. resid. norm for Fia-block=  1.421D-01 for orbital     65a         
          max. resid. fock norm         =  1.811D-01 for orbital    287a         

 ITERATION  ENERGY          1e-ENERGY        2e-ENERGY     RMS[dD(SAO)]   TOL
   3  -2286.9292138494    -19656.950434     9043.8920021    0.791D-03 0.734D-14
                            Exc = -326.053076683     Coul =  9369.94507875    
                              N = 360.00102790    
                            current damping = 0.550
 
          Norm of current diis error:  3.2819    
          max. resid. norm for Fia-block=  6.444D-02 for orbital     65a         
          max. resid. fock norm         =  7.131D-02 for orbital     65a         

 ITERATION  ENERGY          1e-ENERGY        2e-ENERGY     RMS[dD(SAO)]   TOL
   4  -2287.2801798261    -19675.590542     9062.1811447    0.318D-03 0.734D-14
                            Exc = -326.646110083     Coul =  9388.82725477    
                              N = 360.00104130    
                            current damping = 0.450
 
          Norm of current diis error:  1.2880    
          max. resid. norm for Fia-block=  2.789D-02 for orbital     65a         
          max. resid. fock norm         =  3.127D-02 for orbital     65a         

 ITERATION  ENERGY          1e-ENERGY        2e-ENERGY     RMS[dD(SAO)]   TOL
   5  -2287.3369821141    -19673.060235     9059.5940347    0.222D-03 0.734D-14
                            Exc = -326.825734732     Coul =  9386.41976945    
                              N = 360.00098539    
                            current damping = 0.500
 
          Norm of current diis error: 0.53724    
          max. resid. norm for Fia-block=  8.813D-03 for orbital    104a         
          max. resid. fock norm         =  9.405D-03 for orbital     65a         
          mo-orthogonalization: Cholesky decomposition

 ITERATION  ENERGY          1e-ENERGY        2e-ENERGY     RMS[dD(SAO)]   TOL
   6  -2287.3474516086    -19677.869749     9064.3930798    0.721D-04 0.734D-14
                            Exc = -326.961335690     Coul =  9391.35441553    
                              N = 360.00099325    
                            current damping = 0.550
 
          Norm of current diis error: 0.16160    
          max. resid. norm for Fia-block=  3.012D-03 for orbital     68a         
          max. resid. fock norm         =  3.759D-03 for orbital    228a         

 ITERATION  ENERGY          1e-ENERGY        2e-ENERGY     RMS[dD(SAO)]   TOL
   7  -2287.3482676107    -19677.236528     9063.7590427    0.304D-04 0.734D-14
                            Exc = -326.965159292     Coul =  9390.72420198    
                              N = 360.00098629    
                            current damping = 0.600
 
          Norm of current diis error: 0.61975E-01
          max. resid. norm for Fia-block=  1.294D-03 for orbital    178a         
          max. resid. fock norm         =  2.652D-03 for orbital     64a         

 ITERATION  ENERGY          1e-ENERGY        2e-ENERGY     RMS[dD(SAO)]   TOL
   8  -2287.3482113369    -19677.295164     9063.8177347    0.124D-04 0.734D-14
                            Exc = -326.971837525     Coul =  9390.78957220    
                              N = 360.00098551    
                            current damping = 0.650
 
          Norm of current diis error: 0.72836E-01
          max. resid. norm for Fia-block=  4.851D-04 for orbital    168a         
          max. resid. fock norm         =  1.035D-03 for orbital     65a         

 ITERATION  ENERGY          1e-ENERGY        2e-ENERGY     RMS[dD(SAO)]   TOL
   9  -2287.3484005960    -19677.370267     9063.8926481    0.459D-05 0.734D-14
                            Exc = -326.975866755     Coul =  9390.86851488    
                              N = 360.00098511    
                            current damping = 0.500
 
          Norm of current diis error: 0.32330E-01
          max. resid. norm for Fia-block=  3.931D-04 for orbital    168a         
          max. resid. fock norm         =  7.268D-04 for orbital   3791a         
          irrep a   : virtual orbitals shifted by    0.00493

 ITERATION  ENERGY          1e-ENERGY        2e-ENERGY     RMS[dD(SAO)]   TOL
  10  -2287.3484421070    -19677.459765     9063.9821052    0.355D-05 0.734D-14
                            Exc = -326.978195799     Coul =  9390.96030103    
                              N = 360.00098514    
                            current damping = 0.350
 
          Norm of current diis error: 0.10898E-01
          max. resid. norm for Fia-block=  2.000D-04 for orbital    176a         
          max. resid. fock norm         =  3.481D-04 for orbital     29a         
          irrep a   : virtual orbitals shifted by    0.01471
          mo-orthogonalization: Cholesky decomposition

 ITERATION  ENERGY          1e-ENERGY        2e-ENERGY     RMS[dD(SAO)]   TOL
  11  -2287.3484397488    -19677.340159     9063.8625015    0.242D-05 0.734D-14
                            Exc = -326.976217936     Coul =  9390.83871946    
                              N = 360.00098460    
                            current damping = 0.400
 
          Norm of current diis error: 0.12637E-01
          max. resid. norm for Fia-block=  1.022D-04 for orbital    179a         
          max. resid. fock norm         =  2.415D-04 for orbital     70a         
          irrep a   : virtual orbitals shifted by    0.01162

 ITERATION  ENERGY          1e-ENERGY        2e-ENERGY     RMS[dD(SAO)]   TOL
  12  -2287.3484455069    -19677.364701     9063.8870379    0.944D-06 0.734D-14
                            Exc = -326.976658267     Coul =  9390.86369614    
                              N = 360.00098470    
                            current damping = 0.450
 
          Norm of current diis error: 0.38012E-02
          max. resid. norm for Fia-block=  4.064D-05 for orbital    151a         
          max. resid. fock norm         =  7.276D-05 for orbital     46a         
          irrep a   : virtual orbitals shifted by    0.00848

 ITERATION  ENERGY          1e-ENERGY        2e-ENERGY     RMS[dD(SAO)]   TOL
  13  -2287.3484457358    -19677.396723     9063.9190594    0.548D-06 0.734D-14
                            Exc = -326.977157369     Coul =  9390.89621674    
                              N = 360.00098486    
                            current damping = 0.300
 
          Norm of current diis error: 0.20452E-02
          max. resid. norm for Fia-block=  2.572D-05 for orbital    180a         
          max. resid. fock norm         =  6.128D-05 for orbital     46a         
          irrep a   : virtual orbitals shifted by    0.01796

 ITERATION  ENERGY          1e-ENERGY        2e-ENERGY     RMS[dD(SAO)]   TOL
  14  -2287.3484458656    -19677.395396     9063.9177318    0.235D-06 0.734D-14
                            Exc = -326.977116749     Coul =  9390.89484857    
                              N = 360.00098484    
                            current damping = 0.350
 
          Norm of current diis error: 0.96140E-03
          max. resid. norm for Fia-block=  1.188D-05 for orbital    174a         
          max. resid. fock norm         =  3.294D-05 for orbital     46a         
          irrep a   : virtual orbitals shifted by    0.01480

 ITERATION  ENERGY          1e-ENERGY        2e-ENERGY     RMS[dD(SAO)]   TOL
  15  -2287.3484458808    -19677.393590     9063.9159261    0.106D-06 0.734D-14
                            Exc = -326.977091740     Coul =  9390.89301780    
                              N = 360.00098484    
                            current damping = 0.200
 
          Norm of current diis error: 0.74129E-03
          max. resid. norm for Fia-block=  6.857D-06 for orbital    174a         
          max. resid. fock norm         =  1.567D-05 for orbital     37a         
          irrep a   : virtual orbitals shifted by    0.02427
          mo-orthogonalization: Cholesky decomposition

 DENSITY CONVERGED !


 ITERATION  ENERGY          1e-ENERGY        2e-ENERGY     RMS[dD(SAO)]   TOL
  16  -2287.3484459009    -19677.394430     9063.9167657    0.587D-07 0.734D-14
                            Exc = -326.977107682     Coul =  9390.89387340    
                              N = 360.00098484    
                            current damping = 0.250
 
          Norm of current diis error: 0.10645E-03
          max. resid. norm for Fia-block=  2.195D-06 for orbital    176a         
          max. resid. fock norm         =  5.498D-06 for orbital     47a         
          irrep a   : virtual orbitals shifted by    0.02111

 DENSITY CONVERGED !


 ITERATION  ENERGY          1e-ENERGY        2e-ENERGY     RMS[dD(SAO)]   TOL
  17  -2287.3484459002    -19677.394184     9063.9165198    0.205D-07 0.734D-14
                            Exc = -326.977104825     Coul =  9390.89362458    
                              N = 360.00098484    
                            current damping = 0.300
 
          Norm of current diis error: 0.14990E-03
          max. resid. norm for Fia-block=  1.056D-06 for orbital    168a         
          max. resid. fock norm         =  2.623D-06 for orbital     70a         
          irrep a   : virtual orbitals shifted by    0.01796

 ENERGY & DENSITY CONVERGED !


 ITERATION  ENERGY          1e-ENERGY        2e-ENERGY     RMS[dD(SAO)]   TOL
  18  -2287.3468740526    -19677.394197     9063.9181051    0.979D-08 0.734D-14
                            Exc = -326.975533289     Coul =  9390.89363843    
                              N = 359.99976312    
                            current damping = 0.350
 
          Norm of current diis error: 0.48213E-04
          max. resid. norm for Fia-block=  4.090D-07 for orbital    176a         
          max. resid. fock norm         =  8.140D-07 for orbital     38a         

 End of SCF iterations

   convergence criteria satisfied after   18 iterations


                  ------------------------------------------ 
                 |  total energy      =  -2287.34687405262  |
                  ------------------------------------------ 
                 :  kinetic energy    =   2274.02017310477  :
                 :  potential energy  =  -4561.36704715739  :
                 :  virial theorem    =      1.99417372979  :
                 :  wavefunction norm =      1.00000000000  :
                  .......................................... 


 <geterg> : there is no data group $energy 


 <skperg> : $end is missing 


 orbitals $scfmo  will be written to file mos

    irrep                176a        177a        178a        179a        180a   
 eigenvalues H         -0.21133    -0.21126    -0.21123    -0.21117    -0.21115
            eV          -5.7506     -5.7487     -5.7478     -5.7464     -5.7457
 occupation              2.0000      2.0000      2.0000      2.0000      2.0000 

    irrep                181a        182a        183a        184a        185a   
 eigenvalues H         -0.14804    -0.14799    -0.14791    -0.10694    -0.10687
            eV          -4.0284     -4.0271     -4.0248     -2.9100     -2.9082
 
 
 ! grave: sending quit signal to master process
 
 
 
 
 ==============================================================================
                           electrostatic moments
 ==============================================================================

 reference point for electrostatic moments:    0.00000   0.00000   0.00000

 
              nuc           elec       ->  total
 ------------------------------------------------------------------------------
                          charge      
 ------------------------------------------------------------------------------
         360.000000    -360.000000      -0.000000
 
 ------------------------------------------------------------------------------
                       dipole moment  
 ------------------------------------------------------------------------------
   x    -335.306995     335.296599      -0.010396
   y    -201.586768     201.580378      -0.006390
   z    1486.608182   -1486.533242       0.074940
 
   | dipole moment | =     0.0759 a.u. =     0.1930 debye 
 
 ------------------------------------------------------------------------------
                     quadrupole moment
 ------------------------------------------------------------------------------
  xx    5714.680622   -5960.646027    -245.965405
  yy    5516.367338   -5762.362806    -245.995468
  zz   11536.798746  -11782.107962    -245.309216
  xy     188.433114    -188.423097       0.010017
  xz   -1382.856193    1382.721260      -0.134932
  yz    -835.133716     835.059677      -0.074039
 
     1/3  trace=    -245.756697
     anisotropy=       0.722898
 
 ==============================================================================
 

    ridft profiling
  --------------------------------------------------------------------
             module   cpu total (s)       %  wall total (s)       %

               RIDFT         20940.1  100.00         21020.3  100.00
         Ridft_b_scf           319.0    1.52           319.5    1.52
        b_scf_prelim             0.0    0.00             0.0    0.00
        b_scf_molinp             0.0    0.00             0.0    0.00
         b_scf_init0             0.0    0.00             0.0    0.00
        b_scf_auxbas             0.0    0.00             0.0    0.00
      b_scf_symmetry             0.0    0.00             0.0    0.00
         b_scf_cosmo             0.0    0.00             0.0    0.00
        b_scf_params            12.3    0.06            12.3    0.06
          b_scf_ri-j           203.9    0.97           204.1    0.97
    b_scf_ri-j_auxpq           203.7    0.97           203.9    0.97
     ri-j_auxpq_chol            24.6    0.12            24.6    0.12
         b_scf_1elec             6.8    0.03             7.0    0.03
       b_scf_moinput            95.9    0.46            96.0    0.46
     moinput_orthmos            94.8    0.45            94.9    0.45
    b_scf_dft-dstmax             0.0    0.00             0.0    0.00
           Ridft_scf         20617.6   98.46         20697.3   98.46
          Scf_b_loop             0.0    0.00             0.0    0.00
                noga             0.0    0.00             0.0    0.00
            Scf_loop         20604.9   98.40         20682.0   98.39
     scf_loop_mkdmat            35.8    0.17            35.9    0.17
       scf_loop_ri-j          3681.7   17.58          3689.6   17.55
      parlp1.bc.dens             2.8    0.01             2.8    0.01
        parlp1.gs.gp            24.7    0.12            24.7    0.12
        parlp2.bc.gq             0.0    0.00             0.0    0.00
        scf_loop_dft         15540.3   74.21         15561.5   74.03
      pardft.bc.dens             0.0    0.00             0.0    0.00
        dft_grid_con           150.3    0.72           150.5    0.72
          dft_xcmrhf         15357.1   73.34         15378.0   73.16
          dft_getval           230.9    1.10           231.2    1.10
          funct2 dst             3.6    0.02             3.5    0.02
      funct2 f2loop1            25.7    0.12            25.6    0.12
      funct2 f2loop2           121.0    0.58           121.4    0.58
          funct2 s+c            77.8    0.37            77.9    0.37
        funct2 cmf_2            70.5    0.34            70.7    0.34
          dft_mkdens          8555.8   40.86          8567.7   40.76
        dft_mgga-fun             4.9    0.02             5.0    0.02
          dft_mkfock          6562.6   31.34          6571.5   31.26
     pardft.red.fock          1200.4    5.73          1202.1    5.72
     scf_loop_energy             0.7    0.00             0.8    0.00
     scf_loop_mkfock             1.1    0.01             1.1    0.01
       scf_loop_diis           512.5    2.45           515.4    2.45
       scf_loop_diag           527.3    2.52           528.2    2.51
         diag_tritrn           204.2    0.98           204.5    0.97
          diag_rdiag           321.0    1.53           321.6    1.53
     scf_loop_modump           186.5    0.89           230.6    1.10
      scf_loop_ortho           112.6    0.54           112.8    0.54
          Scf_a_loop            12.7    0.06            15.2    0.07
         Ridft_a_scf             3.5    0.02             3.5    0.02
         a_scf_fanal             3.2    0.02             3.2    0.02
 


    ------------------------------------------------------------------------
         total  cpu-time :  5 hours 49 minutes and 17 seconds
         total wall-time :  5 hours 50 minutes and 37 seconds
    ------------------------------------------------------------------------


   ****  ridft : all done  ****


    2017-11-07 16:49:13.436 

