           Doing BLAS/Lapack in the master proc. with  8 CPUs.
           SMPCPUS    set: Shared-memory Parallelization with   8 CPUs.

           SMP Parallelization Reference:
           C. van Wullen, J. Comput. Chem. 32 (2011) 1195--1201
 operating system is UNIX !

 ridft (c-13-13.gp.local) : TURBOMOLE V7.2 ( 21454 ) 4 Oct 2017 at 12:48:15
 Copyright (C) 2017 TURBOMOLE GmbH, Karlsruhe


    2018-04-28 20:54:52.043 



                                  r i d f t

                        DFT program with RI approximation 
                                for coulomb part 




                                                 
                                 References:     
                                                 
          TURBOMOLE:                             
              R. Ahlrichs, M. Baer, M. Haeser, H. Horn, and
              C. Koelmel
              Electronic structure calculations on workstation
              computers: the program system TURBOMOLE
              Chem. Phys. Lett. 162: 165 (1989)
          Density Functional:                              
              O. Treutler and R. Ahlrichs                      
              Efficient Molecular Numerical Integration Schemes
              J. Chem. Phys. 102: 346 (1995)                   
          Parallel Version:                                
              Performance of parallel TURBOMOLE for Density    
              Functional Calculations                          
              M. v. Arnim and R. Ahlrichs                      
              J. Comp. Chem. 19: 1746 (1998)                   
          RI-J Method:                                     
              Auxiliary Basis Sets to approximate Coulomb      
              Potentials                                       
              Chem. Phys. Lett. 240: 283 (1995)                
              K. Eichkorn, O. Treutler, H. Oehm, M. Haeser     
              and R. Ahlrichs                                  
              Chem. Phys. Lett. 242: 652 (1995)                
                                                           
              Auxiliary Basis Sets for Main Row Atoms and their
              Use to approximate Coulomb Potentials            
              K. Eichkorn, F. Weigend, O. Treutler and         
              R. Ahlrichs                                      
              Theo. Chem. Acc. 97: 119 (1997)                   
                                                           
              Accurate Coulomb-fitting basis sets for H to Rn 
              F. Weigend                                        
              Phys. Chem. Chem. Phys. 8: 1057 (2006)            
                                                           
          Multipole accelerated RI-J (MARI-J):             
              Fast evaluation of the Coulomb potential for     
              electron densities using multipole accelerated   
              resolution of identity approximation             
              M. Sierka, A. Hogekamp and R. Ahlrichs           
              J. Chem. Phys. 118: 9136 (2003)                  
          RI-JK Method:                                     
              A fully direct RI-HF algorithm: Implementation,
              optimised auxiliary basis sets, demonstration of
              accuracy and efficiency                         
              F. Weigend                                      
              Phys. Chem. Chem. Phys. 4: 4285 (2002)           
          Two-component HF and DFT with spin-orbit coupling:  
              Self-consistent treatment of spin-orbit         
              interactions with efficient Hartree-Fock and    
              density functional methods                      
              M. K. Armbruster, F. Weigend, C. van Wüllen and 
              W. Klopper                                      
              Phys. Chem. Chem. Phys. 10: 1748 (2008)         
          Relativistic all-electron 2c calculations           
              An efficient implementation of two-component    
              relativistic exact-decoupling methods for large 
              molecules                                       
              D. Peng, N. Middendorf, F. Weigend, M. Reiher   
              J. Chem. Phys. 138, 184105 (2013)               
                                         




              +--------------------------------------------------+
              |      general information about current run       |
              +--------------------------------------------------+

 

 DENSITY CONVERGENCE CHECK SWITCHED ON !
 SCF CONVERGENCE IF RMS(delta[D]) <     0.1000000000E-06

 PBE functional
 exchange:    LDA + PBE
 correlation: LDA (PW) + PBE
 A DFT calculation using the RI-J approximation will be carried out.
 Allocatable memory for RI due to $ricore (MB):                  5000


              +--------------------------------------------------+
              | Atomic coordinate, charge and isotop information |
              +--------------------------------------------------+

                    atomic coordinates            atom    charge  isotop
          2.97155929    0.48102820   -0.48467944    n      0.000     0
          1.83182474   -1.70672566    0.08414220    c      0.000     0
          3.04933562   -3.34893714    0.19340440    h      0.000     0
         -0.75240979   -1.94418636    0.53093827    c      0.000     0
         -1.54659868   -3.76383766    1.00828915    h      0.000     0
         -2.25974443    0.20136504    0.36924743    c      0.000     0
         -4.27208430    0.09361448    0.70570461    h      0.000     0
         -1.10951167    2.48954862   -0.22696639    c      0.000     0
         -2.19550694    4.21314446   -0.37881936    h      0.000     0
          1.49013850    2.53167682   -0.62784361    c      0.000     0
          2.43478365    4.28739999   -1.09325739    h      0.000     0
         -1.00859081   -2.86456333    7.26437883    n      7.000     0
         -2.77071903   -1.04923675    7.40393729    c      6.000     0
         -4.66571608   -1.67465068    7.86161548    h      1.000     0
         -2.27560504    1.50391256    7.00826760    c      6.000     0
         -3.78466050    2.87302942    7.15617853    h      1.000     0
          0.17995675    2.23947199    6.42194528    c      6.000     0
          0.63724129    4.20289457    6.08959678    h      1.000     0
          2.03105557    0.38206366    6.26441494    c      6.000     0
          3.96292494    0.84834554    5.79493709    h      1.000     0
          1.34606817   -2.12208379    6.70508584    c      6.000     0
          2.75176130   -3.60656691    6.59841345    h      1.000     0
 
       center of nuclear mass  :   -0.02310682    0.00701422    3.39272139
       center of nuclear charge:   -0.40700110   -0.27819346    6.83745950

              +--------------------------------------------------+
              |               basis set information              |
              +--------------------------------------------------+

              we will work with the 1s 3p 5d 7f 9g ... basis set
              ...i.e. with spherical basis functions...

   type   atoms  prim   cont   basis
   ---------------------------------------------------------------------------
    n        2     50     30   cc-pVTZ   [4s3p2d1f|18s5p2d1f]
    c       10     50     30   cc-pVTZ   [4s3p2d1f|18s5p2d1f]
    h       10     16     14   cc-pVTZ   [3s2p1d|5s2p1d]
   ---------------------------------------------------------------------------
   total:   22    760    500
   ---------------------------------------------------------------------------

   total number of primitive shells          :   60
   total number of contracted shells         :  180
   total number of cartesian basis functions :  570
   total number of SCF-basis functions       :  500


 integral neglect threshold       :  0.58E-13
 integral storage threshold THIZE :  0.10E-04
 integral storage threshold THIME :         5

 RI-J AUXILIARY BASIS SET information:

              we will work with the 1s 3p 5d 7f 9g ... basis set
              ...i.e. with spherical basis functions...

   type   atoms  prim   cont   basis
   ---------------------------------------------------------------------------
    n        2     70     49   cc-pVTZ   [6s4p3d1f1g|12s5p4d2f1g]
    c       10     70     49   cc-pVTZ   [6s4p3d1f1g|12s5p4d2f1g]
    h       10     16     11   cc-pVTZ   [3s1p1d|5s2p1d]
   ---------------------------------------------------------------------------
   total:   22   1000    698
   ---------------------------------------------------------------------------

   total number of primitive shells          :   56
   total number of contracted shells         :  230
   total number of cartesian basis functions :  852
   total number of SCF-basis functions       :  698


 symmetry group of the molecule :   c1 

 the group has the following generators :
   c1(z)

    1 symmetry operations found

 there are 1 real representations :   a   

 maximum number of shells which are related by symmetry :  1


    mo occupation :
   irrep   mo's   occupied
    a      500       21
 
 number of basis functions   :                    500
 number of occupied orbitals :                     21
 
  
           ------------------
           density functional
           ------------------
 Dummy atoms with grid-point found.
 DFT quadrature threshold dgrenze tightened by factor 1/10.

 PBE functional
 exchange:    LDA + PBE
 correlation: LDA (PW) + PBE
 Dummy atoms with grid-point found.
 DFT quadrature threshold dgrenze tightened by factor 1/10.

 Dummy atoms with grid-point found.
 DFT quadrature threshold dgrenze tightened by factor 1/10.


 iterations will be done with small grid
  
 spherical integration : Lebedev's spherical grid
 spherical gridsize    :                     5
    i.e. gridpoints    :                   590
 value for diffuse not defined
 radial integration    : Chebyshev 2nd kind (scaling 3)
 radial gridsize       :                     8
 integration cells     :                    22
 partition function    : becke
 partition sharpness   :                     3
  
 found dummy atom(s) with basis: included in dft

 biggest AO integral is expected to be     4.229423036
  
           ------------------------
               RI-J - INFORMATION
           ------------------------
 Contributions to RI integral batches: 
  neglected integral batches:                  2066
  direct contribution:                            0
  memory contribution:                 14224
 Memory core needed for (P|Q) and Cholesky      4 MByte
 Memory core minimum needed except of (P|Q)     2 MByte
 Total minimum memory core needed (sum)         5 MByte
  
 ****************************************
 Memory allocated for RI-J   911 MByte
 ****************************************
                                            

          ------------------------
          nuclear repulsion energy  :   206.227484353    
          ------------------------


         -----------------
         -S,T+V- integrals
         -----------------

 1e-integrals will be neglected if expon. factor < 0.586309E-14
 Difference densities >>NOT<< switched on in parallel ridft!

 DIIS switched on: error vector is FDS-SDF
 Max. Iterations for DIIS is     :   4
 DIIS matrix (see manual) 
    Scaling factor of diagonals  :  1.200
    threshold for scaling factor :  0.000

 scf convergence criterion : increment of total energy < .1000000D-08
                  and increment of one-electron energy < .1000000D-05

  MOs are in ASCII format !


 automatic virtual orbital shift switched on 
      shift if e(lumo)-e(homo) < 0.10000000    


 reading orbital data $scfmo  from file mos
 orbital characterization : expanded
 mo provided and orthogonalized by Cholesky decomposition

 DSCF restart information will be dumped onto file mos


 Starting SCF iterations

          Overall gridpoints after grid construction =        132237

 ITERATION  ENERGY          1e-ENERGY        2e-ENERGY     RMS[dD(SAO)]   TOL
   1  -247.09123987504    -732.92087640     279.60215217    0.000D+00 0.585D-13
                            Exc = -34.7884475796     Coul =  314.390599748    
                              N = 42.000049570    
                            current damping = 0.700
 
          max. resid. norm for Fia-block=  2.849D-01 for orbital     15a         
          max. resid. fock norm         =  1.342D+01 for orbital    479a         

 ITERATION  ENERGY          1e-ENERGY        2e-ENERGY     RMS[dD(SAO)]   TOL
   2  -247.86894220638    -739.25820889     285.16178233    0.244D-02 0.585D-13
                            Exc = -35.2600039964     Coul =  320.421786323    
                              N = 42.000039854    
                            current damping = 0.650
 
          Norm of current diis error:  1.9920    
          max. resid. norm for Fia-block=  1.315D-01 for orbital      1a         
          max. resid. fock norm         =  2.242D-01 for orbital    492a         

 ITERATION  ENERGY          1e-ENERGY        2e-ENERGY     RMS[dD(SAO)]   TOL
   3  -248.00064043603    -740.88771071     286.65958592    0.128D-02 0.585D-13
                            Exc = -35.4495712645     Coul =  322.109157183    
                              N = 42.000034843    
                            current damping = 0.550
 
          Norm of current diis error: 0.99255    
          max. resid. norm for Fia-block=  5.479D-02 for orbital     21a         
          max. resid. fock norm         =  6.047D-02 for orbital      7a         

 ITERATION  ENERGY          1e-ENERGY        2e-ENERGY     RMS[dD(SAO)]   TOL
   4  -248.04306714092    -741.51013422     287.23958273    0.920D-03 0.585D-13
                            Exc = -35.5031254455     Coul =  322.742708172    
                              N = 42.000031866    
                            current damping = 0.450
 
          Norm of current diis error: 0.40111    
          max. resid. norm for Fia-block=  2.748D-02 for orbital      7a         
          max. resid. fock norm         =  4.669D-02 for orbital    491a         

 ITERATION  ENERGY          1e-ENERGY        2e-ENERGY     RMS[dD(SAO)]   TOL
   5  -248.04857570644    -742.24974130     287.97368124    0.397D-03 0.585D-13
                            Exc = -35.5788495026     Coul =  323.552530738    
                              N = 42.000030000    
                            current damping = 0.350
 
          Norm of current diis error: 0.23908    
          max. resid. norm for Fia-block=  1.333D-02 for orbital     21a         
          max. resid. fock norm         =  1.418D-02 for orbital     21a         
          mo-orthogonalization: Cholesky decomposition

 ITERATION  ENERGY          1e-ENERGY        2e-ENERGY     RMS[dD(SAO)]   TOL
   6  -248.05110245801    -742.08485241     287.80626560    0.343D-03 0.585D-13
                            Exc = -35.5659977368     Coul =  323.372263336    
                              N = 42.000029694    
                            current damping = 0.400
 
          Norm of current diis error: 0.98787E-01
          max. resid. norm for Fia-block=  3.334D-03 for orbital     20a         
          max. resid. fock norm         =  7.440D-03 for orbital    492a         

 ITERATION  ENERGY          1e-ENERGY        2e-ENERGY     RMS[dD(SAO)]   TOL
   7  -248.05146087309    -742.13413203     287.85518680    0.701D-04 0.585D-13
                            Exc = -35.5707935231     Coul =  323.425980322    
                              N = 42.000029518    
                            current damping = 0.450
 
          Norm of current diis error: 0.40012E-01
          max. resid. norm for Fia-block=  1.503D-03 for orbital     13a         
          max. resid. fock norm         =  2.375D-03 for orbital    492a         

 ITERATION  ENERGY          1e-ENERGY        2e-ENERGY     RMS[dD(SAO)]   TOL
   8  -248.05151964654    -742.17592034     287.89691634    0.232D-04 0.585D-13
                            Exc = -35.5747350156     Coul =  323.471651351    
                              N = 42.000029463    
                            current damping = 0.300
 
          Norm of current diis error: 0.87597E-02
          max. resid. norm for Fia-block=  2.990D-04 for orbital     21a         
          max. resid. fock norm         =  3.674D-04 for orbital    492a         

 ITERATION  ENERGY          1e-ENERGY        2e-ENERGY     RMS[dD(SAO)]   TOL
   9  -248.05152289124    -742.17760598     287.89859874    0.796D-05 0.585D-13
                            Exc = -35.5748319630     Coul =  323.473430699    
                              N = 42.000029439    
                            current damping = 0.150
 
          Norm of current diis error: 0.16631E-02
          max. resid. norm for Fia-block=  8.837D-05 for orbital     20a         
          max. resid. fock norm         =  1.505D-04 for orbital    194a         

 ITERATION  ENERGY          1e-ENERGY        2e-ENERGY     RMS[dD(SAO)]   TOL
  10  -248.05152290020    -742.17127525     287.89226800    0.266D-05 0.585D-13
                            Exc = -35.5744400135     Coul =  323.466708014    
                              N = 42.000029448    
                            current damping = 0.200
 
          Norm of current diis error: 0.16351E-02
          max. resid. norm for Fia-block=  5.433D-05 for orbital     20a         
          max. resid. fock norm         =  7.142D-05 for orbital    490a         
          mo-orthogonalization: Cholesky decomposition

 ITERATION  ENERGY          1e-ENERGY        2e-ENERGY     RMS[dD(SAO)]   TOL
  11  -248.05152298487    -742.17412560     287.89511826    0.116D-05 0.585D-13
                            Exc = -35.5746253919     Coul =  323.469743649    
                              N = 42.000029443    
                            current damping = 0.250
 
          Norm of current diis error: 0.72768E-03
          max. resid. norm for Fia-block=  2.825D-05 for orbital     19a         
          max. resid. fock norm         =  4.590D-05 for orbital    492a         

 ITERATION  ENERGY          1e-ENERGY        2e-ENERGY     RMS[dD(SAO)]   TOL
  12  -248.05152300229    -742.17436690     287.89535954    0.660D-06 0.585D-13
                            Exc = -35.5746282367     Coul =  323.469987779    
                              N = 42.000029442    
                            current damping = 0.100
 
          Norm of current diis error: 0.35449E-03
          max. resid. norm for Fia-block=  1.220D-05 for orbital     19a         
          max. resid. fock norm         =  2.001D-05 for orbital    492a         

 ITERATION  ENERGY          1e-ENERGY        2e-ENERGY     RMS[dD(SAO)]   TOL
  13  -248.05152300694    -742.17462797     287.89562061    0.273D-06 0.585D-13
                            Exc = -35.5746549664     Coul =  323.470275577    
                              N = 42.000029442    
                            current damping = 0.050
 
          Norm of current diis error: 0.12292E-03
          max. resid. norm for Fia-block=  5.073D-06 for orbital     19a         
          max. resid. fock norm         =  6.975D-06 for orbital    492a         

 ITERATION  ENERGY          1e-ENERGY        2e-ENERGY     RMS[dD(SAO)]   TOL
  14  -248.05152300738    -742.17428243     287.89527507    0.126D-06 0.585D-13
                            Exc = -35.5746285378     Coul =  323.469903610    
                              N = 42.000029442    
                            current damping = 0.100
 
          Norm of current diis error: 0.69979E-04
          max. resid. norm for Fia-block=  2.108D-06 for orbital     19a         
          max. resid. fock norm         =  2.606D-06 for orbital     17a         

 DENSITY CONVERGED !


 ITERATION  ENERGY          1e-ENERGY        2e-ENERGY     RMS[dD(SAO)]   TOL
  15  -248.05152300757    -742.17440220     287.89539484    0.452D-07 0.585D-13
                            Exc = -35.5746371692     Coul =  323.470032008    
                              N = 42.000029442    
                            current damping = 0.150
 
          Norm of current diis error: 0.14062E-04
          max. resid. norm for Fia-block=  7.328D-07 for orbital     20a         
          max. resid. fock norm         =  1.173D-06 for orbital    493a         
          mo-orthogonalization: Cholesky decomposition

 DENSITY CONVERGED !


 ITERATION  ENERGY          1e-ENERGY        2e-ENERGY     RMS[dD(SAO)]   TOL
  16  -248.05152300756    -742.17442055     287.89541319    0.143D-07 0.585D-13
                            Exc = -35.5746382717     Coul =  323.470051463    
                              N = 42.000029442    
                            current damping = 0.050
 
          Norm of current diis error: 0.14088E-04
          max. resid. norm for Fia-block=  3.124D-07 for orbital     20a         
          max. resid. fock norm         =  5.194D-07 for orbital    493a         

 ENERGY & DENSITY CONVERGED !

          Overall gridpoints after grid construction =        346707

 ITERATION  ENERGY          1e-ENERGY        2e-ENERGY     RMS[dD(SAO)]   TOL
  17  -248.05150522846    -742.17441206     287.89542248    0.757D-08 0.585D-13
                            Exc = -35.5746201826     Coul =  323.470042661    
                              N = 42.000006353    
                            current damping = 0.100
 
          Norm of current diis error: 0.33978E-05
          max. resid. norm for Fia-block=  1.294D-07 for orbital     20a         
          max. resid. fock norm         =  1.940D-07 for orbital    493a         

 End of SCF iterations

   convergence criteria satisfied after    17 iterations


                  ------------------------------------------ 
                 |  total energy      =   -248.05150522846  |
                  ------------------------------------------ 
                 :  kinetic energy    =    246.49175269521  :
                 :  potential energy  =   -494.54325792367  :
                 :  virial theorem    =      1.99371198118  :
                 :  wavefunction norm =      1.00000000000  :
                  .......................................... 


 <geterg> : there is no data group $energy 


 <skperg> : $end is missing 


 orbitals $scfmo  will be written to file mos

    irrep                 17a         18a         19a         20a         21a   
 eigenvalues H         -0.36004    -0.32198    -0.26673    -0.24446    -0.21540
            eV          -9.7971     -8.7617     -7.2582     -6.6522     -5.8614
 occupation              2.0000      2.0000      2.0000      2.0000      2.0000 

    irrep                 22a         23a         24a         25a         26a   
 eigenvalues H         -0.06574    -0.05237     0.01162     0.04252     0.04986
            eV          -1.7888     -1.4251      0.3163      1.1570      1.3567
 
 
 
 
 ==============================================================================
                           electrostatic moments
 ==============================================================================

 reference point for electrostatic moments:    0.00000   0.00000   0.00000

 
              nuc           elec       ->  total
 ------------------------------------------------------------------------------
                          charge      
 ------------------------------------------------------------------------------
          42.000000     -42.000000      -0.000000
 
 ------------------------------------------------------------------------------
                       dipole moment  
 ------------------------------------------------------------------------------
   x     -17.094046      17.281599       0.187553
   y     -11.684125      12.492627       0.808502
   z     287.173299    -287.288768      -0.115469
 
   | dipole moment | =     0.8380 a.u. =     2.1299 debye 
 
 ------------------------------------------------------------------------------
                     quadrupole moment
 ------------------------------------------------------------------------------
  xx     179.844788    -202.554835     -22.710048
  yy     178.052739    -205.167248     -27.114509
  zz    1972.877157   -2002.222874     -29.345717
  xy       0.124148      -1.675379      -1.551231
  xz    -151.394945     151.765523       0.370578
  yz     -99.651499     105.278232       5.626732
 
     1/3  trace=     -26.390091
     anisotropy=      11.696843
 
 ==============================================================================
 


    ------------------------------------------------------------------------
         total  cpu-time :  7 minutes and 28 seconds
         total wall-time :  1 minutes and  6 seconds
    ------------------------------------------------------------------------

   ****  ridft : all done  ****


    2018-04-28 20:55:57.656 

