Using OpenMPI from /sopt/mpi/openmpi-1.8.6/intel_15.0.3/bin/mpiexec
STARTING ridft ON 8 PROCESSORS!
RUNNING PROGRAM /beegfs/modfac/apps/TURBOMOLE/7.0_intel/bin/em64t-unknown-linux-gnu_mpi/ridft_mpi.
PLEASE WAIT UNTIL ridft HAS FINISHED.
Look for the output in slave1.output.
  this is node-proc. number 1 running on node c-7-11.local
  the total number of node-proc. spawned is            7
  parallel platform: MPP, or cluster with fast interconnect

 ridft (c-7-11.local) : TURBOMOLE V7.0( ) 6 Jul 2015 at 19:34:44
 Copyright (C) 2015 TURBOMOLE GmbH, Karlsruhe


    2017-11-09 01:48:38.975 



                                  r i d f t

                        DFT program with RI approximation 
                                for coulomb part 




                                                 
                                 References:     
                                                 
          TURBOMOLE:                             
              R. Ahlrichs, M. Baer, M. Haeser, H. Horn, and
              C. Koelmel
              Electronic structure calculations on workstation
              computers: the program system TURBOMOLE
              Chem. Phys. Lett. 162: 165 (1989)
          Density Functional:                              
              O. Treutler and R. Ahlrichs                      
              Efficient Molecular Numerical Integration Schemes
              J. Chem. Phys. 102: 346 (1995)                   
          Parallel Version:                                
              Performance of parallel TURBOMOLE for Density    
              Functional Calculations                          
              M. v. Arnim and R. Ahlrichs                      
              J. Comp. Chem. 19: 1746 (1998)                   
          RI-J Method:                                     
              Auxiliary Basis Sets to approximate Coulomb      
              Potentials                                       
              Chem. Phys. Lett. 240: 283 (1995)                
              K. Eichkorn, O. Treutler, H. Oehm, M. Haeser     
              and R. Ahlrichs                                  
              Chem. Phys. Lett. 242: 652 (1995)                
                                                           
              Auxiliary Basis Sets for Main Row Atoms and their
              Use to approximate Coulomb Potentials            
              K. Eichkorn, F. Weigend, O. Treutler and         
              R. Ahlrichs                                      
              Theo. Chem. Acc. 97: 119 (1997)                   
                                                           
              Accurate Coulomb-fitting basis sets for H to Rn 
              F. Weigend                                        
              Phys. Chem. Chem. Phys. 8: 1057 (2006)            
                                                           
          Multipole accelerated RI-J (MARI-J):             
              Fast evaluation of the Coulomb potential for     
              electron densities using multipole accelerated   
              resolution of identity approximation             
              M. Sierka, A. Hogekamp and R. Ahlrichs           
              J. Chem. Phys. 118: 9136 (2003)                  
          RI-JK Method:                                     
              A fully direct RI-HF algorithm: Implementation,
              optimised auxiliary basis sets, demonstration of
              accuracy and efficiency                         
              F. Weigend                                      
              Phys. Chem. Chem. Phys. 4: 4285 (2002)           
          Two-component HF and DFT with spin-orbit coupling:  
              Self-consistent treatment of spin-orbit         
              interactions with efficient Hartree-Fock and    
              density functional methods                      
              M. K. Armbruster, F. Weigend, C. van Wüllen and 
              W. Klopper                                      
              Phys. Chem. Chem. Phys. 10: 1748 (2008)         
          Relativistic all-electron 2c calculations           
              An efficient implementation of two-component    
              relativistic exact-decoupling methods for large 
              molecules                                       
              D. Peng, N. Middendorf, F. Weigend, M. Reiher   
              J. Chem. Phys. 138, 184105 (2013)               
                                         


 


              +--------------------------------------------------+
              |      general information about current run       |
              +--------------------------------------------------+

 

 SCF run will be profiled !


 DENSITY CONVERGENCE CHECK SWITCHED ON !
 SCF CONVERGENCE IF RMS(delta[D]) <     0.1000000000E-06

 PBE functional
 exchange:    LDA + PBE
 correlation: LDA (PW) + PBE
 A DFT calculation using the RI-J approximation will be carried out.
 Allocatable memory for RI due to $ricore (MB):       13000


              +--------------------------------------------------+
              | Atomic coordinate, charge and isotop information |
              +--------------------------------------------------+

                    atomic coordinates            atom    charge  isotop
         12.63968419   -1.83655794    3.92503315    c      6.000     0
         -2.25399146   12.40612891   -3.12066365    c      6.000     0
         -3.48368066   13.22846418   -0.60607139    c      6.000     0
         13.36855989   -3.13342015    1.41975574    c      6.000     0
         13.97392769   -7.34067937   -0.86157106    c      6.000     0
         -7.55426512   13.28346425    1.98199251    c      6.000     0
         13.30824364   -6.01964491    1.62749182    c      6.000     0
         -6.30493728   12.58972413   -0.53497677    c      6.000     0
        -10.34524069   12.51900230    2.10836032    c      6.000     0
         14.04132936  -10.22875399   -0.64875191    c      6.000     0
         14.72168977  -11.52775376   -3.14435584    c      6.000     0
        -11.58322160   13.19003954    4.63749760    c      6.000     0
          7.26214364    7.44334532    0.37389783    c      6.000     0
         10.16900072    4.55782325    1.94636797    c      6.000     0
          4.24800977   10.20874905   -1.22059478    c      6.000     0
          9.16168310    9.35774791    0.24027616    c      6.000     0
         11.61194538    8.75852692    1.10109994    c      6.000     0
          8.47896153   11.73926330   -0.74813770    c      6.000     0
         10.60486617    2.07438114    2.65105425    n      7.000     0
          1.73236142   10.57117648   -1.81951641    n      7.000     0
         12.13905716    6.38497262    1.98520579    c      6.000     0
          6.05033859   12.18380976   -1.51511733    c      6.000     0
          0.60239562   12.62401322   -3.02594406    c      6.000     0
         12.77489485    1.02124647    3.69303787    c      6.000     0
          7.80093094    5.06240661    1.19259591    n      7.000     0
          4.82721126    7.90900287   -0.31723420    n      7.000     0
         14.64992682    2.23066688    4.31888007    o      8.000     0
          1.76594450   14.43289904   -3.88621635    o      8.000     0
          9.19505083    0.80703403    2.16408589    h      1.000     0
          0.49632027    9.21113866   -1.13922482    h      1.000     0
          5.43530276   13.96437471   -2.30404862    h      1.000     0
         13.97993125    5.83472281    2.67676001    h      1.000     0
         13.07579932   10.19974803    1.04611361    h      1.000     0
          9.90377742   13.21344517   -0.88841710    h      1.000     0
         -2.91254854   13.60269064   -4.67039156    h      1.000     0
         13.95961291   -2.38172896    5.41848586    h      1.000     0
         15.26671000   -2.51128256    0.86308818    h      1.000     0
         -3.18482075   15.26241626   -0.33449921    h      1.000     0
         12.05748428   -2.52518601   -0.06348195    h      1.000     0
         -2.54586542   12.25097943    0.95956155    h      1.000     0
         10.73009588   -2.43068121    4.45869432    h      1.000     0
         -2.79791835   10.44590615   -3.50501026    h      1.000     0
         -7.28459629   13.55917050   -2.09007228    h      1.000     0
         14.62959816   -6.63315295    3.10817161    h      1.000     0
         15.82367965   -6.66555720   -1.52311534    h      1.000     0
         -7.38058693   15.32788463    2.31296876    h      1.000     0
         -6.52495050   12.34861439    3.52492410    h      1.000     0
         12.60013600   -6.78666795   -2.31839087    h      1.000     0
         -6.52253530   10.55226821   -0.85722649    h      1.000     0
         11.41668948   -6.61728103    2.24164106    h      1.000     0
        -11.37841425   13.44195115    0.56151620    h      1.000     0
         15.41363989  -10.76848144    0.81223270    h      1.000     0
         12.19562020  -10.91181945    0.01013425    h      1.000     0
        -10.49590847   10.47589912    1.77858520    h      1.000     0
         16.59198942  -10.92861203   -3.80327060    h      1.000     0
        -11.49826031   15.23065722    4.98852070    h      1.000     0
        -10.61625845   12.24282217    6.20606934    h      1.000     0
         13.35336099  -11.05391683   -4.62501508    h      1.000     0
        -13.57341553   12.62074745    4.68274997    h      1.000     0
         14.75042165  -13.58771607   -2.94257793    h      1.000     0
 
       center of nuclear mass  :    5.78698282    5.75119844    0.42438392
       center of nuclear charge:    5.66539841    5.61478245    0.43193347

              +--------------------------------------------------+
              |               basis set information              |
              +--------------------------------------------------+

              we will work with the 1s 3p 5d 7f 9g ... basis set
              ...i.e. with spherical basis functions...

   type   atoms  prim   cont   basis
   ---------------------------------------------------------------------------
    c       22     50     30   cc-pVTZ   [4s3p2d1f|18s5p2d1f]
    n        4     50     30   cc-pVTZ   [4s3p2d1f|18s5p2d1f]
    o        2     50     30   cc-pVTZ   [4s3p2d1f|18s5p2d1f]
    h       32     16     14   cc-pVTZ   [3s2p1d|5s2p1d]
   ---------------------------------------------------------------------------
   total:   60   1912   1288
   ---------------------------------------------------------------------------

   total number of primitive shells          :   86
   total number of contracted shells         :  472
   total number of cartesian basis functions : 1460
   total number of SCF-basis functions       : 1288


 integral neglect threshold       :  0.23E-13
 integral storage threshold THIZE :  0.10E-04
 integral storage threshold THIME :         5

 RI-J AUXILIARY BASIS SET information:

              we will work with the 1s 3p 5d 7f 9g ... basis set
              ...i.e. with spherical basis functions...

   type   atoms  prim   cont   basis
   ---------------------------------------------------------------------------
    c       22     70     49   cc-pVTZ   [6s4p3d1f1g|12s5p4d2f1g]
    n        4     70     49   cc-pVTZ   [6s4p3d1f1g|12s5p4d2f1g]
    o        2     70     49   cc-pVTZ   [6s4p3d1f1g|12s5p4d2f1g]
    h       32     16     11   cc-pVTZ   [3s1p1d|5s2p1d]
   ---------------------------------------------------------------------------
   total:   60   2472   1724
   ---------------------------------------------------------------------------

   total number of primitive shells          :   80
   total number of contracted shells         :  580
   total number of cartesian basis functions : 2092
   total number of SCF-basis functions       : 1724


 symmetry group of the molecule :   c1 

 the group has the following generators :
   c1(z)

    1 symmetry operations found

 there are 1 real representations :   a   

 maximum number of shells which are related by symmetry :  1


    mo occupation :
   irrep   mo's   occupied
    a     1288      104
 
 number of basis functions   :         1288
 number of occupied orbitals :          104
 
  
           ------------------
           density functional
           ------------------
 PBE functional
 exchange:    LDA + PBE
 correlation: LDA (PW) + PBE
 grinp -> nfun, dfgga, dfhybrid 
           6 T F
 iterations will be done with small grid
  
 spherical integration : Lebedev's spherical grid
 spherical gridsize    :           5
    i.e. gridpoints    :         590
 value for diffuse not defined
 radial integration    : Chebyshev 2nd kind (scaling 3)
 radial gridsize       :           8
 integration cells     :          60
 partition function    : becke
 partition sharpness   :           3
  

 <rddim> : input of entry tasksize
           from data group '$pardft' failed !

               Default values taken

 <rddim> : input of entry memdiv
           from data group '$pardft' failed !

               Default values taken
  RIDFT: memory allocation for DFT gridpoints
  MEMORY is divided by 1 as DEFAULT
 Each node can hold at most  the            1 -th part
 of the gridpoints    

 biggest AO integral is expected to be     4.866064444
  
           ------------------------
               RI-J - INFORMATION
           ------------------------
 
 
 **************************************************
 *      MEMORY ALLOCATION FOR PARALLEL RI-DFT     *
 **************************************************
 
 
MEMORY FOR (MU NU/ ALPHA), SEQUENTIAL RUN              12977 MByte
 
            DIFFERENCE IN MEMORY NEED:       DIAG./SLAVE  
 
      TOTAL DIFFERENCE :                     90 MByte
 
      difference in xcore:                   24 MByte
      difference in fatmat:                  25 MByte
      getcor calls skipped by slaves:        42 MByte
 
 
           Integral memory available for diagonal.     12977 MByte
 
           Integral memory available for slave             0 MByte
 
         MEMORY FOR (MU NU/ ALPHA) ON DIAGONALIZER     12977 MByte
 
         MEMORY FOR (MU NU/ ALPHA) ON ONE SLAVE            0 MByte
 
         TOTAL MEMORY FOR (MU NU/ ALPHA),ALL NODES     12977 MByte
 
 Contributions to RI integral batches: 
  neglected integral batches:       68957
  direct contribution:                  0
  memory contribution:       42671
 Memory core needed for (P|Q) and Cholesky     23 MByte
 Memory core minimum needed except of (P|Q)     5 MByte
 Total minimum memory core needed (sum)        27 MByte
  
 ****************************************
 Memory allocated for RI-J 13003 MByte
 ****************************************
                                            

          ------------------------
          nuclear repulsion energy  :   2309.76223614    
          ------------------------

 
          -----------------
          -S integrals
          -----------------

 1e-integrals will be neglected if expon. factor < 0.228901E-14
 
          -----------------
          -T+V integrals
          -----------------

 1e-integrals will be neglected if expon. factor < 0.228901E-14
 Difference densities >>NOT<< switched on in parallel ridft!

 automatic virtual orbital shift switched on 
      shift if e(lumo)-e(homo) < 0.10000000    


 DIIS switched on: error vector is FDS-SDF
 Max. Iterations for DIIS is     :   4
 DIIS matrix (see manual) 
    Scaling factor of diagonals  :  1.200
    threshold for scaling factor :  0.000

 scf convergence criterion : increment of total energy < .1000000D-08
                  and increment of one-electron energy < .1000000D-05


 <geterg> : there is no data group $energy 

  MOs are in ASCII format !


 reading orbital data $scfmo  from file mos . 

 orbital characterization : expanded
 
 mo provided and orthogonalized by Cholesky decomposition

 DSCF restart information will be dumped onto file mos


 Starting SCF iterations


 ITERATION  ENERGY          1e-ENERGY        2e-ENERGY     RMS[dD(SAO)]   TOL
   1  -1221.3351520595    -6213.1628398     2682.0654516    0.000D+00 0.228D-13
                            Exc = -171.730374937     Coul =  2853.79582654    
                              N = 208.00001476    
                            current damping = 0.700
 
          max. resid. norm for Fia-block=  3.679D-01 for orbital     69a         
          max. resid. fock norm         =  4.262D+00 for orbital   1185a         

 ITERATION  ENERGY          1e-ENERGY        2e-ENERGY     RMS[dD(SAO)]   TOL
   2  -1225.1842613540    -6239.7740167     2704.8275192    0.206D-02 0.228D-13
                            Exc = -173.263919181     Coul =  2878.09143837    
                              N = 207.99999695    
                            current damping = 0.650
 
          Norm of current diis error:  4.1253    
          max. resid. norm for Fia-block=  1.545D-01 for orbital      1a         
          max. resid. fock norm         =  3.404D-01 for orbital   1262a         

 ITERATION  ENERGY          1e-ENERGY        2e-ENERGY     RMS[dD(SAO)]   TOL
   3  -1225.7914135770    -6248.2601498     2712.7065001    0.118D-02 0.228D-13
                            Exc = -174.255945977     Coul =  2886.96244611    
                              N = 207.99998703    
                            current damping = 0.550
 
          Norm of current diis error:  2.0408    
          max. resid. norm for Fia-block=  6.309D-02 for orbital      1a         
          max. resid. fock norm         =  6.736D-02 for orbital      1a         

 ITERATION  ENERGY          1e-ENERGY        2e-ENERGY     RMS[dD(SAO)]   TOL
   4  -1225.9803730058    -6250.3057958     2714.5631866    0.954D-03 0.228D-13
                            Exc = -174.329686196     Coul =  2888.89287281    
                              N = 207.99997867    
                            current damping = 0.450
 
          Norm of current diis error: 0.90861    
          max. resid. norm for Fia-block=  3.669D-02 for orbital    104a         
          max. resid. fock norm         =  7.804D-02 for orbital   1247a         

 ITERATION  ENERGY          1e-ENERGY        2e-ENERGY     RMS[dD(SAO)]   TOL
   5  -1226.0068378786    -6252.8567031     2717.0876290    0.396D-03 0.228D-13
                            Exc = -174.720951834     Coul =  2891.80858087    
                              N = 207.99997856    
                            current damping = 0.350
 
          Norm of current diis error: 0.59419    
          max. resid. norm for Fia-block=  1.712D-02 for orbital    100a         
          max. resid. fock norm         =  1.981D-02 for orbital    100a         
          mo-orthogonalization: Cholesky decomposition

 ITERATION  ENERGY          1e-ENERGY        2e-ENERGY     RMS[dD(SAO)]   TOL
   6  -1226.0226175685    -6253.2390975     2717.4542438    0.274D-03 0.228D-13
                            Exc = -174.693565417     Coul =  2892.14780926    
                              N = 207.99997678    
                            current damping = 0.200
 
          Norm of current diis error: 0.21892    
          max. resid. norm for Fia-block=  7.304D-03 for orbital    100a         
          max. resid. fock norm         =  9.945D-03 for orbital   1248a         

 ITERATION  ENERGY          1e-ENERGY        2e-ENERGY     RMS[dD(SAO)]   TOL
   7  -1226.0228968506    -6252.6458115     2716.8606785    0.152D-03 0.228D-13
                            Exc = -174.665561072     Coul =  2891.52623954    
                              N = 207.99997746    
                            current damping = 0.250
 
          Norm of current diis error: 0.20645    
          max. resid. norm for Fia-block=  4.510D-03 for orbital    101a         
          max. resid. fock norm         =  7.202D-03 for orbital   1287a         

 ITERATION  ENERGY          1e-ENERGY        2e-ENERGY     RMS[dD(SAO)]   TOL
   8  -1226.0246481449    -6253.0086647     2717.2217805    0.670D-04 0.228D-13
                            Exc = -174.686607170     Coul =  2891.90838763    
                              N = 207.99997705    
                            current damping = 0.300
 
          Norm of current diis error: 0.63043E-01
          max. resid. norm for Fia-block=  1.579D-03 for orbital     97a         
          max. resid. fock norm         =  3.692D-03 for orbital   1282a         

 ITERATION  ENERGY          1e-ENERGY        2e-ENERGY     RMS[dD(SAO)]   TOL
   9  -1226.0247380667    -6253.0557871     2717.2688129    0.232D-04 0.228D-13
                            Exc = -174.702342448     Coul =  2891.97115530    
                              N = 207.99997702    
                            current damping = 0.150
 
          Norm of current diis error: 0.41434E-01
          max. resid. norm for Fia-block=  8.689D-04 for orbital    102a         
          max. resid. fock norm         =  1.306D-03 for orbital   1282a         

 ITERATION  ENERGY          1e-ENERGY        2e-ENERGY     RMS[dD(SAO)]   TOL
  10  -1226.0248025155    -6253.0512461     2717.2642075    0.134D-04 0.228D-13
                            Exc = -174.693851129     Coul =  2891.95805862    
                              N = 207.99997706    
                            current damping = 0.200
 
          Norm of current diis error: 0.15495E-01
          max. resid. norm for Fia-block=  3.589D-04 for orbital    102a         
          max. resid. fock norm         =  5.880D-04 for orbital   1256a         
          mo-orthogonalization: Cholesky decomposition

 ITERATION  ENERGY          1e-ENERGY        2e-ENERGY     RMS[dD(SAO)]   TOL
  11  -1226.0248111732    -6253.0318618     2717.2448145    0.542D-05 0.228D-13
                            Exc = -174.694699503     Coul =  2891.93951399    
                              N = 207.99997706    
                            current damping = 0.050
 
          Norm of current diis error: 0.66789E-02
          max. resid. norm for Fia-block=  1.559D-04 for orbital     98a         
          max. resid. fock norm         =  2.290D-04 for orbital     82a         

 ITERATION  ENERGY          1e-ENERGY        2e-ENERGY     RMS[dD(SAO)]   TOL
  12  -1226.0248120880    -6253.0434595     2717.2564113    0.278D-05 0.228D-13
                            Exc = -174.694963276     Coul =  2891.95137458    
                              N = 207.99997704    
                            current damping = 0.100
 
          Norm of current diis error: 0.50211E-02
          max. resid. norm for Fia-block=  8.712D-05 for orbital     98a         
          max. resid. fock norm         =  1.745D-04 for orbital   1279a         

 ITERATION  ENERGY          1e-ENERGY        2e-ENERGY     RMS[dD(SAO)]   TOL
  13  -1226.0248130051    -6253.0392752     2717.2522261    0.157D-05 0.228D-13
                            Exc = -174.694618114     Coul =  2891.94684418    
                              N = 207.99997705    
                            current damping = 0.150
 
          Norm of current diis error: 0.16577E-02
          max. resid. norm for Fia-block=  4.255D-05 for orbital    100a         
          max. resid. fock norm         =  6.850D-05 for orbital   1279a         

 ITERATION  ENERGY          1e-ENERGY        2e-ENERGY     RMS[dD(SAO)]   TOL
  14  -1226.0248130678    -6253.0396900     2717.2526408    0.773D-06 0.228D-13
                            Exc = -174.694796212     Coul =  2891.94743701    
                              N = 207.99997705    
                            current damping = 0.200
 
          Norm of current diis error: 0.11337E-02
          max. resid. norm for Fia-block=  2.242D-05 for orbital     99a         
          max. resid. fock norm         =  3.262D-05 for orbital   1264a         

 ITERATION  ENERGY          1e-ENERGY        2e-ENERGY     RMS[dD(SAO)]   TOL
  15  -1226.0248131210    -6253.0393359     2717.2522867    0.383D-06 0.228D-13
                            Exc = -174.694739996     Coul =  2891.94702668    
                              N = 207.99997705    
                            current damping = 0.250
 
          Norm of current diis error: 0.28854E-03
          max. resid. norm for Fia-block=  7.997D-06 for orbital    100a         
          max. resid. fock norm         =  1.288D-05 for orbital    103a         
          mo-orthogonalization: Cholesky decomposition

 ITERATION  ENERGY          1e-ENERGY        2e-ENERGY     RMS[dD(SAO)]   TOL
  16  -1226.0248131219    -6253.0397475     2717.2526982    0.130D-06 0.228D-13
                            Exc = -174.694721817     Coul =  2891.94742002    
                              N = 207.99997705    
                            current damping = 0.300
 
          Norm of current diis error: 0.24262E-03
          max. resid. norm for Fia-block=  5.093D-06 for orbital    102a         
          max. resid. fock norm         =  8.843D-06 for orbital    103a         

 DENSITY CONVERGED !


 ITERATION  ENERGY          1e-ENERGY        2e-ENERGY     RMS[dD(SAO)]   TOL
  17  -1226.0248131244    -6253.0394441     2717.2523948    0.797D-07 0.228D-13
                            Exc = -174.694732543     Coul =  2891.94712736    
                              N = 207.99997705    
                            current damping = 0.350
 
          Norm of current diis error: 0.71149E-04
          max. resid. norm for Fia-block=  2.238D-06 for orbital    104a         
          max. resid. fock norm         =  3.329D-06 for orbital   1269a         

 DENSITY CONVERGED !


 ITERATION  ENERGY          1e-ENERGY        2e-ENERGY     RMS[dD(SAO)]   TOL
  18  -1226.0248131246    -6253.0395314     2717.2524822    0.234D-07 0.228D-13
                            Exc = -174.694733156     Coul =  2891.94721533    
                              N = 207.99997705    
                            current damping = 0.400
 
          Norm of current diis error: 0.26033E-04
          max. resid. norm for Fia-block=  7.115D-07 for orbital    104a         
          max. resid. fock norm         =  1.084D-06 for orbital   1266a         

 ENERGY & DENSITY CONVERGED !


 ITERATION  ENERGY          1e-ENERGY        2e-ENERGY     RMS[dD(SAO)]   TOL
  19  -1226.0248136725    -6253.0395131     2717.2524632    0.884D-08 0.228D-13
                            Exc = -174.694732637     Coul =  2891.94719589    
                              N = 208.00000561    
                            current damping = 0.450
 
          Norm of current diis error: 0.11454E-04
          max. resid. norm for Fia-block=  2.787D-07 for orbital     98a         
          max. resid. fock norm         =  4.531D-07 for orbital   1285a         

 End of SCF iterations

   convergence criteria satisfied after   19 iterations


                  ------------------------------------------ 
                 |  total energy      =  -1226.02481367246  |
                  ------------------------------------------ 
                 :  kinetic energy    =   1217.76121044573  :
                 :  potential energy  =  -2443.78602411819  :
                 :  virial theorem    =      1.99325984015  :
                 :  wavefunction norm =      1.00000000000  :
                  .......................................... 


 <geterg> : there is no data group $energy 


 <skperg> : $end is missing 


 orbitals $scfmo  will be written to file mos

    irrep                100a        101a        102a        103a        104a   
 eigenvalues H         -0.22091    -0.21967    -0.21632    -0.21528    -0.20567
            eV          -6.0112     -5.9775     -5.8864     -5.8580     -5.5966
 occupation              2.0000      2.0000      2.0000      2.0000      2.0000 

    irrep                105a        106a        107a        108a        109a   
 eigenvalues H         -0.09382    -0.06280    -0.03524    -0.03061    -0.00527
            eV          -2.5530     -1.7089     -0.9588     -0.8328     -0.1435
 
 
 ! grave: sending quit signal to master process
 
 
 
 
 ==============================================================================
                           electrostatic moments
 ==============================================================================

 reference point for electrostatic moments:    0.00000   0.00000   0.00000

 
              nuc           elec       ->  total
 ------------------------------------------------------------------------------
                          charge      
 ------------------------------------------------------------------------------
         208.000000    -208.000000      -0.000000
 
 ------------------------------------------------------------------------------
                       dipole moment  
 ------------------------------------------------------------------------------
   x    1178.402869   -1179.284764      -0.881895
   y    1167.874750   -1168.702232      -0.827481
   z      89.842161     -89.794264       0.047897
 
   | dipole moment | =     1.2103 a.u. =     3.0762 debye 
 
 ------------------------------------------------------------------------------
                     quadrupole moment
 ------------------------------------------------------------------------------
  xx   20866.113723  -20994.199770    -128.086047
  yy   19789.253423  -19917.067057    -127.813635
  zz    1283.803264   -1417.415225    -133.611961
  xy   -3811.904782    3796.585188     -15.319593
  xz     704.942184    -708.845599      -3.903415
  yz     105.985011    -102.774855       3.210156
 
     1/3  trace=    -129.837214
     anisotropy=      28.509829
 
 ==============================================================================
 

    ridft profiling
  --------------------------------------------------------------------
             module   cpu total (s)       %  wall total (s)       %

               RIDFT           574.0  100.00           573.8  100.00
         Ridft_b_scf           310.3   54.05           310.1   54.04
        b_scf_prelim             0.0    0.00             0.0    0.00
        b_scf_molinp             0.0    0.00             0.0    0.00
         b_scf_init0             0.0    0.00             0.0    0.00
        b_scf_auxbas             0.0    0.00             0.0    0.00
      b_scf_symmetry             0.0    0.00             0.1    0.01
         b_scf_cosmo             0.0    0.00             0.0    0.00
        b_scf_params           162.5   28.31           162.4   28.30
          b_scf_ri-j           144.8   25.23           144.7   25.22
    b_scf_ri-j_auxpq           144.8   25.23           144.7   25.22
     ri-j_auxpq_chol             0.6    0.11             0.6    0.11
         b_scf_1elec             0.4    0.07             0.4    0.07
       b_scf_moinput             2.6    0.45             2.6    0.45
     moinput_orthmos             2.5    0.43             2.5    0.43
    b_scf_dft-dstmax             0.0    0.00             0.0    0.00
           Ridft_scf           263.6   45.92           263.5   45.92
          Scf_b_loop             0.0    0.00             0.0    0.00
                noga             0.0    0.00             0.0    0.00
            Scf_loop           262.9   45.81           262.9   45.81
     scf_loop_mkdmat             1.5    0.27             1.5    0.27
       scf_loop_ri-j            30.1    5.25            30.1    5.25
      parlp1.bc.dens             1.0    0.18             1.1    0.18
        parlp1.gs.gp             0.0    0.00             0.0    0.00
        parlp2.bc.gq             0.0    0.00             0.0    0.00
        scf_loop_dft           186.5   32.50           186.4   32.49
      pardft.bc.dens             0.0    0.00             0.0    0.00
        dft_grid_con             1.7    0.30             1.7    0.30
           dft_xcrhf           177.1   30.85           177.0   30.84
          dft_getval            20.7    3.60            20.6    3.59
          funct2 dst             0.7    0.13             0.7    0.12
      funct2 f2loop1             6.1    1.05             6.1    1.05
      funct2 f2loop2             7.8    1.37             7.9    1.37
          funct2 s+c             4.9    0.86             4.9    0.85
        funct2 cmf_2             4.4    0.77             4.4    0.76
          dft_mkdens            69.1   12.04            69.1   12.04
         dft_gga-fun             0.4    0.07             0.5    0.08
          dft_mkfock            85.8   14.94            85.7   14.94
     pardft.red.fock            20.8    3.63            20.8    3.63
     scf_loop_energy             0.0    0.01             0.0    0.01
     scf_loop_mkfock             0.0    0.01             0.0    0.01
       scf_loop_diis            16.0    2.79            16.0    2.79
       scf_loop_diag            15.5    2.70            15.5    2.70
         diag_tritrn             4.9    0.86             4.9    0.86
          diag_rdiag            10.5    1.83            10.5    1.83
     scf_loop_modump            10.3    1.79            10.4    1.81
      scf_loop_ortho             2.5    0.43             2.5    0.43
          Scf_a_loop             0.6    0.11             0.6    0.11
         Ridft_a_scf             0.2    0.03             0.2    0.03
         a_scf_fanal             0.1    0.03             0.1    0.03
 


    ------------------------------------------------------------------------
         total  cpu-time :  9 minutes and 35 seconds
         total wall-time :  9 minutes and 35 seconds
    ------------------------------------------------------------------------


   ****  ridft : all done  ****


    2017-11-09 01:58:13.574 

