
 define (gplogin3.local) : TURBOMOLE V7.1 ( ) 5 Apr 2016 at 11:26:39
 Copyright (C) 2016 TURBOMOLE GmbH, Karlsruhe


    2016-06-02 00:05:00.538 

             OPERATING SYSTEM = unix
                    HOST NAME = gplogin3.local
   STANDARD BASIS SET LIBRARY = /beegfs/modfac/apps/TURBOMOLE/7.1_intel/basen/
  ALTERNATE BASIS SET LIBRARY = /beegfs/modfac/apps/TURBOMOLE/7.1_intel/basold/
 LIBRARY FOR RI-J  BASIS SETS = /beegfs/modfac/apps/TURBOMOLE/7.1_intel/jbasen/
 LIBRARY FOR RI-JK BASIS SETS = /beegfs/modfac/apps/TURBOMOLE/7.1_intel/jkbasen/
 LIBRARY FOR RIMP2/RICC2 SETS = /beegfs/modfac/apps/TURBOMOLE/7.1_intel/cbasen/
 LIBRARY FOR RIR12 BASIS SETS = /beegfs/modfac/apps/TURBOMOLE/7.1_intel/cabasen/
 LIBRARY FOR OEP   BASIS SETS = /beegfs/modfac/apps/TURBOMOLE/7.1_intel/xbasen/
            STRUCTURE LIBRARY = /beegfs/modfac/apps/TURBOMOLE/7.1_intel/structures/

 
 ***********************************************************
 *                                                         *
 *                       D E F I N E                       *
 *                                                         *
 *         TURBOMOLE'S  INTERACTIVE  INPUT  PROGRAM        *
 *                                                         *
 *  Quantum Chemistry Group       University of Karlsruhe  *
 *                                                         *
 ***********************************************************
 

 FILE control ALREADY EXISTS 
 I WILL PLUG IN THE NEW DATA. 

 DATA WILL BE TAKEN FROM control BY DEFAULT
 
 INPUT TITLE 

 SYMMETRY c1   AND CARTESIAN COORDINATES FOR 144 ATOMS 
 HAVE BEEN READ FROM THE DEFAULT INPUT FILE control . 

 keyword $intdef  missing in file <control>

 DEFINITIONS OF INTERNAL COORDINATES HAVE  N O T  BEEN READ. 
 SPECIFICATION OF BOND TOPOLOGY HAS BEEN READ. 
 DO YOU WANT TO CHANGE THE GEOMETRY DATA ?  DEFAULT=n  GOBACK=&


 ATOMIC ATTRIBUTE DATA (BASES,CHARGES,MASSES,ECPS) HAVE BEEN
 TAKEN FROM THE DEFAULT INPUT FILE control.
 DO YOU WANT TO CHANGE THESE DATA ? DEFAULT=n  GOBACK=&


 BASIS SETS WILL BE WRITTEN TO FILE basis BY DEFAULT


              ATOMIC COORDINATES              ATOM SHELLS CHARGE PSEUDO MASS
     5.15645790    3.55640789  -13.99529284    c     21      6.     0 12.011
     5.39945779    1.43999021  -15.54137228    c     21      6.     0 12.011
     4.90799671   -0.94331349  -14.53847572    c     21      6.     0 12.011
     4.23782424   -1.12193041  -11.99114379    c     21      6.     0 12.011
     4.05168621    0.90289225  -10.47822905    n     21      7.     0 14.007
     4.46958025    3.19660403  -11.47196043    c     21      6.     0 12.011
     3.58358215   -3.67470475  -10.89464910    c     21      6.     0 12.011
     3.38404597   -5.55630506  -12.24909141    o     21      8.     0 15.999
     4.05627825    5.47139966   -9.80114018    c     21      6.     0 12.011
     4.13016654    7.63298180  -10.65903805    o     21      8.     0 15.999
     3.22438301   -3.63390556   -8.35030294    n     21      7.     0 14.007
     2.30429425   -5.66524777   -6.85061628    c     21      6.     0 12.011
    -0.13526660   -6.62953722   -7.23863375    c     21      6.     0 12.011
    -1.04806101   -8.45605201   -5.55420746    c     21      6.     0 12.011
     0.37339099   -9.32615751   -3.50725611    c     21      6.     0 12.011
     2.81663680   -8.35069978   -3.20934079    c     21      6.     0 12.011
     3.81650980   -6.54914827   -4.85336473    c     21      6.     0 12.011
    -0.70133406  -11.20575471   -1.55874060    c     21      6.     0 12.011
    -3.09805482  -12.54696894   -2.56889371    c     21      6.     0 12.011
    -4.11457630  -14.54474961   -0.73266572    c     21      6.     0 12.011
    -2.12167112  -16.57010139   -0.17903265    c     21      6.     0 12.011
     0.31488507  -15.34572893    0.79239996    c     21      6.     0 12.011
     1.27172900  -13.31531269   -1.04146587    c     21      6.     0 12.011
    -1.71388712  -17.62371820   -1.92262626    h     15      1.     0  1.008
    -2.84313076  -17.93707258    1.20018396    h     15      1.     0  1.008
    -1.30506376   -9.65328800    0.83367158    c     21      6.     0 12.011
    -3.59924798   -8.35434695    1.06225285    c     21      6.     0 12.011
    -4.16376587   -6.84645888    3.15589933    c     21      6.     0 12.011
    -2.33526686   -6.58151928    5.07092890    c     21      6.     0 12.011
    -0.00621720   -7.85092391    4.90455741    c     21      6.     0 12.011
     0.44639111   -9.37374082    2.79118219    c     21      6.     0 12.011
    -6.67290643   -5.51480667    3.36626365    c     21      6.     0 12.011
    -2.82391225   -4.87496430    7.08552814    n     21      7.     0 14.007
    -2.86382326   -5.49167642    9.58404844    c     21      6.     0 12.011
    -2.69045979   -7.65369319   10.42573246    o     21      8.     0 15.999
     1.98795410   -7.55206372    6.90785608    c     21      6.     0 12.011
    -1.77641815   -5.68805676   -9.36107965    c     21      6.     0 12.011
     6.44557238   -5.51941760   -4.47840527    c     21      6.     0 12.011
    -3.09777136   -3.23772448   11.31492419    c     21      6.     0 12.011
    -2.94260595   -0.92925393   10.28099833    n     21      7.     0 14.007
    -2.97174552    1.08644135   11.81696773    c     21      6.     0 12.011
    -3.22336256    0.88129268   14.43699743    c     21      6.     0 12.011
    -3.44415816   -1.52030357   15.49101108    c     21      6.     0 12.011
    -3.35583236   -3.62549628   13.91325983    c     21      6.     0 12.011
    -2.58986967    3.66092864   10.64743513    c     21      6.     0 12.011
    -2.25741015    5.54957763   11.96559470    o     21      8.     0 15.999
     3.56544078    4.87303678   -7.34712292    n     21      7.     0 14.007
     2.78439807    6.59977403   -5.44454665    c     21      6.     0 12.011
     0.51324962    7.95117388   -5.69293226    c     21      6.     0 12.011
    -0.27047650    9.48153080   -3.67941016    c     21      6.     0 12.011
     1.09870567    9.67698517   -1.43226123    c     21      6.     0 12.011
     3.35611582    8.30251176   -1.25209474    c     21      6.     0 12.011
     4.24644139    6.79418906   -3.22600817    c     21      6.     0 12.011
     0.18615692   11.27905719    0.82227653    c     21      6.     0 12.011
    -2.03699249   13.02446494    0.07190408    c     21      6.     0 12.011
    -2.86127213   14.76244606    2.23906091    c     21      6.     0 12.011
    -0.67047483   16.43339860    3.12951876    c     21      6.     0 12.011
     1.61314582   14.80698691    3.85273585    c     21      6.     0 12.011
     2.37083151   13.04260631    1.68193185    c     21      6.     0 12.011
    -0.13262098   17.72969404    1.59738550    h     15      1.     0  1.008
    -1.26037174   17.60400835    4.73353720    h     15      1.     0  1.008
    -0.60560053    9.40654646    2.90961133    c     21      6.     0 12.011
    -3.03450333    8.35808861    2.94256815    c     21      6.     0 12.011
    -3.75165439    6.52633928    4.70041030    c     21      6.     0 12.011
    -1.96166801    5.68832132    6.47286003    c     21      6.     0 12.011
     0.48157781    6.72451485    6.53115808    c     21      6.     0 12.011
     1.10034973    8.57548270    4.74733220    c     21      6.     0 12.011
    -6.37833592    5.42640528    4.67816822    c     21      6.     0 12.011
    -2.60986297    3.63311187    8.07735090    n     21      7.     0 14.007
     2.42466981    5.83636247    8.40731598    c     21      6.     0 12.011
    -1.09197825    7.73173888   -8.02848258    c     21      6.     0 12.011
     6.71098442    5.38303607   -2.99648204    c     21      6.     0 12.011
    -3.08684874   -3.01347068    6.62226177    h     15      1.     0  1.008
     3.50604669   -1.94938479   -7.44495405    h     15      1.     0  1.008
    -5.01503080   -8.50510930   -0.41509724    h     15      1.     0  1.008
     2.25463225  -10.33821924    2.69136686    h     15      1.     0  1.008
    -2.94610194   -9.16725044   -5.86597448    h     15      1.     0  1.008
     3.98380725   -8.97635031   -1.63982875    h     15      1.     0  1.008
    -7.61527506   -6.01768169    5.13960155    h     15      1.     0  1.008
    -7.90415750   -6.03516166    1.79127140    h     15      1.     0  1.008
    -6.43580250   -3.45723506    3.36890926    h     15      1.     0  1.008
     2.20500804   -5.56354271    7.44410367    h     15      1.     0  1.008
     3.80738242   -8.26148581    6.23318606    h     15      1.     0  1.008
     1.45493794   -8.58374081    8.62115739    h     15      1.     0  1.008
     6.40142838   -3.49521856   -4.03517001    h     15      1.     0  1.008
     7.40381471   -6.51054116   -2.93920444    h     15      1.     0  1.008
     7.57029958   -5.73208738   -6.20310162    h     15      1.     0  1.008
    -1.74314008   -3.61935467   -9.46066822    h     15      1.     0  1.008
    -3.73007372   -6.30851054   -9.10124231    h     15      1.     0  1.008
    -1.08336109   -6.38914516  -11.18115048    h     15      1.     0  1.008
    -4.58950227  -11.18149063   -2.99910876    h     15      1.     0  1.008
    -2.59791990  -13.45188320   -4.36802637    h     15      1.     0  1.008
    -4.67709108  -13.62632382    1.04074777    h     15      1.     0  1.008
    -5.82035649  -15.40693716   -1.53277576    h     15      1.     0  1.008
    -0.04223538  -14.49280104    2.64864015    h     15      1.     0  1.008
     1.78943837  -16.77696971    1.05989070    h     15      1.     0  1.008
     1.71623038  -14.18634415   -2.87113650    h     15      1.     0  1.008
     3.04616294  -12.51480580   -0.34655688    h     15      1.     0  1.008
    -3.45748073   -5.54621392   14.62037645    h     15      1.     0  1.008
    -3.65333194   -1.75015096   17.51995333    h     15      1.     0  1.008
     5.00601681   -2.65859900  -15.65558733    h     15      1.     0  1.008
     5.93831319    1.64816244  -17.51099603    h     15      1.     0  1.008
    -2.98826173    1.94573762    7.21414290    h     15      1.     0  1.008
     3.64838086    3.00275593   -6.85271388    h     15      1.     0  1.008
    -4.42879996    8.95488302    1.55966657    h     15      1.     0  1.008
     2.99997803    9.34911769    4.80793571    h     15      1.     0  1.008
    -2.03234376   10.50693399   -3.90071599    h     15      1.     0  1.008
     4.46876767    8.38932578    0.47135439    h     15      1.     0  1.008
    -6.33867057    3.41001081    4.20331784    h     15      1.     0  1.008
    -7.56572644    6.40573695    3.29932955    h     15      1.     0  1.008
    -7.25881602    5.59052800    6.54440506    h     15      1.     0  1.008
     2.46393832    3.76794383    8.51064620    h     15      1.     0  1.008
     4.30555202    6.50957740    7.87960995    h     15      1.     0  1.008
     1.97036075    6.52490308   10.30565926    h     15      1.     0  1.008
     6.42100594    3.33462963   -3.09070378    h     15      1.     0  1.008
     7.64209028    5.83672152   -1.20906568    h     15      1.     0  1.008
     7.98129612    5.88513630   -4.55223687    h     15      1.     0  1.008
    -1.27433682    5.75465071   -8.61709447    h     15      1.     0  1.008
    -2.97922884    8.50059286   -7.68761378    h     15      1.     0  1.008
    -0.22208062    8.75224769   -9.60523227    h     15      1.     0  1.008
    -3.65565631   11.92249004   -0.59407320    h     15      1.     0  1.008
    -1.41489465   14.17978681   -1.53591271    h     15      1.     0  1.008
    -3.54087434   13.61037453    3.82461672    h     15      1.     0  1.008
    -4.45406560   15.93101491    1.61414737    h     15      1.     0  1.008
     1.14770627   13.68078572    5.53058588    h     15      1.     0  1.008
     3.22612156   16.00603704    4.35759508    h     15      1.     0  1.008
     2.92308507   14.16980905    0.03000885    h     15      1.     0  1.008
     4.04155728   11.94316365    2.20561275    h     15      1.     0  1.008
    -3.21705087    2.59160821   15.56593872    h     15      1.     0  1.008
     5.45605509    5.46652417  -14.67436593    h     15      1.     0  1.008
    -0.98135368    2.39896953    0.85753882    c     21      0.     0 12.011
     0.71446766   -2.37372279   -1.39699894    c     21      0.     0 12.011
    -0.78504893   -2.22088174    0.90374263    n     21      0.     0 14.007
     0.64628634    2.24958668   -1.35485805    n     21      0.     0 14.007
     1.52644518    0.14745533   -2.46505325    c     21      0.     0 12.011
    -1.64083030   -0.12026217    2.03432798    c     21      0.     0 12.011
     2.97372973    0.20163378   -4.31233614    o     21      0.     0 15.999
    -2.95694897   -0.17530989    3.97857271    o     21      0.     0 15.999
     1.26802513    3.92140849   -2.09557400    h     15      0.     0  1.008
    -1.30107644   -3.89119177    1.72399715    h     15      0.     0  1.008
    -2.75928361    3.34035550    0.36891234    h     15      0.     0  1.008
    -0.32902022   -3.39090568   -2.87092863    h     15      0.     0  1.008
    -0.08074800    3.56547858    2.31083270    h     15      0.     0  1.008
     2.42521783   -3.47384576   -1.03428491    h     15      0.     0  1.008
 

 we will work with the  1s 3p 5d  7f  9g basis set


 there are 1 real representations :   a   

    mo occupation :
   irrep   mo's   occupied
    a     ****      242
 
 number of basis functions   :        10656
 number of occupied orbitals :          242
 

 reading orbital data $scfmo  from file mos
 orbital characterization : expanded

 MOLECULAR ORBITAL DATA (OCCUPATION NUMBERS,MOS) HAVE BEEN 
 TAKEN FROM THE DEFAULT INPUT FILE control . 
 DO YOU WANT TO CHANGE THESE DATA ?  DEFAULT=n  GOBACK=&


 ADJUSTING DATA GROUP  $drvopt  FOR CURRENT REQUIREMENTS

 ADJUSTING DATA GROUP  $optimize  FOR CURRENT REQUIREMENTS


 DO YOU WANT TO DELETE DATA GROUPS LIKE
     $energy
     $grad
 LEFT OVER FROM PREVIOUS CALCULATIONS ? DEFAULT(n)


    mo occupation :
   irrep   mo's   occupied
    a     ****      242
 
 number of basis functions   :        10656
 number of occupied orbitals :          242
 

 GENERAL MENU : SELECT YOUR TOPIC 
 scf    : SELECT NON-DEFAULT SCF PARAMETER 
 mp2    : OPTIONS AND DATA GROUPS FOR rimp2 and mpgrad
 cc     : OPTIONS AND DATA GROUPS FOR ricc2
 ex     : EXCITED STATE AND RESPONSE OPTIONS
 prop   : SELECT TOOLS FOR SCF-ORBITAL ANALYSIS 
 drv    : SELECT NON-DEFAULT INPUT PARAMETER FOR EVALUATION
          OF ANALYTICAL ENERGY DERIVATIVES 
          (GRADIENTS, FORCE CONSTANTS) 
 rex    : SELECT OPTIONS FOR GEOMETRY UPDATES USING RELAX
 stp    : SELECT NON-DEFAULT STRUCTURE OPTIMIZATION PARAMETER
 e      : DEFINE EXTERNAL ELECTROSTATIC FIELD 
 dft    : DFT Parameters 
 ri     : RI Parameters 
 rijk   : RI-JK-HF Parameters 
 rirpa  : RIRPA Parameters 
 senex  : seminumeric exchange parameters 
 hybno  : hybrid Noga/Diag parameters
 dsp    : DFT dispersion correction
 trunc  : USE TRUNCATED AUXBASIS DURING ITERATIONS 
 marij  : MULTIPOLE ACCELERATED RI-J 
 dis    : DISPLAY MOLECULAR GEOMETRY 
 list   : LIST OF CONTROL FILE 
 &      : GO BACK TO OCCUPATION/ORBITAL ASSIGNMENT MENU

 * or q : END OF DEFINE SESSION 


 INPUT MENU FOR CALCULATIONS WITH ricc2:
 (#atoms=144   #bas=144   #cbas=144   #cabs=  0   #jkbas=  0   )
 freeze  : SET FROZEN OCCUPIED/VIRTUAL ORBITAL OPTIONS
 cbas    : ASSIGN AUXILIARY (CBAS) BASIS SETS
 memory  : SET MAXIMUM CORE MEMORY (PRESENT VALUE:  22000 Mb)
 denconv : CONVERGENCE THRESHOLD FOR SCF DENSITY (0.1E-06 )
 tmpdir  : DEFINE PATH FOR TEMPORY FILES
 ricc2   : DATA GROUP $ricc2 (MODELS AND GLOBAL OPTIONS)
 f12     : DATA GROUP $rir12 (F12 APPROX. AND OPTIONS)
 exci    : INPUT FOR CALCULATION OF EXCITATION ENERGIES
 resp    : INPUT FOR GROUND STATE PROPERTIES
 cabs    : ASSIGN COMPLEMENTARY AUXILIARY (CABS) BASIS SETS
 jkbas   : ASSIGN AUXILIARY BASIS FOR FOCK MATRICES (JKBAS)
 other   : OTHER DIVERSE OPTIONS
 * / end : SAVE DEFINITIONS AND LEAVE MENU

 reading orbital data $scfmo  from file mos
 orbital characterization : expanded

 Orbitals with eigenvalues smaller than  -3.000 will be
 treated as inert with respect to electronic correlations,
 that is, they constitute the frozen cores:


  ORBITAL  SYMMETRY    ENERGY        OCCUPATION    STATUS
    66    66a         -11.32168        2.000      frozen
    67    67a         -11.31885        2.000      frozen
    68    68a         -11.31884        2.000      frozen
    69    69a          -1.26662        2.000      active
    70    70a          -1.26662        2.000      active
    71    71a          -1.26628        2.000      active

 present status of $freeze:
 implicit core=   68 virt=    0

 frozen core / frozen virtual assignment menu:
 s <list> : list information about shells in <list>
 p <list> : print mo coefficients of shells in <list>
 f <list> : choose shells in <list> to become frozen shells
 a <list> : choose shells in <list> to become active shells
 fp <val> : set new freezing point for core orbitals to <val>
 ver (off): switch verbose mode on (off)
 exp (off): enforce explicit (old) format for $freeze
 core <n> : set number of frozen core orbitals to <n>
 * / end  : write $freeze to file and leave the menu
 &        : go back - leaving $freeze unchanged...
 <list>   = list of mo-shell indices (like  1-5,7-8,11)
 enter command

 INPUT MENU FOR CALCULATIONS WITH ricc2:
 (#atoms=144   #bas=144   #cbas=144   #cabs=  0   #jkbas=  0   )
 freeze  : SET FROZEN OCCUPIED/VIRTUAL ORBITAL OPTIONS
 cbas    : ASSIGN AUXILIARY (CBAS) BASIS SETS
 memory  : SET MAXIMUM CORE MEMORY (PRESENT VALUE:  22000 Mb)
 denconv : CONVERGENCE THRESHOLD FOR SCF DENSITY (0.1E-06 )
 tmpdir  : DEFINE PATH FOR TEMPORY FILES
 ricc2   : DATA GROUP $ricc2 (MODELS AND GLOBAL OPTIONS)
 f12     : DATA GROUP $rir12 (F12 APPROX. AND OPTIONS)
 exci    : INPUT FOR CALCULATION OF EXCITATION ENERGIES
 resp    : INPUT FOR GROUND STATE PROPERTIES
 cabs    : ASSIGN COMPLEMENTARY AUXILIARY (CABS) BASIS SETS
 jkbas   : ASSIGN AUXILIARY BASIS FOR FOCK MATRICES (JKBAS)
 other   : OTHER DIVERSE OPTIONS
 * / end : SAVE DEFINITIONS AND LEAVE MENU

 GENERAL MENU : SELECT YOUR TOPIC 
 scf    : SELECT NON-DEFAULT SCF PARAMETER 
 mp2    : OPTIONS AND DATA GROUPS FOR rimp2 and mpgrad
 cc     : OPTIONS AND DATA GROUPS FOR ricc2
 ex     : EXCITED STATE AND RESPONSE OPTIONS
 prop   : SELECT TOOLS FOR SCF-ORBITAL ANALYSIS 
 drv    : SELECT NON-DEFAULT INPUT PARAMETER FOR EVALUATION
          OF ANALYTICAL ENERGY DERIVATIVES 
          (GRADIENTS, FORCE CONSTANTS) 
 rex    : SELECT OPTIONS FOR GEOMETRY UPDATES USING RELAX
 stp    : SELECT NON-DEFAULT STRUCTURE OPTIMIZATION PARAMETER
 e      : DEFINE EXTERNAL ELECTROSTATIC FIELD 
 dft    : DFT Parameters 
 ri     : RI Parameters 
 rijk   : RI-JK-HF Parameters 
 rirpa  : RIRPA Parameters 
 senex  : seminumeric exchange parameters 
 hybno  : hybrid Noga/Diag parameters
 dsp    : DFT dispersion correction
 trunc  : USE TRUNCATED AUXBASIS DURING ITERATIONS 
 marij  : MULTIPOLE ACCELERATED RI-J 
 dis    : DISPLAY MOLECULAR GEOMETRY 
 list   : LIST OF CONTROL FILE 
 &      : GO BACK TO OCCUPATION/ORBITAL ASSIGNMENT MENU

 * or q : END OF DEFINE SESSION 

 
 ***********************************************************
 *                                                         *
 *                       e n d   o f                       *
 *                       D E F I N E                       *
 *                                                         *
 *         TURBOMOLE'S  INTERACTIVE  INPUT  PROGRAM        *
 *                                                         *
 *  Quantum Chemistry Group       University of Karlsruhe  *
 *                                                         *
 ***********************************************************


    ------------------------------------------------------------------------
         total  cpu-time :   8.42 seconds
         total wall-time :   9.53 seconds
    ------------------------------------------------------------------------

   ****  define : all done  ****


    2016-06-02 00:05:10.061 

