STARTING dscf ON 16 PROCESSORS!
RUNNING PROGRAM /beegfs/modfac/apps/TURBOMOLE/7.2.1-official/bin/em64t-unknown-linux-gnu_mpi/dscf_mpi.
PLEASE WAIT UNTIL dscf HAS FINISHED.
Look for the output in slave1.output.
MACHINEFILE is ./hostlist
 this is node-proc. number 1 running on node c-7-29.local
 the total number of node-proc. spawned is  17
  parallel platform: MPP or cluster with fast interconnect

 dscf (c-7-29.local) : TURBOMOLE V7.2 ( 21471 ) 7 Nov 2017 at 16:15:16
 Copyright (C) 2017 TURBOMOLE GmbH, Karlsruhe


    2018-02-14 09:57:02.728 


 SCF run will be profiled !



                             d s c f - program

                   idea & directorship : reinhart ahlrichs
                   program development : marco haeser
                                         michael baer
                           dft version : oliver treutler
           parallelized version : malte v. arnim, gina corongiu, GMD 


                          quantum chemistry group
                          universitaet  karlsruhe
                                  germany




                          References             
                                                 
          TURBOMOLE:                             
              R. Ahlrichs, M. Baer, M. Haeser, H. Horn, and
              C. Koelmel
              Electronic structure calculations on workstation
              computers: the program system TURBOMOLE
              Chem. Phys. Lett. 162: 165 (1989)
          Density Functional:                              
              O. Treutler and R. Ahlrichs                      
              Efficient Molecular Numerical Integration Schemes
              J. Chem. Phys. 102: 346 (1995)                   
          Parallel Version:                                
              Performance of parallel TURBOMOLE for Density    
              Functional Calculations                          
              M. v. Arnim and R. Ahlrichs                      
              J. Comp. Chem. 19: 1746 (1998)                   
                                         




              +--------------------------------------------------+
              | Atomic coordinate, charge and isotop information |
              +--------------------------------------------------+

                    atomic coordinates            atom    charge  isotop
          2.29077327    1.67392645    0.00000000    c      6.000     0
         -0.42283783    1.89006819    0.00000000    c      6.000     0
          2.00416570   -2.84846554    0.00000000    c      6.000     0
         -1.89569130   -0.36332853    0.00000000    c      6.000     0
         -0.67454461   -2.65085257    0.00000000    c      6.000     0
          3.50423981   -0.72739016    0.00000000    c      6.000     0
         -4.67103058   -0.30001814    0.00000000    n      7.000     0
          3.30333201    3.96359173    0.00000000    n      7.000     0
          1.26591744    5.55612118    0.00000000    o      8.000     0
         -1.03666240    4.32350426    0.00000000    n      7.000     0
          6.74724407   -0.91316884    0.00000000    cl    17.000     0
         -5.67445394    1.79859374    0.00000000    o      8.000     0
         -5.79266475   -2.34826497    0.00000000    o      8.000     0
          2.87220091   -4.70406291    0.00000000    h      1.000     0
         -1.81998778   -4.35025387    0.00000000    h      1.000     0
 
       center of nuclear mass  :    0.50666566    0.57190243    0.00000000
       center of nuclear charge:    0.46151856    0.53226704    0.00000000

              +--------------------------------------------------+
              |               basis set information              |
              +--------------------------------------------------+

              we will work with the 1s 3p 5d 7f 9g ... basis set
              ...i.e. with spherical basis functions...

   type   atoms  prim   cont   basis
   ---------------------------------------------------------------------------
    c        6     77     57   def2-QZVP   [7s4p3d2f1g|15s8p3d2f1g]
    n        3     77     57   def2-QZVP   [7s4p3d2f1g|15s8p3d2f1g]
    o        3     77     57   def2-QZVP   [7s4p3d2f1g|15s8p3d2f1g]
    cl       1    105     70   def2-QZVP   [9s6p4d2f1g|20s14p4d2f1g]
    h        2     33     30   def2-QZVP   [4s3p2d1f|7s3p2d1f]
   ---------------------------------------------------------------------------
   total:   15   1095    814
   ---------------------------------------------------------------------------

   total number of primitive shells          :  141
   total number of contracted shells         :  246
   total number of cartesian basis functions : 1020
   total number of SCF-basis functions       :  814


 integral neglect threshold       :  0.33E-13
 integral storage threshold THIZE :  0.10E-04
 integral storage threshold THIME :         5


 DENSITY CONVERGENCE CHECK SWITCHED ON !
 SCF CONVERGENCE IF RMS(delta[D]) <     0.1000000000E-06


 symmetry group of the molecule :   c1 

 the group has the following generators :
   c1(z)

    1 symmetry operations found

 there are 1 real representations :   a   

 maximum number of shells which are related by symmetry :  1


    mo occupation :
   irrep   mo's   occupied
    a      814       50
 
 number of basis functions   :                    814
 number of occupied orbitals :                     50
 

 automatic virtual orbital shift switched on 
      shift if e(lumo)-e(homo) < 0.10000000    


 keyword $2e-ints_shell_statistics missing in file <control>

 ! One task per shell generated
  No pre-computed optimal task distribution found
  ... using automatic task generation

          ------------------------
          nuclear repulsion energy  :   846.265151275    
          ------------------------


         -----------------
         -S,T+V- integrals
         -----------------

 1e-integrals will be neglected if expon. factor < 0.327643E-14
 
   Difference densities algorithm switched on.
   The maximal number of linear combinations of
   difference densities is                    20 .

 DIIS switched on: error vector is FDS-SDF
 Max. Iterations for DIIS is     :   5
 DIIS matrix (see manual) 
    Scaling factor of diagonals  :  1.200
    threshold for scaling factor :  0.000

 scf convergence criterion : increment of total energy < .1000000D-08
                  and increment of one-electron energy < .1000000D-05

  MOs are in ASCII format !


 reading orbital data $scfmo  from file mos
 orbital characterization : scfconv=9

 DSCF restart information will be dumped onto file mos

 
                                              current damping :  0.300
 ITERATION  ENERGY          1e-ENERGY        2e-ENERGY     RMS[dD(SAO)]   TOL
   1  -1075.8176903640    -3156.5632242     1234.4803826    0.000D+00 0.327D-13
          max. resid. norm for Fia-block=  8.612D-04 for orbital      2a         
          max. resid. fock norm         =  1.258D-02 for orbital    782a         
          Delta Eig. =     6.4634973137 eV 
 
                                              current damping :  0.250
 ITERATION  ENERGY          1e-ENERGY        2e-ENERGY     RMS[dD(SAO)]   TOL
   2  -1075.8176920570    -3156.5656166     1234.4827733    0.120D-04 0.207D-13
          Norm of current diis error: 0.27954E-02
          max. resid. norm for Fia-block=  2.105D-04 for orbital      2a         
          max. resid. fock norm         =  2.883D-03 for orbital    782a         
          Delta Eig. =     1.5518135589 eV 
 
                                              current damping :  0.200
 ITERATION  ENERGY          1e-ENERGY        2e-ENERGY     RMS[dD(SAO)]   TOL
   3  -1075.8176922035    -3156.5646490     1234.4818055    0.391D-05 0.164D-13
          Norm of current diis error: 0.69910E-03
          max. resid. norm for Fia-block=  4.358D-05 for orbital     33a         
          max. resid. fock norm         =  5.782D-04 for orbital    782a         
          Delta Eig. =     0.3226719876 eV 
 
                                              current damping :  0.250
 ITERATION  ENERGY          1e-ENERGY        2e-ENERGY     RMS[dD(SAO)]   TOL
   4  -1075.8176922130    -3156.5651083     1234.4822648    0.969D-06 0.146D-13
          Norm of current diis error: 0.19477E-03
          max. resid. norm for Fia-block=  9.762D-06 for orbital     33a         
          max. resid. fock norm         =  9.485D-05 for orbital    782a         
          Delta Eig. =     0.0521406362 eV 
 
                                              current damping :  0.300
 ITERATION  ENERGY          1e-ENERGY        2e-ENERGY     RMS[dD(SAO)]   TOL
   5  -1075.8176922140    -3156.5649607     1234.4821172    0.174D-06 0.139D-13
          Norm of current diis error: 0.56154E-04
          max. resid. norm for Fia-block=  2.878D-06 for orbital     49a         
          max. resid. fock norm         =  1.973D-05 for orbital    782a         
 mo-orthogonalization: Cholesky decomposition
          Delta Eig. =     0.0098560343 eV 

 DENSITY CONVERGED !

 
                                              current damping :  0.350
 ITERATION  ENERGY          1e-ENERGY        2e-ENERGY     RMS[dD(SAO)]   TOL
   6  -1075.8176922142    -3156.5649676     1234.4821241    0.456D-07 0.132D-13
          Norm of current diis error: 0.22779E-04
          max. resid. norm for Fia-block=  1.232D-06 for orbital     37a         
          max. resid. fock norm         =  4.336D-06 for orbital    741a         
          Delta Eig. =     0.0022608858 eV 

 DENSITY CONVERGED !

 
                                              current damping :  0.200
 ITERATION  ENERGY          1e-ENERGY        2e-ENERGY     RMS[dD(SAO)]   TOL
   7  -1075.8176922142    -3156.5649715     1234.4821280    0.165D-07 0.124D-13
          Norm of current diis error: 0.12314E-04
          max. resid. norm for Fia-block=  1.232D-06 for orbital     49a         
          max. resid. fock norm         =  1.309D-06 for orbital     49a         
          Delta Eig. =     0.0006464892 eV 

 ENERGY & DENSITY CONVERGED !

 
                                              current damping :  0.250
 ITERATION  ENERGY          1e-ENERGY        2e-ENERGY     RMS[dD(SAO)]   TOL
   8  -1075.8176922142    -3156.5649692     1234.4821257    0.106D-07 0.115D-13
          max. resid. norm for Fia-block=  3.777D-07 for orbital     49a         
          max. resid. fock norm         =  6.754D-07 for orbital    811a         

 convergence criteria satisfied after     8 iterations


                  ------------------------------------------ 
                 |  total energy      =  -1075.81769221422  |
                  ------------------------------------------ 
                 :  kinetic energy    =   1074.54725777771  :
                 :  potential energy  =  -2150.36494999193  :
                 :  virial theorem    =      1.99881909877  :
                 :  wavefunction norm =      1.00000000000  :
                  .......................................... 


 orbitals $scfmo  will be written to file mos

    irrep                 46a         47a         48a         49a         50a   
 eigenvalues H         -0.49766    -0.47421    -0.46713    -0.43452    -0.36908
            eV         -13.5422    -12.9040    -12.7113    -11.8239    -10.0434
 occupation              2.0000      2.0000      2.0000      2.0000      2.0000 

    irrep                 51a         52a         53a         54a         55a   
 eigenvalues H         -0.02817     0.05903     0.08838     0.10189     0.12216
            eV          -0.7666      1.6062      2.4050      2.7726      3.3242
 
 
 
 
 ==============================================================================
                           electrostatic moments
 ==============================================================================

 reference point for electrostatic moments:    0.00000   0.00000   0.00000

 
              nuc           elec       ->  total
 ------------------------------------------------------------------------------
                          charge      
 ------------------------------------------------------------------------------
         100.000000    -100.000000       0.000000
 
 ------------------------------------------------------------------------------
                       dipole moment  
 ------------------------------------------------------------------------------
   x      46.151856     -44.686264       1.465591
   y      53.226704     -54.932371      -1.705667
   z       0.000000       0.000000       0.000000
 
   | dipole moment | =     2.2488 a.u. =     5.7160 debye 
 
 ------------------------------------------------------------------------------
                     quadrupole moment
 ------------------------------------------------------------------------------
  xx    1715.612739   -1786.711969     -71.099229
  yy     746.693912    -808.715563     -62.021651
  zz       0.000000     -58.264025     -58.264025
  xy      26.719392     -28.943707      -2.224315
  xz       0.000000       0.000000       0.000000
  yz       0.000000       0.000000       0.000000
 
     1/3  trace=     -63.794969
     anisotropy=      12.061304
 
 ==============================================================================
 

    dscf profiling
  --------------------------------------------------------------------
             module   cpu total (s)       %  wall total (s)       %

          dscf.total           559.0  100.00           527.5  100.00
        dscf.prepare             1.2    0.21             1.2    0.23
      prepare.oneint             0.1    0.01             0.1    0.01
     prepare.moinput             0.6    0.11             0.6    0.11
     moinput_orthmos             0.3    0.06             0.3    0.06
            dscf.scf           557.5   99.74           526.0   99.71
             scf.pre             0.0    0.00             0.0    0.01
        scf.makedmat             0.4    0.07             0.4    0.08
          scf.shloop           502.1   89.82           501.7   95.12
          shloop_omp           502.0   89.81           501.7   95.11
          scf.symcar             0.1    0.01             0.1    0.02
        scf.makefock             0.1    0.02             0.3    0.05
          scf.newerg             0.0    0.00             0.0    0.00
          scf.newcnv             4.7    0.85             0.6    0.12
           scf.fdiag            12.3    2.20             1.5    0.29
         diag_tritrn             3.1    0.55             0.4    0.07
          diag_rdiag             6.5    1.15             0.8    0.15
          scf.modump            30.1    5.39            18.2    3.44
           ortho_all             2.2    0.40             0.3    0.06
            scf.post             4.7    0.84             2.6    0.50
        dscf.postscf             0.3    0.05             0.3    0.05
 


    ------------------------------------------------------------------------
         total  cpu-time :  9 minutes and 19 seconds
         total wall-time :  8 minutes and 48 seconds
    ------------------------------------------------------------------------

   ****  dscf : all done  ****


    2018-02-14 10:05:50.303 

