 this is node-proc. number 0 running on node c-5-41.local
 the total number of node-proc. spawned is  33

 dscfserver (c-5-41.local) : TURBOMOLE V7.2 ( 21471 ) 7 Nov 2017 at 16:15:16
 Copyright (C) 2017 TURBOMOLE GmbH, Karlsruhe


    2018-02-19 19:14:49.382 

 
    0:00:37 ---- Start global counter...
    0:11:18 ---- ... finished.
 
    0:12:04 ---- Start global counter...
    0:23:00 ---- ... finished.
 
    0:23:44 ---- Start global counter...
    0:34:04 ---- ... finished.
 
    0:34:49 ---- Start global counter...
    0:44:35 ---- ... finished.
 
    0:45:21 ---- Start global counter...
    0:54:21 ---- ... finished.
 
    0:55:16 ---- Start global counter...
    1:03:17 ---- ... finished.
 
    1:04:03 ---- Start global counter...
    1:11:16 ---- ... finished.
 
    1:12:01 ---- Start global counter...
    1:18:22 ---- ... finished.
 
    1:19:12 ---- Start global counter...
    1:24:51 ---- ... finished.
 
    1:25:38 ---- Start global counter...
    1:30:38 ---- ... finished.
 
    1:31:34 ---- Start global counter...
    1:35:53 ---- ... finished.
 
    1:36:37 ---- Start global counter...
    1:40:32 ---- ... finished.
 
    1:41:17 ---- Start global counter...
    1:44:22 ---- ... finished.
 
    1:45:08 ---- Start global counter...
    1:47:51 ---- ... finished.
 
    1:48:36 ---- Start global counter...
    1:50:55 ---- ... finished.
 
    1:51:34 ---- ByeBye Tag received


 ! Total wall-clock time in seconds  :     6693.9
 ! Time (sec) spent in global counter:     5958.0
 ! So-called SERIAL wall-clock time  :      736.0

  *** Regular termination of server ***
 total turnaround time of dscfserver  6694.29 sec
 cpu elapsed by dscfserver process    5962.56 sec 

   ***  dscf server : all done  ***


    2018-02-19 21:06:23.672 

