Using Slurm to start processes with PMI2
STARTING ridft ON 8 PROCESSORS!
RUNNING PROGRAM /beegfs/modfac/apps/TURBOMOLE/7.0_intel_GA/bin/em64t-unknown-linux-gnu_mpi/ridft_mpi.
PLEASE WAIT UNTIL ridft HAS FINISHED.
Look for the output in slave1.output.
  this is node-proc. number 1 running on node c-5-38.local
  the total number of node-proc. spawned is            8
  parallel platform: MPP, or cluster with fast interconnect

 ridft (c-5-38.local) : TURBOMOLE V7.0.2( ) 15 Jan 2016 at 17:47:42
 Copyright (C) 2016 TURBOMOLE GmbH, Karlsruhe


    2017-11-07 00:40:05.262 



                                  r i d f t

                        DFT program with RI approximation 
                                for coulomb part 




                                                 
                                 References:     
                                                 
          TURBOMOLE:                             
              R. Ahlrichs, M. Baer, M. Haeser, H. Horn, and
              C. Koelmel
              Electronic structure calculations on workstation
              computers: the program system TURBOMOLE
              Chem. Phys. Lett. 162: 165 (1989)
          Density Functional:                              
              O. Treutler and R. Ahlrichs                      
              Efficient Molecular Numerical Integration Schemes
              J. Chem. Phys. 102: 346 (1995)                   
          Parallel Version:                                
              Performance of parallel TURBOMOLE for Density    
              Functional Calculations                          
              M. v. Arnim and R. Ahlrichs                      
              J. Comp. Chem. 19: 1746 (1998)                   
          RI-J Method:                                     
              Auxiliary Basis Sets to approximate Coulomb      
              Potentials                                       
              Chem. Phys. Lett. 240: 283 (1995)                
              K. Eichkorn, O. Treutler, H. Oehm, M. Haeser     
              and R. Ahlrichs                                  
              Chem. Phys. Lett. 242: 652 (1995)                
                                                           
              Auxiliary Basis Sets for Main Row Atoms and their
              Use to approximate Coulomb Potentials            
              K. Eichkorn, F. Weigend, O. Treutler and         
              R. Ahlrichs                                      
              Theo. Chem. Acc. 97: 119 (1997)                   
                                                           
              Accurate Coulomb-fitting basis sets for H to Rn 
              F. Weigend                                        
              Phys. Chem. Chem. Phys. 8: 1057 (2006)            
                                                           
          Multipole accelerated RI-J (MARI-J):             
              Fast evaluation of the Coulomb potential for     
              electron densities using multipole accelerated   
              resolution of identity approximation             
              M. Sierka, A. Hogekamp and R. Ahlrichs           
              J. Chem. Phys. 118: 9136 (2003)                  
          RI-JK Method:                                     
              A fully direct RI-HF algorithm: Implementation,
              optimised auxiliary basis sets, demonstration of
              accuracy and efficiency                         
              F. Weigend                                      
              Phys. Chem. Chem. Phys. 4: 4285 (2002)           
          Two-component HF and DFT with spin-orbit coupling:  
              Self-consistent treatment of spin-orbit         
              interactions with efficient Hartree-Fock and    
              density functional methods                      
              M. K. Armbruster, F. Weigend, C. van Wüllen and 
              W. Klopper                                      
              Phys. Chem. Chem. Phys. 10: 1748 (2008)         
          Relativistic all-electron 2c calculations           
              An efficient implementation of two-component    
              relativistic exact-decoupling methods for large 
              molecules                                       
              D. Peng, N. Middendorf, F. Weigend, M. Reiher   
              J. Chem. Phys. 138, 184105 (2013)               
                                         


 


              +--------------------------------------------------+
              |      general information about current run       |
              +--------------------------------------------------+

 

 SCF run will be profiled !


 DENSITY CONVERGENCE CHECK SWITCHED ON !
 SCF CONVERGENCE IF RMS(delta[D]) <     0.1000000000E-06

 PBE functional
 exchange:    LDA + PBE
 correlation: LDA (PW) + PBE
 A DFT calculation using the RI-J approximation will be carried out.
 Allocatable memory for RI due to $ricore (MB):       10000


              +--------------------------------------------------+
              | Atomic coordinate, charge and isotop information |
              +--------------------------------------------------+

                    atomic coordinates            atom    charge  isotop
          5.86996452   -0.78810254   -4.59530630    c      6.000     0
          7.20248184   -2.16823901   -6.37688640    c      6.000     0
          5.98856741   -4.55049025   -6.64348742    c      6.000     0
          3.94112508   -4.59330807   -5.01176180    c      6.000     0
          6.29749316    1.89636702   -3.66209586    c      6.000     0
          8.96057847    2.74243961   -4.56337073    c      6.000     0
          4.36827642    3.72189068   -4.75217594    c      6.000     0
          4.57209075    5.31103057   -6.82226676    c      6.000     0
          2.02585290   -6.66679486   -4.49609735    c      6.000     0
          2.15946136   -7.49993502   -1.68763425    c      6.000     0
          2.70692670   -8.97332811   -6.13283275    c      6.000     0
         -0.63200152   -5.82595866   -5.17165721    c      6.000     0
         -2.18946355   -6.59098894   -7.13295899    c      6.000     0
          3.89372151   -2.29167674   -3.78596449    n      7.000     0
          1.99611798    4.08040386   -3.73881470    n      7.000     0
         -1.95752617   -4.04736186   -3.79724206    n      7.000     0
         -3.88934083    4.63851548   -5.00129268    c      6.000     0
         -5.91655277    4.61016526   -6.65855596    c      6.000     0
         -7.13296347    2.22544997   -6.42853201    c      6.000     0
         -5.82189329    0.82984778   -4.64304708    c      6.000     0
         -1.98006398    6.70752328   -4.44654614    c      6.000     0
         -2.13941314    7.51253059   -1.63126705    c      6.000     0
         -2.64664291    9.03046599   -6.06599175    c      6.000     0
          0.68406046    5.87410079   -5.10627890    c      6.000     0
          2.26012976    6.65977074   -7.04443431    c      6.000     0
         -6.25980184   -1.86341403   -3.74009524    c      6.000     0
         -8.91395134   -2.69986271   -4.67609995    c      6.000     0
         -4.32008849   -3.67836241   -4.82929909    c      6.000     0
         -4.50374297   -5.24516385   -6.91821726    c      6.000     0
         -3.85582792    2.32586336   -3.79585483    n      7.000     0
          6.35509136    2.00987676   -0.79159774    c      6.000     0
          6.38393198    4.08213529    0.86217415    c      6.000     0
          6.84371750   -0.10058737    0.59846547    n      7.000     0
          6.93232982    3.14682126    3.31610643    c      6.000     0
          7.19371221    0.51967002    3.11306771    c      6.000     0
         -6.34652617   -2.00485465   -0.87169613    c      6.000     0
         -6.38973230   -4.09282910    0.76212349    c      6.000     0
         -6.85265460    0.09156322    0.53309720    n      7.000     0
         -6.96503741   -3.18148679    3.21880792    c      6.000     0
         -7.22828846   -0.55280643    3.03790760    c      6.000     0
          7.68599877   -1.36851565    5.01392803    c      6.000     0
         -7.74236889    1.31659318    4.95135086    c      6.000     0
          8.11603216   -1.00663997    7.25803698    o      8.000     0
         -8.19529203    0.93272071    7.18737116    o      8.000     0
          7.60789561   -3.76714504    3.97962708    o      8.000     0
         -7.65577469    3.72515327    3.94087855    o      8.000     0
         -8.03113817    5.75204028    5.73199356    c      6.000     0
          7.96242576   -5.81101951    5.75563576    c      6.000     0
         -7.30477860    8.19128579    4.41152112    c      6.000     0
          7.26184325   -8.23856142    4.40014961    c      6.000     0
         -7.19025594   -4.74458232    5.57157871    c      6.000     0
          7.13650369    4.68787794    5.68523712    c      6.000     0
          4.58600594    4.96070010    7.05613622    c      6.000     0
         -4.65394389   -5.02033524    6.96816596    c      6.000     0
         -5.92955308   -6.80699185    0.07893159    c      6.000     0
          5.93519977    6.80349282    0.20035783    c      6.000     0
          8.85164949   -1.53068757   -7.39867582    h      1.000     0
          6.55187314   -6.06026124   -7.89841260    h      1.000     0
          9.33024400    4.66681301   -3.91575986    h      1.000     0
          9.08001401    2.69659664   -6.62586834    h      1.000     0
         10.38969694    1.47242859   -3.78198419    h      1.000     0
          6.19978605    5.48822786   -8.04280279    h      1.000     0
          0.81560353   -9.04169106   -1.35719599    h      1.000     0
          1.71346587   -5.94894509   -0.40214217    h      1.000     0
          4.07120818   -8.17551841   -1.26458685    h      1.000     0
          2.67645418   -8.50587216   -8.14630039    h      1.000     0
          1.35288832  -10.49750305   -5.78774845    h      1.000     0
          4.60183273   -9.64301516   -5.64361998    h      1.000     0
         -1.71878451   -7.96606601   -8.56799749    h      1.000     0
          2.63838462   -1.84919387   -2.35954216    h      1.000     0
          1.29777653    3.19725815   -2.15368887    h      1.000     0
         -1.27563756   -3.18166148   -2.19525633    h      1.000     0
         -6.46427657    6.13091228   -7.90711540    h      1.000     0
         -8.76909980    1.59680151   -7.47645653    h      1.000     0
         -0.79918711    9.05132970   -1.27338991    h      1.000     0
         -1.70456878    5.94891166   -0.35731597    h      1.000     0
         -4.05515665    8.18337265   -1.21885510    h      1.000     0
         -2.59640498    8.58385089   -8.08380624    h      1.000     0
         -1.29680225   10.55162429   -5.69223925    h      1.000     0
         -4.54656696    9.69416258   -5.58824271    h      1.000     0
          1.80334213    8.05048751   -8.46884668    h      1.000     0
         -9.01288940   -2.63374126   -6.73913336    h      1.000     0
        -10.35040755   -1.43702280   -3.89654904    h      1.000     0
         -9.29055764   -4.63039482   -4.05120677    h      1.000     0
         -6.11969780   -5.40935952   -8.15603778    h      1.000     0
         -2.62015145    1.87042764   -2.35441224    h      1.000     0
          6.84377010   -1.88219370   -0.09515548    h      1.000     0
         -6.84897285    1.87950696   -0.14406925    h      1.000     0
         -6.86521845    5.38824141    7.40049927    h      1.000     0
        -10.01364555    5.75205802    6.33445922    h      1.000     0
          6.77101750   -5.46722414    7.41039772    h      1.000     0
          9.93573669   -5.81206673    6.38738499    h      1.000     0
         -5.31972216    8.14749809    3.83698402    h      1.000     0
         -7.58507625    9.79281031    5.69432847    h      1.000     0
         -8.46300115    8.49183526    2.72446370    h      1.000     0
          5.28546094   -8.19369293    3.79660748    h      1.000     0
          7.52704132   -9.85219789    5.67092503    h      1.000     0
          8.44584728   -8.51936469    2.72766080    h      1.000     0
         -7.90263773   -6.62539870    5.06055604    h      1.000     0
         -8.56688742   -3.87197527    6.84321450    h      1.000     0
          7.86134460    6.57057591    5.19899115    h      1.000     0
          8.49578883    3.79896247    6.96424046    h      1.000     0
          3.16091814    5.80012632    5.81408160    h      1.000     0
          4.77992924    6.15874131    8.73649835    h      1.000     0
          3.89335542    3.10974255    7.65139193    h      1.000     0
         -3.21203059   -5.84250685    5.73399798    h      1.000     0
         -4.86155366   -6.23481190    8.63502603    h      1.000     0
         -3.97505580   -3.17238356    7.58817529    h      1.000     0
         -6.03297554   -7.10472402   -1.96163377    h      1.000     0
         -7.31650740   -8.04446925    0.99699119    h      1.000     0
         -4.04745501   -7.42383875    0.69182890    h      1.000     0
          6.05165976    7.11906884   -1.83677978    h      1.000     0
          7.32003978    8.02906108    1.13752323    h      1.000     0
          4.05123182    7.41991947    0.80779657    h      1.000     0
          1.35323061   -1.83487764    8.35180463    c      6.000     0
          1.33432773   -1.84971329    5.72023982    c      6.000     0
         -0.05038535   -0.03022455    9.66981846    c      6.000     0
         -0.02339181   -0.01634270    4.38825803    c      6.000     0
         -1.44026825    1.78151055    8.34706624    c      6.000     0
         -1.39448303    1.81020133    5.71590596    c      6.000     0
         -0.01002541   -0.00957737    1.54688684    c      6.000     0
         -0.71244440    1.99678102    0.43861828    o      8.000     0
          0.70197594   -2.01005326    0.43554592    o      8.000     0
          2.45749504   -3.22647612    9.38068689    h      1.000     0
          2.37404005   -3.25582621    4.65113501    h      1.000     0
         -0.06095465   -0.03560796   11.72386454    h      1.000     0
         -2.55457623    3.16809886    9.37191360    h      1.000     0
         -2.42389050    3.22158305    4.64376839    h      1.000     0
 
       center of nuclear mass  :    0.00004784    0.00010488   -0.08608047
       center of nuclear charge:   -0.00000084    0.00004910   -0.06660081

              +--------------------------------------------------+
              |               basis set information              |
              +--------------------------------------------------+

              we will work with the 1s 3p 5d 7f 9g ... basis set
              ...i.e. with spherical basis functions...

   type   atoms  prim   cont   basis
   ---------------------------------------------------------------------------
    c       53     77     57   def2-QZVP   [7s4p3d2f1g|15s8p3d2f1g]
    n        6     77     57   def2-QZVP   [7s4p3d2f1g|15s8p3d2f1g]
    o        6     77     57   def2-QZVP   [7s4p3d2f1g|15s8p3d2f1g]
    h       63     33     30   def2-QZVP   [4s3p2d1f|7s3p2d1f]
   ---------------------------------------------------------------------------
   total:  128   7084   5595
   ---------------------------------------------------------------------------

   total number of primitive shells          :  100
   total number of contracted shells         : 1735
   total number of cartesian basis functions : 6885
   total number of SCF-basis functions       : 5595


 integral neglect threshold       :  0.48E-14
 integral storage threshold THIZE :  0.10E-04
 integral storage threshold THIME :         5

 RI-J AUXILIARY BASIS SET information:

              we will work with the 1s 3p 5d 7f 9g ... basis set
              ...i.e. with spherical basis functions...

   type   atoms  prim   cont   basis
   ---------------------------------------------------------------------------
    c       53     70     49   def2-QZVP   [6s4p3d1f1g|12s5p4d2f1g]
    n        6     70     49   def2-QZVP   [6s4p3d1f1g|12s5p4d2f1g]
    o        6     70     49   def2-QZVP   [6s4p3d1f1g|12s5p4d2f1g]
    h       63     16     11   def2-QZVP   [3s1p1d|5s2p1d]
   ---------------------------------------------------------------------------
   total:  128   5558   3878
   ---------------------------------------------------------------------------

   total number of primitive shells          :   80
   total number of contracted shells         : 1290
   total number of cartesian basis functions : 4721
   total number of SCF-basis functions       : 3878


 symmetry group of the molecule :   c1 

 the group has the following generators :
   c1(z)

    1 symmetry operations found

 there are 1 real representations :   a   

 maximum number of shells which are related by symmetry :  1


    mo occupation :
   irrep   mo's   occupied
    a     5595      236
 
 number of basis functions   :         5595
 number of occupied orbitals :          236
 
  
           ------------------
           density functional
           ------------------
 PBE functional
 exchange:    LDA + PBE
 correlation: LDA (PW) + PBE
 grinp -> nfun, dfgga, dfhybrid 
           6 T F
 iterations will be done with small grid
  
 spherical integration : Lebedev's spherical grid
 spherical gridsize    :           5
    i.e. gridpoints    :         590
 value for diffuse not defined
 radial integration    : Chebyshev 2nd kind (scaling 3)
 radial gridsize       :           8
 integration cells     :         128
 partition function    : becke
 partition sharpness   :           3
  

 <rddim> : input of entry tasksize
           from data group '$pardft' failed !

               Default values taken

 <rddim> : input of entry memdiv
           from data group '$pardft' failed !

               Default values taken
  RIDFT: memory allocation for DFT gridpoints
  MEMORY is divided by 1 as DEFAULT
 Each node can hold at most  the            1 -th part
 of the gridpoints    

 biggest AO integral is expected to be     6.990327543
  
           ------------------------
               RI-J - INFORMATION
           ------------------------
 
 
 **************************************************
 *      MEMORY ALLOCATION FOR PARALLEL RI-DFT     *
 **************************************************
 
 
MEMORY FOR (MU NU/ ALPHA), SEQUENTIAL RUN               9873 MByte
 
            DIFFERENCE IN MEMORY NEED:       DIAG./SLAVE  
 
      TOTAL DIFFERENCE :                   1395 MByte
 
      difference in xcore:                  128 MByte
      difference in fatmat:                 428 MByte
      getcor calls skipped by slaves:       840 MByte
 
 
           Integral memory available for diagonal.      9873 MByte
 
           Integral memory available for slave             0 MByte
 
         MEMORY FOR (MU NU/ ALPHA) ON DIAGONALIZER      9873 MByte
 
         MEMORY FOR (MU NU/ ALPHA) ON ONE SLAVE            0 MByte
 
         TOTAL MEMORY FOR (MU NU/ ALPHA),ALL NODES      9873 MByte
 
 Contributions to RI integral batches: 
  neglected integral batches:      951293
  direct contribution:             488575
  memory contribution:       66112
 Memory core needed for (P|Q) and Cholesky    115 MByte
 Memory core minimum needed except of (P|Q)    14 MByte
 Total minimum memory core needed (sum)       129 MByte
     number of direct tasks:         160
  
 ****************************************
 Memory allocated for RI-J 10002 MByte
 ****************************************
                                            

          ------------------------
          nuclear repulsion energy  :   11366.5441077    
          ------------------------

 
          -----------------
          -S integrals
          -----------------

 1e-integrals will be neglected if expon. factor < 0.485397E-15
 
          -----------------
          -T+V integrals
          -----------------

 1e-integrals will be neglected if expon. factor < 0.485397E-15
 Difference densities >>NOT<< switched on in parallel ridft!

 automatic virtual orbital shift switched on 
      shift if e(lumo)-e(homo) < 0.10000000    


 DIIS switched on: error vector is FDS-SDF
 Max. Iterations for DIIS is     :   4
 DIIS matrix (see manual) 
    Scaling factor of diagonals  :  1.200
    threshold for scaling factor :  0.000

 scf convergence criterion : increment of total energy < .1000000D-08
                  and increment of one-electron energy < .1000000D-05


 <geterg> : there is no data group $energy 

  MOs are in ASCII format !


 reading orbital data $scfmo  from file mos . 

 orbital characterization : expanded
 
 mo provided and orthogonalized by Cholesky decomposition

 DSCF restart information will be dumped onto file mos


 Starting SCF iterations


 ITERATION  ENERGY          1e-ENERGY        2e-ENERGY     RMS[dD(SAO)]   TOL
   1  -2825.5950165246    -26461.747188     12269.608063    0.000D+00 0.484D-14
                            Exc = -394.648537165     Coul =  12664.2566005    
                              N = 472.00296379    
                            current damping = 0.700
 
          max. resid. norm for Fia-block=  8.227D-01 for orbital     69a         
          max. resid. fock norm         =  4.504D+01 for orbital   4995a         

 ITERATION  ENERGY          1e-ENERGY        2e-ENERGY     RMS[dD(SAO)]   TOL
   2  -2833.4722284841    -26529.120944     12329.104608    0.812D-02 0.484D-14
                            Exc = -398.443862262     Coul =  12727.5484699    
                              N = 472.00234566    
                            current damping = 0.650
 
          Norm of current diis error:  9.4878    
          max. resid. norm for Fia-block=  1.643D-01 for orbital      5a         
          max. resid. fock norm         =  2.969D-01 for orbital   5453a         

 ITERATION  ENERGY          1e-ENERGY        2e-ENERGY     RMS[dD(SAO)]   TOL
   3  -2834.7908269530    -26544.870073     12343.535138    0.253D-02 0.484D-14
                            Exc = -400.438682694     Coul =  12743.9738210    
                              N = 472.00205499    
                            current damping = 0.550
 
          Norm of current diis error:  4.7203    
          max. resid. norm for Fia-block=  6.616D-02 for orbital    215a         
          max. resid. fock norm         =  7.008D-02 for orbital      5a         

 ITERATION  ENERGY          1e-ENERGY        2e-ENERGY     RMS[dD(SAO)]   TOL
   4  -2835.2435947360    -26553.662880     12351.875177    0.973D-03 0.484D-14
                            Exc = -400.574240042     Coul =  12752.4494171    
                              N = 472.00191394    
                            current damping = 0.450
 
          Norm of current diis error:  1.9843    
          max. resid. norm for Fia-block=  4.898D-02 for orbital     68a         
          max. resid. fock norm         =  8.978D-02 for orbital   5367a         

 ITERATION  ENERGY          1e-ENERGY        2e-ENERGY     RMS[dD(SAO)]   TOL
   5  -2835.3046086782    -26555.997682     12354.148966    0.457D-03 0.484D-14
                            Exc = -401.455330259     Coul =  12755.6042963    
                              N = 472.00180768    
                            current damping = 0.350
 
          Norm of current diis error:  1.2654    
          max. resid. norm for Fia-block=  2.422D-02 for orbital    219a         
          max. resid. fock norm         =  4.305D-02 for orbital   5591a         
          mo-orthogonalization: Cholesky decomposition

 ITERATION  ENERGY          1e-ENERGY        2e-ENERGY     RMS[dD(SAO)]   TOL
   6  -2835.3396889613    -26561.010345     12359.126549    0.242D-03 0.484D-14
                            Exc = -401.363637855     Coul =  12760.4901867    
                              N = 472.00179545    
                            current damping = 0.250
 
          Norm of current diis error: 0.59602    
          max. resid. norm for Fia-block=  1.321D-02 for orbital    217a         
          max. resid. fock norm         =  4.008D-02 for orbital   5590a         

 ITERATION  ENERGY          1e-ENERGY        2e-ENERGY     RMS[dD(SAO)]   TOL
   7  -2835.3429113462    -26555.779079     12353.892060    0.104D-03 0.484D-14
                            Exc = -401.269398174     Coul =  12755.1614579    
                              N = 472.00178892    
                            current damping = 0.300
 
          Norm of current diis error: 0.48432    
          max. resid. norm for Fia-block=  5.843D-03 for orbital    216a         
          max. resid. fock norm         =  1.395D-02 for orbital   5593a         

 ITERATION  ENERGY          1e-ENERGY        2e-ENERGY     RMS[dD(SAO)]   TOL
   8  -2835.3481779731    -26558.689244     12356.796958    0.311D-04 0.484D-14
                            Exc = -401.351149516     Coul =  12758.1481074    
                              N = 472.00178754    
                            current damping = 0.350
 
          Norm of current diis error: 0.12188    
          max. resid. norm for Fia-block=  2.035D-03 for orbital    232a         
          max. resid. fock norm         =  4.914D-03 for orbital   5549a         

 ITERATION  ENERGY          1e-ENERGY        2e-ENERGY     RMS[dD(SAO)]   TOL
   9  -2835.3481580681    -26558.240030     12356.347764    0.139D-04 0.484D-14
                            Exc = -401.373479624     Coul =  12757.7212439    
                              N = 472.00178367    
                            current damping = 0.400
 
          Norm of current diis error: 0.12404    
          max. resid. norm for Fia-block=  8.417D-04 for orbital    232a         
          max. resid. fock norm         =  1.683D-03 for orbital   5549a         

 ITERATION  ENERGY          1e-ENERGY        2e-ENERGY     RMS[dD(SAO)]   TOL
  10  -2835.3484492501    -26558.497060     12356.604503    0.562D-05 0.484D-14
                            Exc = -401.364809290     Coul =  12757.9693128    
                              N = 472.00178402    
                            current damping = 0.450
 
          Norm of current diis error: 0.45066E-01
          max. resid. norm for Fia-block=  3.692D-04 for orbital    226a         
          max. resid. fock norm         =  9.683D-04 for orbital   5539a         
          mo-orthogonalization: Cholesky decomposition

 ITERATION  ENERGY          1e-ENERGY        2e-ENERGY     RMS[dD(SAO)]   TOL
  11  -2835.3484868974    -26558.497288     12356.604693    0.305D-05 0.484D-14
                            Exc = -401.360693828     Coul =  12757.9653868    
                              N = 472.00178496    
                            current damping = 0.300
 
          Norm of current diis error: 0.14796E-01
          max. resid. norm for Fia-block=  2.785D-04 for orbital    220a         
          max. resid. fock norm         =  8.156D-04 for orbital   5591a         

 ITERATION  ENERGY          1e-ENERGY        2e-ENERGY     RMS[dD(SAO)]   TOL
  12  -2835.3484882126    -26558.544970     12356.652374    0.151D-05 0.484D-14
                            Exc = -401.361871181     Coul =  12758.0142452    
                              N = 472.00178471    
                            current damping = 0.150
 
          Norm of current diis error: 0.12265E-01
          max. resid. norm for Fia-block=  1.683D-04 for orbital    220a         
          max. resid. fock norm         =  3.880D-04 for orbital   5591a         

 ITERATION  ENERGY          1e-ENERGY        2e-ENERGY     RMS[dD(SAO)]   TOL
  13  -2835.3484915156    -26558.543172     12356.650573    0.884D-06 0.484D-14
                            Exc = -401.360608899     Coul =  12758.0111819    
                              N = 472.00178495    
                            current damping = 0.200
 
          Norm of current diis error: 0.35090E-02
          max. resid. norm for Fia-block=  4.455D-05 for orbital    223a         
          max. resid. fock norm         =  9.308D-05 for orbital   5374a         

 ITERATION  ENERGY          1e-ENERGY        2e-ENERGY     RMS[dD(SAO)]   TOL
  14  -2835.3484917149    -26558.522989     12356.630389    0.339D-06 0.484D-14
                            Exc = -401.360759768     Coul =  12757.9911491    
                              N = 472.00178486    
                            current damping = 0.050
 
          Norm of current diis error: 0.20565E-02
          max. resid. norm for Fia-block=  1.816D-05 for orbital    230a         
          max. resid. fock norm         =  3.180D-05 for orbital   5539a         
          irrep a   : virtual orbitals shifted by    0.00580

 ITERATION  ENERGY          1e-ENERGY        2e-ENERGY     RMS[dD(SAO)]   TOL
  15  -2835.3484917806    -26558.535368     12356.642769    0.161D-06 0.484D-14
                            Exc = -401.360992780     Coul =  12758.0037616    
                              N = 472.00178486    
                            current damping = 0.100
 
          Norm of current diis error: 0.10924E-02
          max. resid. norm for Fia-block=  9.475D-06 for orbital    232a         
          max. resid. fock norm         =  2.506D-05 for orbital   5549a         
          irrep a   : virtual orbitals shifted by    0.00131
          mo-orthogonalization: Cholesky decomposition

 DENSITY CONVERGED !


 ITERATION  ENERGY          1e-ENERGY        2e-ENERGY     RMS[dD(SAO)]   TOL
  16  -2835.3484917992    -26558.531321     12356.638722    0.831D-07 0.484D-14
                            Exc = -401.360814338     Coul =  12757.9995359    
                              N = 472.00178487    
                            current damping = 0.150
 
          Norm of current diis error: 0.56382E-03
          max. resid. norm for Fia-block=  5.365D-06 for orbital    236a         
          max. resid. fock norm         =  1.093D-05 for orbital   5545a         

 DENSITY CONVERGED !


 ITERATION  ENERGY          1e-ENERGY        2e-ENERGY     RMS[dD(SAO)]   TOL
  17  -2835.3484918041    -26558.532052     12356.639452    0.425D-07 0.484D-14
                            Exc = -401.360818624     Coul =  12758.0002709    
                              N = 472.00178488    
                            current damping = 0.200
 
          Norm of current diis error: 0.28123E-03
          max. resid. norm for Fia-block=  3.132D-06 for orbital    236a         
          max. resid. fock norm         =  6.309D-06 for orbital   5546a         

 DENSITY CONVERGED !


 ITERATION  ENERGY          1e-ENERGY        2e-ENERGY     RMS[dD(SAO)]   TOL
  18  -2835.3484918051    -26558.532129     12356.639530    0.200D-07 0.484D-14
                            Exc = -401.360848688     Coul =  12758.0003782    
                              N = 472.00178487    
                            current damping = 0.050
 
          Norm of current diis error: 0.11010E-03
          max. resid. norm for Fia-block=  1.110D-06 for orbital    236a         
          max. resid. fock norm         =  2.300D-06 for orbital   5544a         
          irrep a   : virtual orbitals shifted by    0.00579

 DENSITY CONVERGED !


 ITERATION  ENERGY          1e-ENERGY        2e-ENERGY     RMS[dD(SAO)]   TOL
  19  -2835.3484918058    -26558.531826     12356.639226    0.861D-08 0.484D-14
                            Exc = -401.360844752     Coul =  12758.0000708    
                              N = 472.00178487    
                            current damping = 0.100
 
          Norm of current diis error: 0.77233E-04
          max. resid. norm for Fia-block=  7.099D-07 for orbital    219a         
          max. resid. fock norm         =  1.665D-06 for orbital   5475a         
          irrep a   : virtual orbitals shifted by    0.00131

 DENSITY CONVERGED !


 ITERATION  ENERGY          1e-ENERGY        2e-ENERGY     RMS[dD(SAO)]   TOL
  20  -2835.3484918061    -26558.532206     12356.639607    0.522D-08 0.484D-14
                            Exc = -401.360841006     Coul =  12758.0004479    
                              N = 472.00178487    
                            current damping = 0.150
 
          Norm of current diis error: 0.36247E-04
          max. resid. norm for Fia-block=  3.764D-07 for orbital    221a         
          max. resid. fock norm         =  6.808D-07 for orbital   5590a         
          mo-orthogonalization: Cholesky decomposition

 DENSITY CONVERGED !


 ITERATION  ENERGY          1e-ENERGY        2e-ENERGY     RMS[dD(SAO)]   TOL
  21  -2835.3484918058    -26558.531899     12356.639300    0.326D-08 0.484D-14
                            Exc = -401.360841781     Coul =  12758.0001416    
                              N = 472.00178487    
                            current damping = 0.200
 
          Norm of current diis error: 0.22229E-04
          max. resid. norm for Fia-block=  1.631D-07 for orbital    232a         
          max. resid. fock norm         =  3.965D-07 for orbital   5374a         

 DENSITY CONVERGED !


 ITERATION  ENERGY          1e-ENERGY        2e-ENERGY     RMS[dD(SAO)]   TOL
  22  -2835.3484918061    -26558.532022     12356.639423    0.139D-08 0.484D-14
                            Exc = -401.360842947     Coul =  12758.0002658    
                              N = 472.00178487    
                            current damping = 0.250
 
          Norm of current diis error: 0.74551E-05
          max. resid. norm for Fia-block=  7.142D-08 for orbital    216a         
          max. resid. fock norm         =  1.298D-07 for orbital   5591a         

 ENERGY & DENSITY CONVERGED !


 ITERATION  ENERGY          1e-ENERGY        2e-ENERGY     RMS[dD(SAO)]   TOL
  23  -2835.3482385527    -26558.532015     12356.639669    0.596D-09 0.484D-14
                            Exc = -401.360588708     Coul =  12758.0002578    
                              N = 471.99975909    
                            current damping = 0.300
 
          Norm of current diis error: 0.45562E-05
          max. resid. norm for Fia-block=  3.593D-08 for orbital    235a         
          max. resid. fock norm         =  7.492D-08 for orbital   5546a         

 End of SCF iterations

   convergence criteria satisfied after   23 iterations


                  ------------------------------------------ 
                 |  total energy      =  -2835.34823855265  |
                  ------------------------------------------ 
                 :  kinetic energy    =   2822.80738962574  :
                 :  potential energy  =  -5658.15562817839  :
                 :  virial theorem    =      1.99557696344  :
                 :  wavefunction norm =      1.00000000000  :
                  .......................................... 


 <geterg> : there is no data group $energy 


 <skperg> : $end is missing 


 orbitals $scfmo  will be written to file mos

    irrep                232a        233a        234a        235a        236a   
 eigenvalues H         -0.10582    -0.09702    -0.09010    -0.08479    -0.07142
            eV          -2.8794     -2.6400     -2.4516     -2.3072     -1.9436
 occupation              2.0000      2.0000      2.0000      2.0000      2.0000 

    irrep                237a        238a        239a        240a        241a   
 eigenvalues H          0.01830     0.02266     0.02544     0.04452     0.06089
            eV           0.4979      0.6166      0.6923      1.2115      1.6568
 
 
 ! grave: sending quit signal to master process
 
 
 
 
 ==============================================================================
                           electrostatic moments
 ==============================================================================

 reference point for electrostatic moments:    0.00000   0.00000   0.00000

 
              nuc           elec       ->  total
 ------------------------------------------------------------------------------
                          charge      
 ------------------------------------------------------------------------------
         471.000000    -472.000000      -1.000000
 
 ------------------------------------------------------------------------------
                       dipole moment  
 ------------------------------------------------------------------------------
   x      -0.000398       0.002224       0.001826
   y       0.023124      -0.026664      -0.003540
   z     -31.368982      32.079549       0.710567
 
   | dipole moment | =     0.7106 a.u. =     1.8061 debye 
 
 ------------------------------------------------------------------------------
                     quadrupole moment
 ------------------------------------------------------------------------------
  xx   14650.268807  -14980.923405    -330.654598
  yy   10286.891412  -10590.652177    -303.760766
  zz   12148.148861  -12487.506108    -339.357247
  xy    -620.915487     613.196401      -7.719086
  xz       4.454398      -4.448362       0.006035
  yz      -7.260552       7.411845       0.151294
 
     1/3  trace=    -324.590870
     anisotropy=      34.812117
 
 ==============================================================================
 

    ridft profiling
  --------------------------------------------------------------------
             module   cpu total (s)       %  wall total (s)       %

               RIDFT         16852.5  100.00         16858.5  100.00
         Ridft_b_scf           529.0    3.14           528.6    3.14
        b_scf_prelim             0.0    0.00             0.0    0.00
        b_scf_molinp             0.0    0.00             0.0    0.00
         b_scf_init0             0.0    0.00             0.0    0.00
        b_scf_auxbas             0.0    0.00             0.0    0.00
      b_scf_symmetry             0.0    0.00             0.0    0.00
         b_scf_cosmo             0.0    0.00             0.0    0.00
        b_scf_params            34.8    0.21            34.8    0.21
          b_scf_ri-j            76.8    0.46            76.8    0.46
    b_scf_ri-j_auxpq            76.6    0.45            76.5    0.45
     ri-j_auxpq_chol             8.1    0.05             8.1    0.05
         b_scf_1elec            22.2    0.13            22.2    0.13
       b_scf_moinput           395.1    2.34           394.8    2.34
     moinput_orthmos           393.5    2.34           393.2    2.33
    b_scf_dft-dstmax             0.0    0.00             0.0    0.00
           Ridft_scf         16318.1   96.83         16324.5   96.83
          Scf_b_loop             0.0    0.00             0.0    0.00
                noga             0.0    0.00             0.0    0.00
            Scf_loop         16296.7   96.70         16303.0   96.71
     scf_loop_mkdmat            90.1    0.53            90.6    0.54
       scf_loop_ri-j          3895.9   23.12          3893.4   23.09
      parlp1.bc.dens             6.0    0.04             6.0    0.04
        parlp1.gs.gp            46.7    0.28            46.6    0.28
        parlp2.bc.gq             0.0    0.00             0.0    0.00
        scf_loop_dft          6861.2   40.71          6857.8   40.68
      pardft.bc.dens             0.0    0.00             0.0    0.00
        dft_grid_con            10.4    0.06            10.4    0.06
           dft_xcrhf          6695.9   39.73          6692.6   39.70
          dft_getval           132.4    0.79           132.3    0.78
          funct2 dst             2.0    0.01             2.0    0.01
      funct2 f2loop1            21.8    0.13            21.8    0.13
      funct2 f2loop2            56.8    0.34            56.8    0.34
          funct2 s+c            49.9    0.30            50.0    0.30
        funct2 cmf_2            45.4    0.27            45.5    0.27
          dft_mkdens          2657.0   15.77          2655.8   15.75
         dft_gga-fun             1.1    0.01             1.1    0.01
          dft_mkfock          3903.8   23.16          3901.9   23.14
     pardft.red.fock           495.5    2.94           495.3    2.94
     scf_loop_energy             0.5    0.00             1.7    0.01
     scf_loop_mkfock             1.0    0.01             1.0    0.01
       scf_loop_diis          3056.4   18.14          3066.6   18.19
       scf_loop_diag          1469.8    8.72          1469.0    8.71
         diag_tritrn           518.6    3.08           518.3    3.07
          diag_rdiag           949.0    5.63           948.4    5.63
     scf_loop_modump           431.9    2.56           433.2    2.57
      scf_loop_ortho           472.2    2.80           471.9    2.80
          Scf_a_loop            21.4    0.13            21.5    0.13
         Ridft_a_scf             5.4    0.03             5.4    0.03
         a_scf_fanal             5.3    0.03             5.4    0.03
 


    ------------------------------------------------------------------------
         total  cpu-time :  4 hours 41 minutes and 22 seconds
         total wall-time :  4 hours 41 minutes and 28 seconds
    ------------------------------------------------------------------------


   ****  ridft : all done  ****


    2017-11-07 05:21:33.039 

