
   OpenMP run-time library returned nthreads = 28
 operating system is UNIX !

 dscf (c-19-412) : TURBOMOLE V7.3 ( 22142 ) 4 Jul 2018 at 18:12:42
 Copyright (C) 2018 TURBOMOLE GmbH, Karlsruhe


    2019-03-26 19:44:09.924 



                             d s c f - program

                   idea & directorship : reinhart ahlrichs
                   program development : marco haeser
                                         michael baer
                           dft version : oliver treutler


                          quantum chemistry group
                          universitaet  karlsruhe
                                  germany




                          References             
                                                 
          TURBOMOLE:                             
              R. Ahlrichs, M. Baer, M. Haeser, H. Horn, and
              C. Koelmel
              Electronic structure calculations on workstation
              computers: the program system TURBOMOLE
              Chem. Phys. Lett. 162: 165 (1989)
          Density Functional:                              
              O. Treutler and R. Ahlrichs                      
              Efficient Molecular Numerical Integration Schemes
              J. Chem. Phys. 102: 346 (1995)                   
          Parallel Version:                                
              Performance of parallel TURBOMOLE for Density    
              Functional Calculations                          
              M. v. Arnim and R. Ahlrichs                      
              J. Comp. Chem. 19: 1746 (1998)                   
                                         




              +--------------------------------------------------+
              | Atomic coordinate, charge and isotop information |
              +--------------------------------------------------+

                    atomic coordinates            atom    charge  isotop
         -3.02021322   -5.57287040    6.14160993    c      6.000     0
         -7.55992498   -5.49254003    6.14160993    c      6.000     0
         -7.57917751   -2.96661681    6.14160993    c      6.000     0
         -5.13872849   -1.73612541    6.14160993    c      6.000     0
         -5.34962382   -6.77813772    6.14160993    n      7.000     0
         -3.01397334   -3.02330859    6.14160993    n      7.000     0
         -5.01381949    0.76047871    6.14160993    n      7.000     0
         -1.13019040   -6.85880446    6.14160993    o      8.000     0
         -5.30378284   -8.65690911    6.14160993    h      1.000     0
         -9.25454067   -6.60873133    6.14160993    h      1.000     0
         -9.30421779   -1.90668642    6.14160993    h      1.000     0
         -6.57529074    1.79538156    6.14160993    h      1.000     0
         -3.32233507    1.63396871    6.14160993    h      1.000     0
          2.02057455    2.09509212    6.14160993    c      6.000     0
          4.31882924   -1.93152310    6.14160993    c      6.000     0
          6.52909072    1.59570364    6.14160993    c      6.000     0
          4.48320895    3.19202901    6.14160993    c      6.000     0
          7.66977287    5.57318976    6.14160993    c      6.000     0
          2.15879290   -0.53650459    6.14160993    n      7.000     0
          6.57508098   -0.94499535    6.14160993    n      7.000     0
          5.26063662    5.68364992    6.14160993    n      7.000     0
          8.57326795    3.13252153    6.14160993    n      7.000     0
          4.03373759   -4.43966966    6.14160993    n      7.000     0
         -0.02458345    3.12065405    6.14160993    o      8.000     0
          0.48192174   -1.43893196    6.14160993    h      1.000     0
          8.92516519    7.16093010    6.14160993    h      1.000     0
         10.36302946    2.57112358    6.14160993    h      1.000     0
          5.59543373   -5.47388087    6.14160993    h      1.000     0
          2.33979087   -5.28069984    6.14160993    h      1.000     0
 
       center of nuclear mass  :    0.69155294   -0.85881381    6.14160993
       center of nuclear charge:    0.64423729   -0.88671593    6.14160993

              +--------------------------------------------------+
              |               basis set information              |
              +--------------------------------------------------+

              we will work with the 1s 3p 5d 7f 9g ... basis set
              ...i.e. with spherical basis functions...

   type   atoms  prim   cont   basis
   ---------------------------------------------------------------------------
    c        9     50     30   cc-pVTZ   [4s3p2d1f|18s5p2d1f]
    n        8     50     30   cc-pVTZ   [4s3p2d1f|18s5p2d1f]
    o        2     50     30   cc-pVTZ   [4s3p2d1f|18s5p2d1f]
    h       10     16     14   cc-pVTZ   [3s2p1d|5s2p1d]
   ---------------------------------------------------------------------------
   total:   29   1110    710
   ---------------------------------------------------------------------------

   total number of primitive shells          :   86
   total number of contracted shells         :  250
   total number of cartesian basis functions :  815
   total number of SCF-basis functions       :  710


 integral neglect threshold       :  0.41E-13
 integral storage threshold THIZE :  0.10E-04
 integral storage threshold THIME :         5


 DENSITY CONVERGENCE CHECK SWITCHED ON !
 SCF CONVERGENCE IF RMS(delta[D]) <     0.1000000000E-06


 symmetry group of the molecule :   c1 

 the group has the following generators :
   c1(z)

    1 symmetry operations found

 there are 1 real representations :   a   

 maximum number of shells which are related by symmetry :  1


    mo occupation :
   irrep   mo's   occupied
    a      710       68
 
 number of basis functions   :                    710
 number of occupied orbitals :                     68
 

 automatic virtual orbital shift switched on 
      shift if e(lumo)-e(homo) < 0.10000000    


          ------------------------
          nuclear repulsion energy  :   1391.97687302    
          ------------------------


         -----------------
         -S,T+V- integrals
         -----------------

 1e-integrals will be neglected if expon. factor < 0.410057E-14
 
   Difference densities algorithm switched on.
   The maximal number of linear combinations of
   difference densities is                    20 .

 DIIS switched on: error vector is FDS-SDF
 Max. Iterations for DIIS is     :   5
 DIIS matrix (see manual) 
    Scaling factor of diagonals  :  1.200
    threshold for scaling factor :  0.000

 scf convergence criterion : increment of total energy < .1000000D-08
                  and increment of one-electron energy < .1000000D-05

  MOs are in ASCII format !


 reading orbital data $scfmo  from file mos
 orbital characterization : expanded
 mo provided and orthogonalized by Cholesky decomposition

 DSCF restart information will be dumped onto file mos

 
                                              current damping :  0.700
 ITERATION  ENERGY          1e-ENERGY        2e-ENERGY     RMS[dD(SAO)]   TOL
   1  -928.40529057097    -4020.1349789     1699.7528153    0.000D+00 0.409D-13
          max. resid. norm for Fia-block=  3.665D-01 for orbital     57a         
          max. resid. fock norm         =  5.143D+00 for orbital    662a         
          Delta Eig. =   219.9533618861 eV 
 
                                              current damping :  0.650
 ITERATION  ENERGY          1e-ENERGY        2e-ENERGY     RMS[dD(SAO)]   TOL
   2  -931.50920729654    -4031.4436338     1707.9575535    0.302D-02 0.270D-13
          Norm of current diis error:  4.6684    
          max. resid. norm for Fia-block=  1.815D-01 for orbital      2a         
          max. resid. fock norm         =  2.777D-01 for orbital    696a         
          Delta Eig. =    95.3919747966 eV 
 
                                              current damping :  0.550
 ITERATION  ENERGY          1e-ENERGY        2e-ENERGY     RMS[dD(SAO)]   TOL
   3  -932.15687688462    -4036.3586325     1712.2248826    0.163D-02 0.206D-13
          Norm of current diis error:  2.2085    
          max. resid. norm for Fia-block=  8.613D-02 for orbital     22a         
          max. resid. fock norm         =  9.166D-02 for orbital     22a         
          Delta Eig. =    40.6667619324 eV 
 
                                              current damping :  0.450
 ITERATION  ENERGY          1e-ENERGY        2e-ENERGY     RMS[dD(SAO)]   TOL
   4  -932.34061047476    -4038.0417772     1713.7242937    0.109D-02 0.171D-13
          Norm of current diis error: 0.92618    
          max. resid. norm for Fia-block=  3.818D-02 for orbital     22a         
          max. resid. fock norm         =  4.358D-02 for orbital     22a         
          Delta Eig. =    15.4741434566 eV 
 
                                              current damping :  0.350
 ITERATION  ENERGY          1e-ENERGY        2e-ENERGY     RMS[dD(SAO)]   TOL
   5  -932.38158035754    -4038.7100610     1714.3516076    0.658D-03 0.150D-13
          Norm of current diis error: 0.34731    
          max. resid. norm for Fia-block=  1.463D-02 for orbital     58a         
          max. resid. fock norm         =  1.611D-02 for orbital     22a         
 mo-orthogonalization: Cholesky decomposition
          Delta Eig. =     5.1514215859 eV 
 
                                              current damping :  0.200
 ITERATION  ENERGY          1e-ENERGY        2e-ENERGY     RMS[dD(SAO)]   TOL
   6  -932.38913114852    -4038.9553950     1714.5893909    0.343D-03 0.138D-13
          Norm of current diis error: 0.11751    
          max. resid. norm for Fia-block=  5.724D-03 for orbital     68a         
          max. resid. fock norm         =  5.971D-03 for orbital     58a         
          Delta Eig. =     1.4994402280 eV 
 
                                              current damping :  0.050
 ITERATION  ENERGY          1e-ENERGY        2e-ENERGY     RMS[dD(SAO)]   TOL
   7  -932.39036726663    -4039.0218376     1714.6545973    0.155D-03 0.129D-13
          Norm of current diis error: 0.38145E-01
          max. resid. norm for Fia-block=  2.787D-03 for orbital     68a         
          max. resid. fock norm         =  2.842D-03 for orbital     73a         
          Delta Eig. =     0.2831764725 eV 
 
                                              current damping :  0.050
 ITERATION  ENERGY          1e-ENERGY        2e-ENERGY     RMS[dD(SAO)]   TOL
   8  -932.39056905398    -4039.0353901     1714.6679480    0.610D-04 0.124D-13
          Norm of current diis error: 0.14050E-01
          max. resid. norm for Fia-block=  1.333D-03 for orbital     68a         
          max. resid. fock norm         =  1.347D-03 for orbital     68a         
          Delta Eig. =     0.0733379173 eV 
 
                                              current damping :  0.100
 ITERATION  ENERGY          1e-ENERGY        2e-ENERGY     RMS[dD(SAO)]   TOL
   9  -932.39060186593    -4039.0306837     1714.6632088    0.189D-04 0.120D-13
          Norm of current diis error: 0.62763E-02
          max. resid. norm for Fia-block=  6.788D-04 for orbital     68a         
          max. resid. fock norm         =  7.274D-04 for orbital     68a         
          Delta Eig. =     0.0396677049 eV 
 
                                              current damping :  0.150
 ITERATION  ENERGY          1e-ENERGY        2e-ENERGY     RMS[dD(SAO)]   TOL
  10  -932.39060822317    -4039.0316017     1714.6641205    0.668D-05 0.117D-13
          Norm of current diis error: 0.34462E-02
          max. resid. norm for Fia-block=  3.428D-04 for orbital     68a         
          max. resid. fock norm         =  3.799D-04 for orbital     62a         
 mo-orthogonalization: Cholesky decomposition
          Delta Eig. =     0.0247963373 eV 
 
                                              current damping :  0.200
 ITERATION  ENERGY          1e-ENERGY        2e-ENERGY     RMS[dD(SAO)]   TOL
  11  -932.39060976427    -4039.0293974     1714.6619146    0.410D-05 0.115D-13
          Norm of current diis error: 0.11546E-02
          max. resid. norm for Fia-block=  1.715D-04 for orbital     68a         
          max. resid. fock norm         =  1.751D-04 for orbital     68a         
          Delta Eig. =     0.0026890457 eV 
 
                                              current damping :  0.050
 ITERATION  ENERGY          1e-ENERGY        2e-ENERGY     RMS[dD(SAO)]   TOL
  12  -932.39061003250    -4039.0291823     1714.6616992    0.182D-05 0.113D-13
          Norm of current diis error: 0.43382E-03
          max. resid. norm for Fia-block=  6.563D-05 for orbital     68a         
          max. resid. fock norm         =  6.607D-05 for orbital     68a         
          Delta Eig. =     0.0010903822 eV 
 
                                              current damping :  0.050
 ITERATION  ENERGY          1e-ENERGY        2e-ENERGY     RMS[dD(SAO)]   TOL
  13  -932.39061007158    -4039.0288758     1714.6613927    0.859D-06 0.111D-13
          Norm of current diis error: 0.14365E-03
          max. resid. norm for Fia-block=  1.554D-05 for orbital     68a         
          max. resid. fock norm         =  1.671D-05 for orbital     66a         
          Delta Eig. =     0.0007359411 eV 
 
                                              current damping :  0.050
 ITERATION  ENERGY          1e-ENERGY        2e-ENERGY     RMS[dD(SAO)]   TOL
  14  -932.39061007468    -4039.0288544     1714.6613713    0.250D-06 0.110D-13
          Norm of current diis error: 0.67111E-04
          max. resid. norm for Fia-block=  3.900D-06 for orbital     68a         
          max. resid. fock norm         =  5.643D-06 for orbital    702a         
          Delta Eig. =     0.0003842203 eV 

 DENSITY CONVERGED !

 
                                              current damping :  0.050
 ITERATION  ENERGY          1e-ENERGY        2e-ENERGY     RMS[dD(SAO)]   TOL
  15  -932.39061007506    -4039.0288271     1714.6613440    0.464D-07 0.109D-13
          Norm of current diis error: 0.26223E-04
          max. resid. norm for Fia-block=  2.655D-06 for orbital     66a         
          max. resid. fock norm         =  2.925D-06 for orbital     66a         
 mo-orthogonalization: Cholesky decomposition
          Delta Eig. =     0.0000969750 eV 

 ENERGY & DENSITY CONVERGED !

 
                                              current damping :  0.050
 ITERATION  ENERGY          1e-ENERGY        2e-ENERGY     RMS[dD(SAO)]   TOL
  16  -932.39061007512    -4039.0288250     1714.6613419    0.275D-07 0.117D-13
          max. resid. norm for Fia-block=  5.505D-07 for orbital     67a         
          max. resid. fock norm         =  8.470D-07 for orbital    706a         

 convergence criteria satisfied after    16 iterations


                  ------------------------------------------ 
                 |  total energy      =   -932.39061007512  |
                  ------------------------------------------ 
                 :  kinetic energy    =    931.79840326382  :
                 :  potential energy  =  -1864.18901333894  :
                 :  virial theorem    =      1.99936485116  :
                 :  wavefunction norm =      1.00000000000  :
                  .......................................... 


 <geterg> : there is no data group $energy 


 orbitals $scfmo  will be written to file mos

    irrep                 64a         65a         66a         67a         68a   
 eigenvalues H         -0.40699    -0.38969    -0.38816    -0.36198    -0.27950
            eV         -11.0748    -10.6042    -10.5624     -9.8500     -7.6057
 occupation              2.0000      2.0000      2.0000      2.0000      2.0000 

    irrep                 69a         70a         71a         72a         73a   
 eigenvalues H          0.09692     0.11540     0.13838     0.14833     0.16468
            eV           2.6375      3.1402      3.7656      4.0363      4.4813
 
 
 
 
 ==============================================================================
                           electrostatic moments
 ==============================================================================

 reference point for electrostatic moments:    0.00000   0.00000   0.00000

 
              nuc           elec       ->  total
 ------------------------------------------------------------------------------
                          charge      
 ------------------------------------------------------------------------------
         136.000000    -136.000000      -0.000000
 
 ------------------------------------------------------------------------------
                       dipole moment  
 ------------------------------------------------------------------------------
   x      87.616272     -89.385271      -1.768999
   y    -120.593366     118.905918      -1.687448
   z     835.258951    -835.258951      -0.000000
 
   | dipole moment | =     2.4448 a.u. =     6.2140 debye 
 
 ------------------------------------------------------------------------------
                     quadrupole moment
 ------------------------------------------------------------------------------
  xx    3852.641636   -3893.251572     -40.609936
  yy    2280.633262   -2359.408762     -78.775501
  zz    5129.834668   -5213.360285     -83.525617
  xy    1645.863375   -1631.222940      14.640435
  xz     538.104963    -548.969467     -10.864504
  yz    -740.637417     730.273767     -10.363650
 
     1/3  trace=     -67.637018
     anisotropy=      54.587726
 
 ==============================================================================
 


    ------------------------------------------------------------------------
         total  cpu-time :  1 hours 10 minutes and 55 seconds
         total wall-time :  2 minutes and 41 seconds
    ------------------------------------------------------------------------

   ****  dscf : all done  ****


    2019-03-26 19:46:51.094 

