
   OpenMP run-time library returned nthreads = 28

 ricc2 (c-15-33) : TURBOMOLE V7.3 ( 22142 ) 4 Jul 2018 at 18:12:42
 Copyright (C) 2018 TURBOMOLE GmbH, Karlsruhe


    2019-04-01 23:50:41.046 



                              R I C C 2 - PROGRAM

                          the quantum chemistry groups
                             at the universities in
                           Karlsruhe, Bochum & Mainz
                                   Germany



   *-----------------------------------------------------------------------*
   |                     program will use 28 thread(s)                     |
   *-----------------------------------------------------------------------*


              +--------------------------------------------------+
              | Atomic coordinate, charge and isotop information |
              +--------------------------------------------------+

                    atomic coordinates            atom    charge  isotop
          1.43571787    1.94882743    0.70632746    c      0.000     0
          2.71178772    3.54449179    0.70808910    h      0.000     0
          2.39356073   -0.50524160    0.79609074    c      0.000     0
          4.41235172   -0.81103302    0.86820130    h      0.000     0
          0.74704756   -2.56245194    0.80295429    c      0.000     0
          1.49035507   -4.46446398    0.87501027    h      0.000     0
         -1.85609966   -2.16686280    0.72049633    c      0.000     0
         -3.13251646   -3.76270966    0.72777322    h      0.000     0
         -2.81445627    0.28563171    0.63791927    c      0.000     0
         -4.83381937    0.59290250    0.58150464    h      0.000     0
         -1.16931558    2.34388630    0.63094881    c      0.000     0
         -1.91195236    4.24641663    0.57517446    h      0.000     0
          0.08885294    0.57860650    6.96385486    o      8.000     0
          0.25155877    0.67285299    5.15502121    h      1.000     0
         -1.60462626   -1.41999445    7.49875137    c      6.000     0
         -1.78551216   -1.52720727    9.54142463    h      1.000     0
         -3.47951727   -1.09553274    6.69790394    h      1.000     0
         -0.91211662   -3.23987832    6.81294799    h      1.000     0
 
       center of nuclear mass  :   -0.36561518   -0.19582021    2.59514044
       center of nuclear charge:   -0.82458452   -0.50449333    7.16170249

              +--------------------------------------------------+
              |               basis set information              |
              +--------------------------------------------------+

              we will work with the 1s 3p 5d 7f 9g ... basis set
              ...i.e. with spherical basis functions...

   type   atoms  prim   cont   basis
   ---------------------------------------------------------------------------
    c        7     77     55   cc-pVQZ   [5s4p3d2f1g|21s6p3d2f1g]
    h       10     32     30   cc-pVQZ   [4s3p2d1f|6s3p2d1f]
    o        1     77     55   cc-pVQZ   [5s4p3d2f1g|21s6p3d2f1g]
   ---------------------------------------------------------------------------
   total:   18    936    740
   ---------------------------------------------------------------------------

   total number of primitive shells          :   78
   total number of contracted shells         :  220
   total number of cartesian basis functions :  910
   total number of SCF-basis functions       :  740


 symmetry group of the molecule :   c1 

 the group has the following generators :
   c1(z)

    1 symmetry operations found

 there are 1 real representations :   a   


   =========================================================================


     restricted closed shell calculation for the wavefunction models:
               MP2        - Second Order Moeller Plesset PT


     global parameters for ricc2 program:

        hard restart (reuse of interm.) :  disabled
        soft restart (reuse of vectors) :  disabled
        threshold for vector function   :    0.100000E-05
        convergence threshold energy    :    0.100000E-06
        linear dependence threshold     :    0.100000E-13
        global print level              :      1
        maximum number of iterations    :   300
        maximum number DIIS vectors     :    10
        max. dim. of reduced space      :   100
        core memory limit (MB)          : *****


     MP2 energy only: Energy will be calculated directly from T2 amplitudes!

     Scratch Directory : 


   =========================================================================

    der. integral neglect threshold  :  0.10E-07
    integral neglect threshold       :  0.37E-11
    integral storage threshold THIZE :  0.10E-04
    integral storage threshold THIME :         5


                  +------------------------------------------+
                  |     Auxiliary basis set information      |
                  +------------------------------------------+

              we will work with the 1s 3p 5d 7f 9g ... basis set
              ...i.e. with spherical basis functions...

   type   atoms  prim   cont   basis
   ---------------------------------------------------------------------------
    c        7    132    132   cc-pVQZ   [8s7p6d5f3g1h|8s7p6d5f3g1h]
    h       10     55     55   cc-pVQZ   [5s4p3d2f1g|5s4p3d2f1g]
    o        1    132    132   cc-pVQZ   [8s7p6d5f3g1h|8s7p6d5f3g1h]
   ---------------------------------------------------------------------------
   total:   18   1606   1606
   ---------------------------------------------------------------------------

   total number of primitive shells          :   75
   total number of contracted shells         :  390
   total number of cartesian basis functions : 2148
   total number of SCF-basis functions       : 1606


 maximum number of shells which are related by symmetry :  1


 The symmetry information takes   1 MB

*---------------------------------------------------------------------*
|               simplified C1 algorithm will be applied               |
*---------------------------------------------------------------------*
  MOs are in ASCII format !


 reading orbital data $scfmo  from file mos
 orbital characterization : scfconv=9



              +--------------------------------------------+
              | list of orbitals that will be kept frozen: |
              +--------------------------------------------+
              |   irrep   index      energy     occ/vir    |
              +--------------------------------------------+
              |   a         1      -20.5561     occupied   |
              |   a         2      -11.2689     occupied   |
              +--------------------------------------------+



   Molecular Orbital Statistic:
   ============================

   -----------------------------
   orbitals in total:
   -----------------------------
    frozen occupied :      2
    active occupied :      7
    active virtual  :    731
    frozen virtual  :      0
    all together    :    740
   -----------------------------


     time in riccmos       cpu:  9.66 sec    wall:  0.79 sec    ratio: 12.2

     total memory allocated for calculation of (Q|P)**(-1/2) : 30 MiB


     calculation of (P|Q) ...
     time in lp2sym        cpu:  3.09 sec    wall:  0.11 sec    ratio: 28.1


     calculation of the Cholesky decomposition of (P|Q)**(-1) ...
     time in invmetri      cpu: 12.23 sec    wall:  0.48 sec    ratio: 25.3

   threshold for RMS(d[D]) in SCF was     :  0.10E-06
   integral neglect threshold             :  0.37E-11
   derivative integral neglect threshold  :  0.10E-07


   =========================================================================

     Energy of reference wave function is  -115.0989557326000
     Maximum orbital residual is           0.2353269140741E-06


     Number of symmetry-nonredundant auxiliary basis functions:     1606

     Block lengths for integral files:
        frozen occupied (BOI):        1 MiB
        active occupied (BJI):        1 MiB
        active virtual  (BAI):        9 MiB
        frozen virtual  (BGI):        0 MiB
               general  (BTI):       10 MiB

   =========================================================================




   **************************************************************************
   *                                                                        *
   *          OPTIMIZATION OF THE GROUND STATE CLUSTER AMPLITUDES           *
   *                                                                        *
   **************************************************************************


   Iter.   MP2 energy       Norm(Omega)   Norm(t1)  Norm(t2)     cpu    wall
   ...........................................................................
    1   -115.5588891842     ------          0.00000   0.20729    0.76    0.03
   ...........................................................................


     time in total         cpu: 46.10 sec    wall:  1.68 sec    ratio: 27.5


     **********************************************************************
     *                                                                    *
     *   RHF  energy                             :   -115.0989557326      *
     *   MP2 correlation energy (doubles)        :     -0.4599334516      *
     *                                                                    *
     *   Final MP2 energy                        :   -115.5588891842      *
     *                                                                    *
     *    E(S)   =     -0.3059273059      E(T)   =     -0.1540061457      *
     *    E(OS)  =     -0.3572626878      E(SS)  =     -0.1026707638      *
     *                                                                    *
     *   SCS-MP2 energy                          :   -115.5618945459      *
     *   (computed with  C(OS) =   1.2000  and  C(SS) =   0.3333)         *
     *                                                                    *
     *   SOS-MP2 energy                          :   -115.5633972267      *
     *   (computed with  C(OS) =   1.3000)                                *
     *                                                                    *
     *   Norm of MP1 T2 amplitudes               :      0.2072893843      *
     *                                                                    *
     **********************************************************************



    ------------------------------------------------------------------------
         total  cpu-time :  2 minutes and 30 seconds
         total wall-time :   6.53 seconds
    ------------------------------------------------------------------------

   ****  ricc2 : all done  ****


    2019-04-01 23:50:47.523 

