STARTING ridft ON 16 PROCESSORS!
RUNNING PROGRAM /sopt/TURBOMOLE/7.3-official/bin/em64t-unknown-linux-gnu_smp/ridft_mpi.
           SMPCPUS    set: Shared-memory Parallelization with  16 CPUs.

           SMP Parallelization Reference:
           C. van Wullen, J. Comput. Chem. 32 (2011) 1195--1201
 operating system is UNIX !

 ridft (c-13-33) : TURBOMOLE V7.3 ( 22118 ) 1 Jul 2018 at 20:38:15
 Copyright (C) 2018 TURBOMOLE GmbH, Karlsruhe


    2019-03-12 22:50:28.510 



                                  r i d f t

                        DFT program with RI approximation 
                                for coulomb part 




                                                 
                                 References:     
                                                 
          TURBOMOLE:                             
              R. Ahlrichs, M. Baer, M. Haeser, H. Horn, and
              C. Koelmel
              Electronic structure calculations on workstation
              computers: the program system TURBOMOLE
              Chem. Phys. Lett. 162: 165 (1989)
          Density Functional:                              
              O. Treutler and R. Ahlrichs                      
              Efficient Molecular Numerical Integration Schemes
              J. Chem. Phys. 102: 346 (1995)                   
          Parallel Version:                                
              Performance of parallel TURBOMOLE for Density    
              Functional Calculations                          
              M. v. Arnim and R. Ahlrichs                      
              J. Comp. Chem. 19: 1746 (1998)                   
          RI-J Method:                                     
              Auxiliary Basis Sets to approximate Coulomb      
              Potentials                                       
              Chem. Phys. Lett. 240: 283 (1995)                
              K. Eichkorn, O. Treutler, H. Oehm, M. Haeser     
              and R. Ahlrichs                                  
              Chem. Phys. Lett. 242: 652 (1995)                
                                                           
              Auxiliary Basis Sets for Main Row Atoms and their
              Use to approximate Coulomb Potentials            
              K. Eichkorn, F. Weigend, O. Treutler and         
              R. Ahlrichs                                      
              Theo. Chem. Acc. 97: 119 (1997)                   
                                                           
              Accurate Coulomb-fitting basis sets for H to Rn 
              F. Weigend                                        
              Phys. Chem. Chem. Phys. 8: 1057 (2006)            
                                                           
          Multipole accelerated RI-J (MARI-J):             
              Fast evaluation of the Coulomb potential for     
              electron densities using multipole accelerated   
              resolution of identity approximation             
              M. Sierka, A. Hogekamp and R. Ahlrichs           
              J. Chem. Phys. 118: 9136 (2003)                  
          RI-JK Method:                                     
              A fully direct RI-HF algorithm: Implementation,
              optimised auxiliary basis sets, demonstration of
              accuracy and efficiency                         
              F. Weigend                                      
              Phys. Chem. Chem. Phys. 4: 4285 (2002)           
          Two-component HF and DFT with spin-orbit coupling:  
              Self-consistent treatment of spin-orbit         
              interactions with efficient Hartree-Fock and    
              density functional methods                      
              M. K. Armbruster, F. Weigend, C. van Wüllen and 
              W. Klopper                                      
              Phys. Chem. Chem. Phys. 10: 1748 (2008)         
          Two-component difference density and DIIS algorithm 
              Efficient two-component self-consistent field   
              procedures and gradients: implementation in     
              TURBOMOLE and application to Au20-              
              A. Baldes, F. Weigend                           
              Mol. Phys. 111: 2617 (2013)                     
          Relativistic all-electron 2c calculations           
              An efficient implementation of two-component    
              relativistic exact-decoupling methods for large 
              molecules                                       
              D. Peng, N. Middendorf, F. Weigend, M. Reiher   
              J. Chem. Phys. 138: 184105 (2013)               
          Finite nucleus model and SNSO approximation         
              Efficient implementation of one- and two-       
              component analytical energy gradients in exact  
              two-component theory                            
              Y. J. Franzke, N. Middendorf, F. Weigend        
              J. Chem. Phys. 148: 104110 (2018)               
                                         




              +--------------------------------------------------+
              |      general information about current run       |
              +--------------------------------------------------+

 
 PBE functional
 exchange:    LDA + PBE
 correlation: LDA (PW) + PBE
 A DFT calculation using the RI-J approximation will be carried out.
 Allocatable memory for RI due to $ricore (MB):                  8000


              +--------------------------------------------------+
              | Atomic coordinate, charge and isotop information |
              +--------------------------------------------------+

                    atomic coordinates            atom    charge  isotop
          4.53325169   -0.86081022    0.37236018    n      7.000     0
          5.09311834   -0.34200909   -1.38127779    h      1.000     0
          5.71158979   -2.27374015    0.89240310    h      1.000     0
          4.83604246    1.28442690    2.09895627    c      6.000     0
          4.32545678    0.68973806    3.99936523    h      1.000     0
          6.73977205    2.08146909    2.16882273    h      1.000     0
          3.52733080    2.76932736    1.54591423    h      1.000     0
 
       center of nuclear mass  :    4.73898621    0.20344164    1.21416681
       center of nuclear charge:    4.78590469    0.25587084    1.24586035

              +--------------------------------------------------+
              |               basis set information              |
              +--------------------------------------------------+

              we will work with the 1s 3p 5d 7f 9g ... basis set
              ...i.e. with spherical basis functions...

   type   atoms  prim   cont   basis
   ---------------------------------------------------------------------------
    n        1     68     48   def2-QZVP   [7s4p3d2f|15s8p3d2f]
    h        5     26     23   def2-QZVP   [4s3p2d|7s3p2d]
    c        1     68     48   def2-QZVP   [7s4p3d2f|15s8p3d2f]
   ---------------------------------------------------------------------------
   total:    7    266    211
   ---------------------------------------------------------------------------

   total number of primitive shells          :   68
   total number of contracted shells         :   77
   total number of cartesian basis functions :  239
   total number of SCF-basis functions       :  211


 integral neglect threshold       :  0.14E-10
 integral storage threshold THIZE :  0.10E-04
 integral storage threshold THIME :         5

 RI-J AUXILIARY BASIS SET information:

              we will work with the 1s 3p 5d 7f 9g ... basis set
              ...i.e. with spherical basis functions...

   type   atoms  prim   cont   basis
   ---------------------------------------------------------------------------
    n        1     70     49   def2-QZVP   [6s4p3d1f1g|12s5p4d2f1g]
    h        5     16     11   def2-QZVP   [3s1p1d|5s2p1d]
    c        1     70     49   def2-QZVP   [6s4p3d1f1g|12s5p4d2f1g]
   ---------------------------------------------------------------------------
   total:    7    220    153
   ---------------------------------------------------------------------------

   total number of primitive shells          :   56
   total number of contracted shells         :   55
   total number of cartesian basis functions :  182
   total number of SCF-basis functions       :  153


 symmetry group of the molecule :   c1 

 the group has the following generators :
   c1(z)

    1 symmetry operations found

 there are 1 real representations :   a   

 maximum number of shells which are related by symmetry :  1


    mo occupation :
   irrep   mo's   occupied
    a      211        9
 
 number of basis functions   :                    211
 number of occupied orbitals :                      9
 
  
           ------------------
           density functional
           ------------------
 PBE functional
 exchange:    LDA + PBE
 correlation: LDA (PW) + PBE

 iterations will be done with small grid
  
 spherical integration : Lebedev's spherical grid
 spherical gridsize    :                     4
    i.e. gridpoints    :                   434
 value for diffuse not defined
 radial integration    : Chebyshev 2nd kind (scaling 3)
 radial gridsize       :                     6
 integration cells     :                     7
 partition function    : becke
 partition sharpness   :                     3
  

 biggest AO integral is expected to be     6.129561670
  
           ------------------------
               RI-J - INFORMATION
           ------------------------
 Contributions to RI integral batches: 
  neglected integral batches:                    60
  direct contribution:                            0
  memory contribution:                  2943
 Memory core needed for (P|Q) and Cholesky      1 MByte
 Memory core minimum needed except of (P|Q)     1 MByte
 Total minimum memory core needed (sum)         1 MByte
  
 ****************************************
 Memory allocated for RI-J    40 MByte
 ****************************************
                                            

          ------------------------
          nuclear repulsion energy  :   42.0598292999    
          ------------------------

  _________________________________
 |                                 |
 |         DFTD3 V3.1 Rev 0        |
 | S.Grimme, University Bonn       |
 |            June  2014           |
 |   see standalone version        |
 |       dftd3 -h for options      |
 |_________________________________|
 
 Please cite DFT-D3 work done with this code as:
 S. Grimme, J. Antony, S. Ehrlich and H. Krieg,
 J. Chem. Phys, 132 (2010), 154104.
 If used with BJ-damping cite also
 S. Grimme, S. Ehrlich and L. Goerigk,
 J. Comput. Chem. 32 (2011), 1456-1465
 For DFT-D2 the reference is
 S. Grimme, J. Comput. Chem., 27 (2006), 1787-1799
 
C6 coefficients used:
                     2  C6 for element                      1
Z=  1 CN= 0.912     C6(AA)=    3.03
Z=  1 CN= 0.000     C6(AA)=    7.59
                     5  C6 for element                      6
Z=  6 CN= 0.000     C6(AA)=   49.11
Z=  6 CN= 0.987     C6(AA)=   43.25
Z=  6 CN= 1.998     C6(AA)=   29.36
Z=  6 CN= 2.999     C6(AA)=   25.78
Z=  6 CN= 3.984     C6(AA)=   18.21
                     4  C6 for element                      7
Z=  7 CN= 0.000     C6(AA)=   25.27
Z=  7 CN= 0.994     C6(AA)=   22.12
Z=  7 CN= 2.014     C6(AA)=   19.68
Z=  7 CN= 2.990     C6(AA)=   15.58

#           XYZ [au]              R0(AA) [Ang.]  CN          C6(AA)     C8(AA)   C10(AA) [au]
  1   4.53325  -0.86081   0.37236   n   0.533  2.999        15.7       345.5      9335.7
  2   5.09312  -0.34201  -1.38128   h   0.395  1.006         3.1        37.3       552.8
  3   5.71159  -2.27374   0.89240   h   0.395  1.005         3.1        37.3       552.8
  4   4.83604   1.28443   2.09896   c   0.610  3.990        18.3       530.3     18787.8
  5   4.32546   0.68974   3.99937   h   0.395  0.998         3.1        37.4       553.4
  6   6.73977   2.08147   2.16882   h   0.395  0.996         3.1        37.4       553.6
  7   3.52733   2.76933   1.54591   h   0.395  0.998         3.1        37.4       553.4

molecular C6(AA) [au] =       288.36

           DFT-D V3(BJ)
 DF pbe                                               
 parameters
 s6       :    1.0000
 s8       :    0.7875
 a1       :    0.4289
 a2       :    4.4407
 k1-k3    :   16.0000    1.3333   -4.0000
 
 Edisp /kcal,au:    -1.6752 -0.00266960

 E6    /kcal :    -1.2430
 E8    /kcal :    -0.4322
 % E8        : 25.80
 nuclear repulsion energy                  =      42.059829300
 empirical dispersive energy correction    =      -0.002669596
 nuclear repulsion + dispersion correction =      42.057159704


         -----------------
         -S,T+V- integrals
         -----------------

 1e-integrals will be neglected if expon. factor < 0.139831E-11
 Difference densities >>NOT<< switched on in parallel ridft!

 DIIS switched on: error vector is FDS-SDF
 Max. Iterations for DIIS is     :   4
 DIIS matrix (see manual) 
    Scaling factor of diagonals  :  1.200
    threshold for scaling factor :  0.000

 scf convergence criterion : increment of total energy < .1000000D-06
                  and increment of one-electron energy < .1000000D-03

  MOs are in ASCII format !


 automatic virtual orbital shift switched on 
      shift if e(lumo)-e(homo) < 0.10000000    


 reading orbital data $scfmo  from file mos
 orbital characterization : expanded
 mo provided and orthogonalized by Cholesky decomposition

 DSCF restart information will be dumped onto file mos


 Starting SCF iterations

          Overall gridpoints after grid construction =         16297

 ITERATION  ENERGY          1e-ENERGY        2e-ENERGY     NORM[dD(SAO)]  TOL
   1  -95.387352807619    -210.09815022     72.653637712    0.000D+00 0.139D-10
                            Exc = -13.8175357000     Coul =  86.4711734117    
                              N = 17.999959628    
                            current damping = 0.700
 
          max. resid. norm for Fia-block=  5.736D-01 for orbital      3a         
          max. resid. fock norm         =  7.730D+01 for orbital    197a         

 ITERATION  ENERGY          1e-ENERGY        2e-ENERGY     NORM[dD(SAO)]  TOL
   2  -95.694828099270    -211.07357071     73.321582905    0.000D+00 0.139D-10
                            Exc = -13.9434563155     Coul =  87.2650392201    
                              N = 17.999965435    
                            current damping = 0.650
 
          Norm of current diis error:  1.7183    
          max. resid. norm for Fia-block=  1.246D-01 for orbital      1a         
          max. resid. fock norm         =  1.561D-01 for orbital    134a         

 ITERATION  ENERGY          1e-ENERGY        2e-ENERGY     NORM[dD(SAO)]  TOL
   3  -95.754513879062    -211.48276902     73.671095434    0.000D+00 0.139D-10
                            Exc = -14.0263762195     Coul =  87.6974716530    
                              N = 17.999971124    
                            current damping = 0.500
 
          Norm of current diis error: 0.79844    
          max. resid. norm for Fia-block=  5.051D-02 for orbital      1a         
          max. resid. fock norm         =  5.362D-02 for orbital      1a         

 ITERATION  ENERGY          1e-ENERGY        2e-ENERGY     NORM[dD(SAO)]  TOL
   4  -95.773760758004    -211.52399217     73.693071707    0.000D+00 0.139D-10
                            Exc = -14.0486901620     Coul =  87.7417618685    
                              N = 17.999974315    
                            current damping = 0.350
 
          Norm of current diis error: 0.28712    
          max. resid. norm for Fia-block=  1.877D-02 for orbital      3a         
          max. resid. fock norm         =  2.705D-02 for orbital    134a         

 ITERATION  ENERGY          1e-ENERGY        2e-ENERGY     NORM[dD(SAO)]  TOL
   5  -95.776653888903    -211.74021128     73.906397688    0.000D+00 0.139D-10
                            Exc = -14.0827920967     Coul =  87.9891897851    
                              N = 17.999976610    
                            current damping = 0.200
 
          Norm of current diis error: 0.11895    
          max. resid. norm for Fia-block=  9.407D-03 for orbital      9a         
          max. resid. fock norm         =  9.489D-03 for orbital      9a         
          mo-orthogonalization: Cholesky decomposition

 ITERATION  ENERGY          1e-ENERGY        2e-ENERGY     NORM[dD(SAO)]  TOL
   6  -95.777074458954    -211.58459923     73.750365065    0.000D+00 0.139D-10
                            Exc = -14.0678803049     Coul =  87.8182453702    
                              N = 17.999976515    
                            current damping = 0.250
 
          Norm of current diis error: 0.73619E-01
          max. resid. norm for Fia-block=  2.368D-03 for orbital      5a         
          max. resid. fock norm         =  3.360D-03 for orbital    136a         

 ITERATION  ENERGY          1e-ENERGY        2e-ENERGY     NORM[dD(SAO)]  TOL
   7  -95.777184481599    -211.66592975     73.831585562    0.000D+00 0.139D-10
                            Exc = -14.0770781815     Coul =  87.9086637434    
                              N = 17.999976874    
                            current damping = 0.300
 
          Norm of current diis error: 0.10444E-01
          max. resid. norm for Fia-block=  5.487D-04 for orbital      7a         
          max. resid. fock norm         =  8.969D-04 for orbital    151a         

 ITERATION  ENERGY          1e-ENERGY        2e-ENERGY     NORM[dD(SAO)]  TOL
   8  -95.777185959582    -211.65740465     73.823058989    0.000D+00 0.139D-10
                            Exc = -14.0764747507     Coul =  87.8995337392    
                              N = 17.999976883    
                            current damping = 0.350
 
          Norm of current diis error: 0.61306E-02
          max. resid. norm for Fia-block=  1.995D-04 for orbital      7a         
          max. resid. fock norm         =  2.376D-04 for orbital    151a         

 ITERATION  ENERGY          1e-ENERGY        2e-ENERGY     NORM[dD(SAO)]  TOL
   9  -95.777186737580    -211.66333909     73.828992648    0.000D+00 0.139D-10
                            Exc = -14.0770646788     Coul =  87.9060573265    
                              N = 17.999976898    
                            current damping = 0.400
 
          Norm of current diis error: 0.68835E-03
          max. resid. norm for Fia-block=  3.610D-05 for orbital      9a         
          max. resid. fock norm         =  4.177D-05 for orbital      9a         

 ENERGY CONVERGED !

          Overall gridpoints after grid construction =         63503

 ITERATION  ENERGY          1e-ENERGY        2e-ENERGY     NORM[dD(SAO)]  TOL
  10  -95.777152817038    -211.66352983     73.829217310    0.000D+00 0.139D-10
                            Exc = -14.0770449455     Coul =  87.9062622554    
                              N = 17.999999090    
                            current damping = 0.250
 
          Norm of current diis error: 0.14047E-03
          max. resid. norm for Fia-block=  6.241D-06 for orbital      4a         
          max. resid. fock norm         =  8.361D-06 for orbital    191a         

 End of SCF iterations

   convergence criteria satisfied after    10 iterations


                  ------------------------------------------ 
                 |  total energy      =    -95.77715281704  |
                  ------------------------------------------ 
                 :  kinetic energy    =     95.38142065883  :
                 :  potential energy  =   -191.15857347587  :
                 :  virial theorem    =      1.99586819877  :
                 :  wavefunction norm =      1.00000000000  :
                  .......................................... 


 orbitals $scfmo  will be written to file mos

    irrep                  5a          6a          7a          8a          9a   
 eigenvalues H         -0.44020    -0.39414    -0.35729    -0.32371    -0.19987
            eV         -11.9785    -10.7251     -9.7225     -8.8087     -5.4388
 occupation              2.0000      2.0000      2.0000      2.0000      2.0000 

    irrep                 10a         11a         12a         13a         14a   
 eigenvalues H         -0.00021     0.03438     0.05138     0.07374     0.08796
            eV          -0.0058      0.9356      1.3981      2.0067      2.3936
 
 
 
 
 ==============================================================================
                           electrostatic moments
 ==============================================================================

 reference point for electrostatic moments:    0.00000   0.00000   0.00000

 
              nuc           elec       ->  total
 ------------------------------------------------------------------------------
                          charge      
 ------------------------------------------------------------------------------
          18.000000     -18.000000      -0.000000
 
 ------------------------------------------------------------------------------
                       dipole moment  
 ------------------------------------------------------------------------------
   x      86.146284     -85.643055       0.503229
   y       4.605675      -4.468966       0.136709
   z      22.425486     -22.444855      -0.019368
 
   | dipole moment | =     0.5218 a.u. =     1.3264 debye 
 
 ------------------------------------------------------------------------------
                     quadrupole moment
 ------------------------------------------------------------------------------
  xx     419.314715    -426.033037      -6.718322
  yy      32.849765     -43.263821     -10.414056
  zz      53.197146     -62.945646      -9.748500
  xy      22.005202     -22.632063      -0.626861
  xz     108.151299    -108.253219      -0.101920
  yz      23.929327     -24.180818      -0.251491
 
     1/3  trace=      -8.960293
     anisotropy=       3.611297
 
 ==============================================================================
 


    ------------------------------------------------------------------------
         total  cpu-time :  15.71 seconds
         total wall-time :   4.99 seconds
    ------------------------------------------------------------------------

   ****  ridft : all done  ****


    2019-03-12 22:50:33.476 

