
OPTIMIZATION CYCLE 12
Tue Nov  3 11:57:41 PST 2015
 operating system is UNIX !
 hostname is         c-9-333.local

 statpt (c-9-333.local) : TURBOMOLE V7.0( ) 6 Jul 2015 at 18:30:05
 Copyright (C) 2015 TURBOMOLE GmbH, Karlsruhe


    2015-11-03 11:57:41.557 



                           this is S T A T P T   


                     hessian and coordinate update for
                          stationary point search 

                     by barbara unterreiner, marek sierka,
                           and reinhart ahlrichs

                          quantum chemistry group
                          universitaet  karlsruhe
                                  germany


  Keyword $statpt not found - using default options
 
        ***************  Stationary point options ******************
        ************************************************************
           Maximum allowed trust radius:           3.000000E-01
           Minimum allowed trust radius:           1.000000E-03
           Initial trust radius:                   1.500000E-01
           GDIIS used if gradient norm <           1.000000E-02
           Number of previous steps for GDIIS:       5
           Hessian update method:                  BFGS
                        *** Convergence criteria ***                
           Threshold for energy change:            1.000000E-07
           Threshold for max displacement element: 1.000000E-03
           Threshold for max gradient element :    1.000000E-04
           Threshold for RMS of displacement:      5.000000E-04
           Threshold for RMS of gradient:          5.000000E-04
        ************************************************************
 
     Number of symmetry restricted degrees of freedom:    60
     Constituted by:     3 translational degrees of freedom
                         3 rotational degrees of freedom
                      54 internal degrees of freedom

  *************************************************************************
   ATOM                      CARTESIAN COORDINATES
    1 c      -2.93378420201138     -1.18142949248245      2.44203294169003
    2 c      -1.35045249971640      0.78751247950124      2.52946648827733
    3 c      -0.48485624832280      1.41253255767348     -0.08237037101250
    4 o      -1.81146497142507     -0.37265813058071     -1.67470860171372
    5 c      -3.22412586467910     -1.95744359746640     -0.17772940809338
    6 o      -4.10569365006668     -2.37998112561260      4.37979173866630
    7 o      -4.46871389145027     -3.68096094067543     -0.99633554341717
    8 c       2.36484832412368      1.11736811015969     -0.43983210925238
    9 c       3.13214708818625      1.39799074732191     -3.20901647332662
   10 o       2.64954742689636     -0.86932055249091     -4.57827271287290
   11 o      -0.44727392829788      2.14603925089337      4.48093262080196
   12 h      -5.06406935706086     -3.74813183059282      3.64109749298080
   13 h       0.84575938584110     -1.13029501766162     -4.57146158899119
   14 o       3.20746871992216     -1.23200048254796      0.51349011969093
   15 h      -1.06882616743590      1.42076282795127      6.03406789843410
   16 h       3.22831461089314     -2.36133060626524     -0.92248898389087
   17 h      -1.07198869624652      3.30799131349005     -0.65118552530585
   18 h       3.26107812710844      2.60688081392373      0.67344656985925
   19 h       2.17883142902671      3.02013983982855     -4.06649676218790
   20 h       5.16325436471513      1.69633383563296     -3.32442779033643
  *************************************************************************
   ATOM                      CARTESIAN GRADIENTS  
    1 c       0.00000538704617      0.00000980945415      0.00001632054499
    2 c       0.00000304203912     -0.00000370822032     -0.00000286771511
    3 c      -0.00000544343273     -0.00000177960377     -0.00000192361146
    4 o      -0.00000353835541     -0.00000030019826      0.00000366325750
    5 c      -0.00000603496037     -0.00000080704143     -0.00002344971235
    6 o      -0.00000427098945      0.00000014920078     -0.00000533808025
    7 o       0.00000500497729      0.00000132968726      0.00000797195071
    8 c       0.00000517199856     -0.00002242846874      0.00000807704536
    9 c      -0.00000897560600      0.00001070260929     -0.00000855713947
   10 o      -0.00000183382691      0.00000126479141      0.00000496876340
   11 o      -0.00000809848512      0.00000051843262      0.00000016698569
   12 h       0.00000150698862     -0.00000272468361      0.00000116503971
   13 h       0.00000351261617     -0.00000412986222     -0.00000085596823
   14 o       0.00000101543075      0.00001670574343      0.00000499291109
   15 h       0.00000397816558     -0.00000052383779      0.00000179087614
   16 h      -0.00000194545470     -0.00000082681976     -0.00000682525021
   17 h      -0.00000042922269     -0.00000089202591      0.00000025231810
   18 h       0.00000475908649     -0.00000003947252      0.00000207289486
   19 h       0.00000504954536      0.00000008003477      0.00000135529156
   20 h       0.00000193557991     -0.00000258896157     -0.00000324891620
  *************************************************************************

  norm of actual CARTESIAN gradient:  5.15874E-05
  norm of actual INTERNAL  gradient:  3.93587E-05

  ENERGY =    -685.6381756407 a.u.; # of cycle =   12

  Approximate Hessian read from $hessapprox data section

  Hessian updated according to BFGS formula
  Number of zero Hessian eigenvalues:   0
  Number of structures for GDIIS interpolation:    5
  GDIIS step:     0.000478

  Transforming internal coordinate displacements to Cartesian space
      Iteration   1 residual norm     4.780978E-04
      Iteration   2 residual norm     6.319515E-08
      Iteration   3 residual norm     1.449347E-13
      Transformation converged
      Residual norm:    1.449347E-13 after    3 iterations

      ****************************************************************** 
                          CONVERGENCE INFORMATION

                               Converged?     Value      Criterion
             Energy change         yes      0.0000000   0.0000001
             RMS of displacement   yes      0.0000651   0.0005000
             RMS of gradient       yes      0.0000054   0.0005000
             MAX displacement      yes      0.0003141   0.0010000
             MAX gradient          yes      0.0000148   0.0001000
      ****************************************************************** 


    ------------------------------------------------------------------------
         total  cpu-time :   0.03 seconds
         total wall-time :   0.03 seconds
    ------------------------------------------------------------------------


   ****  statpt : all done  ****


    2015-11-03 11:57:41.583 

fine, there is no data group "$actual step"
next step = ridft
 operating system is UNIX !
 hostname is         c-9-333.local

 ridft (c-9-333.local) : TURBOMOLE V7.0( ) 28 Sep 2015 at 09:54:12
 Copyright (C) 2015 TURBOMOLE GmbH, Karlsruhe


    2015-11-03 11:57:41.615 



                                  r i d f t

                        DFT program with RI approximation 
                                for coulomb part 




                                                 
                                 References:     
                                                 
          TURBOMOLE:                             
              R. Ahlrichs, M. Baer, M. Haeser, H. Horn, and
              C. Koelmel
              Electronic structure calculations on workstation
              computers: the program system TURBOMOLE
              Chem. Phys. Lett. 162: 165 (1989)
          Density Functional:                              
              O. Treutler and R. Ahlrichs                      
              Efficient Molecular Numerical Integration Schemes
              J. Chem. Phys. 102: 346 (1995)                   
          Parallel Version:                                
              Performance of parallel TURBOMOLE for Density    
              Functional Calculations                          
              M. v. Arnim and R. Ahlrichs                      
              J. Comp. Chem. 19: 1746 (1998)                   
          RI-J Method:                                     
              Auxiliary Basis Sets to approximate Coulomb      
              Potentials                                       
              Chem. Phys. Lett. 240: 283 (1995)                
              K. Eichkorn, O. Treutler, H. Oehm, M. Haeser     
              and R. Ahlrichs                                  
              Chem. Phys. Lett. 242: 652 (1995)                
                                                           
              Auxiliary Basis Sets for Main Row Atoms and their
              Use to approximate Coulomb Potentials            
              K. Eichkorn, F. Weigend, O. Treutler and         
              R. Ahlrichs                                      
              Theo. Chem. Acc. 97: 119 (1997)                   
                                                           
              Accurate Coulomb-fitting basis sets for H to Rn 
              F. Weigend                                        
              Phys. Chem. Chem. Phys. 8: 1057 (2006)            
                                                           
          Multipole accelerated RI-J (MARI-J):             
              Fast evaluation of the Coulomb potential for     
              electron densities using multipole accelerated   
              resolution of identity approximation             
              M. Sierka, A. Hogekamp and R. Ahlrichs           
              J. Chem. Phys. 118: 9136 (2003)                  
          RI-JK Method:                                     
              A fully direct RI-HF algorithm: Implementation,
              optimised auxiliary basis sets, demonstration of
              accuracy and efficiency                         
              F. Weigend                                      
              Phys. Chem. Chem. Phys. 4: 4285 (2002)           
          Two-component HF and DFT with spin-orbit coupling:  
              Self-consistent treatment of spin-orbit         
              interactions with efficient Hartree-Fock and    
              density functional methods                      
              M. K. Armbruster, F. Weigend, C. van Wüllen and 
              W. Klopper                                      
              Phys. Chem. Chem. Phys. 10: 1748 (2008)         
          Relativistic all-electron 2c calculations           
              An efficient implementation of two-component    
              relativistic exact-decoupling methods for large 
              molecules                                       
              D. Peng, N. Middendorf, F. Weigend, M. Reiher   
              J. Chem. Phys. 138, 184105 (2013)               
                                         


 


              +--------------------------------------------------+
              |      general information about current run       |
              +--------------------------------------------------+

 

 DENSITY CONVERGENCE CHECK SWITCHED ON !
 SCF CONVERGENCE IF RMS(delta[D]) <     0.1000000000E-06

 Slater Dirac exchange with PW LDA corr. functional
 A DFT calculation using the RI-J approximation will be carried out.
 Allocatable memory for RI due to $ricore (MB):         500


              +--------------------------------------------------+
              | Atomic coordinate, charge and isotop information |
              +--------------------------------------------------+

                    atomic coordinates            atom    charge  isotop
         -2.93380656   -1.18147687    2.44205686    c      6.000     0
         -1.35041287    0.78742289    2.52945362    c      6.000     0
         -0.48484537    1.41240790   -0.08239825    c      6.000     0
         -1.81137653   -0.37287929   -1.67468315    o      8.000     0
         -3.22423429   -1.95747673   -0.17768077    c      6.000     0
         -4.10565425   -2.37998592    4.37987599    o      8.000     0
         -4.46909086   -3.68079799   -0.99630623    o      8.000     0
          2.36486188    1.11739118   -0.43984236    c      6.000     0
          3.13217784    1.39803719   -3.20900622    c      6.000     0
          2.64972993   -0.86928419   -4.57830028    o      8.000     0
         -0.44705113    2.14585079    4.48090292    o      8.000     0
         -5.06432243   -3.74794381    3.64121448    h      1.000     0
          0.84593994   -1.13026274   -4.57164324    h      1.000     0
          3.20755574   -1.23195764    0.51349042    o      8.000     0
         -1.06887080    1.42079386    6.03403063    h      1.000     0
          3.22849249   -2.36130266   -0.92246131    h      1.000     0
         -1.07205534    3.30783225   -0.65124200    h      1.000     0
          3.26097663    2.60696700    0.67343151    h      1.000     0
          2.17872970    3.02011286   -4.06648989    h      1.000     0
          5.16325627    1.69655192   -3.32440272    h      1.000     0
 
       center of nuclear mass  :   -0.57948196   -0.44534148    0.24725488
       center of nuclear charge:   -0.51426638   -0.40045491    0.21943230

              +--------------------------------------------------+
              |               basis set information              |
              +--------------------------------------------------+

              we will work with the 1s 3p 5d 7f 9g ... basis set
              ...i.e. with spherical basis functions...

   type   atoms  prim   cont   basis
   ---------------------------------------------------------------------------
    c        6     77     57   def2-QZVP   [7s4p3d2f1g|15s8p3d2f1g]
    o        6     77     57   def2-QZVP   [7s4p3d2f1g|15s8p3d2f1g]
    h        8     33     30   def2-QZVP   [4s3p2d1f|7s3p2d1f]
   ---------------------------------------------------------------------------
   total:   20   1188    924
   ---------------------------------------------------------------------------

   total number of primitive shells          :   71
   total number of contracted shells         :  284
   total number of cartesian basis functions : 1144
   total number of SCF-basis functions       :  924


 integral neglect threshold       :  0.29E-13
 integral storage threshold THIZE :  0.10E-04
 integral storage threshold THIME :         5

 RI-J AUXILIARY BASIS SET information:

              we will work with the 1s 3p 5d 7f 9g ... basis set
              ...i.e. with spherical basis functions...

   type   atoms  prim   cont   basis
   ---------------------------------------------------------------------------
    c        6     70     49   def2-QZVP   [6s4p3d1f1g|12s5p4d2f1g]
    o        6     70     49   def2-QZVP   [6s4p3d1f1g|12s5p4d2f1g]
    h        8     16     11   def2-QZVP   [3s1p1d|5s2p1d]
   ---------------------------------------------------------------------------
   total:   20    968    676
   ---------------------------------------------------------------------------

   total number of primitive shells          :   56
   total number of contracted shells         :  220
   total number of cartesian basis functions :  828
   total number of SCF-basis functions       :  676


 symmetry group of the molecule :   c1 

 the group has the following generators :
   c1(z)

    1 symmetry operations found

 there are 1 real representations :   a   

 maximum number of shells which are related by symmetry :  1


    mo occupation :
   irrep   mo's   occupied
    a      924       46
 
 number of basis functions   :          924
 number of occupied orbitals :           46
 
  
           ------------------
           density functional
           ------------------
 Slater Dirac exchange with PW LDA corr. functional
 iterations will be done with small grid
  
 spherical integration : Lebedev's spherical grid
 spherical gridsize    :           5
    i.e. gridpoints    :         590
 value for diffuse not defined
 radial integration    : Chebyshev 2nd kind (scaling 3)
 radial gridsize       :           8
 integration cells     :          20
 partition function    : becke
 partition sharpness   :           3
  

 biggest AO integral is expected to be     6.990327543
  
           ------------------------
               RI-J - INFORMATION
           ------------------------
 Contributions to RI integral batches: 
  neglected integral batches:       10234
  direct contribution:              22087
  memory contribution:        8149
 Memory core needed for (P|Q) and Cholesky      4 MByte
 Memory core minimum needed except of (P|Q)     1 MByte
 Total minimum memory core needed (sum)         5 MByte
  
 ****************************************
 Memory allocated for RI-J   230 MByte
 ****************************************
                                            

          ------------------------
          nuclear repulsion energy  :   775.150515460    
          ------------------------

 
          -----------------
          -S,T+V- integrals
          -----------------

 1e-integrals will be neglected if expon. factor < 0.292129E-14
 
   Difference densities algorithm switched on.
   The maximal number of linear combinations of
   difference densities is          20 .

 automatic virtual orbital shift switched on 
      shift if e(lumo)-e(homo) < 0.10000000    


 DIIS switched on: error vector is FDS-SDF
 Max. Iterations for DIIS is     :   4
 DIIS matrix (see manual) 
    Scaling factor of diagonals  :  1.200
    threshold for scaling factor :  0.000

 scf convergence criterion : increment of total energy < .1000000D-08
                  and increment of one-electron energy < .1000000D-05

  MOs are in ASCII format !


 reading orbital data $scfmo  from file mos . 

 orbital characterization : scfconv=9
 

 DSCF restart information will be dumped onto file mos


 Starting SCF iterations

          Overall gridpoints after grid construction =        100946

 ITERATION  ENERGY          1e-ENERGY        2e-ENERGY     RMS[dD(SAO)]   TOL
   1  -679.83716838233    -2475.8497116     1020.8620278    0.000D+00 0.291D-13
                            Exc = -81.5658296671     Coul =  1102.42785745    
                              N = 91.999805204    
                            current damping = 0.700
 
          max. resid. norm for Fia-block=  5.171D-05 for orbital     42a         
          max. resid. fock norm         =  2.760D-03 for orbital    919a         

 ITERATION  ENERGY          1e-ENERGY        2e-ENERGY     RMS[dD(SAO)]   TOL
   2  -679.83716841372    -2475.8497214     1020.8620375    0.340D-06 0.185D-13
                            Exc = -81.5658130185     Coul =  1102.42785053    
                              N = 91.999805205    
                            current damping = 0.650
 
          Norm of current diis error: 0.36276E-03
          max. resid. norm for Fia-block=  2.155D-05 for orbital     42a         
          max. resid. fock norm         =  1.137D-03 for orbital    919a         

 ITERATION  ENERGY          1e-ENERGY        2e-ENERGY     RMS[dD(SAO)]   TOL
   3  -679.83716841843    -2475.8497266     1020.8620427    0.148D-06 0.144D-13
                            Exc = -81.5658398149     Coul =  1102.42788256    
                              N = 91.999805205    
                            current damping = 0.500
 
          Norm of current diis error: 0.19816E-03
          max. resid. norm for Fia-block=  9.848D-06 for orbital     42a         
          max. resid. fock norm         =  4.478D-04 for orbital    919a         

 DENSITY CONVERGED !


 ITERATION  ENERGY          1e-ENERGY        2e-ENERGY     RMS[dD(SAO)]   TOL
   4  -679.83716841922    -2475.8497342     1020.8620503    0.875D-07 0.136D-13
                            Exc = -81.5658054459     Coul =  1102.42785576    
                              N = 91.999805205    
                            current damping = 0.350
 
          Norm of current diis error: 0.15848E-03
          max. resid. norm for Fia-block=  4.380D-06 for orbital     42a         
          max. resid. fock norm         =  1.494D-04 for orbital    919a         

 DENSITY CONVERGED !


 ITERATION  ENERGY          1e-ENERGY        2e-ENERGY     RMS[dD(SAO)]   TOL
   5  -679.83716841987    -2475.8496961     1020.8620122    0.439D-07 0.130D-13
                            Exc = -81.5658179998     Coul =  1102.42783020    
                              N = 91.999805205    
                            current damping = 0.400
 
          Norm of current diis error: 0.41062E-04
          max. resid. norm for Fia-block=  1.800D-06 for orbital     42a         
          max. resid. fock norm         =  3.885D-05 for orbital    919a         
          mo-orthogonalization: Cholesky decomposition

 DENSITY CONVERGED !


 ITERATION  ENERGY          1e-ENERGY        2e-ENERGY     RMS[dD(SAO)]   TOL
   6  -679.83716841995    -2475.8497582     1020.8620743    0.178D-07 0.128D-13
                            Exc = -81.5658250218     Coul =  1102.42789931    
                              N = 91.999805206    
                            current damping = 0.450
 
          Norm of current diis error: 0.34999E-04
          max. resid. norm for Fia-block=  7.671D-07 for orbital     42a         
          max. resid. fock norm         =  1.118D-05 for orbital    919a         

 DENSITY CONVERGED !


 ITERATION  ENERGY          1e-ENERGY        2e-ENERGY     RMS[dD(SAO)]   TOL
   7  -679.83716841992    -2475.8497232     1020.8620393    0.850D-08 0.128D-13
                            Exc = -81.5658222815     Coul =  1102.42786155    
                              N = 91.999805205    
                            current damping = 0.500
 
          Norm of current diis error: 0.10693E-04
          max. resid. norm for Fia-block=  2.697D-07 for orbital     46a         
          max. resid. fock norm         =  3.450D-06 for orbital    919a         

 ENERGY & DENSITY CONVERGED !

          Overall gridpoints after grid construction =        320279

 ITERATION  ENERGY          1e-ENERGY        2e-ENERGY     RMS[dD(SAO)]   TOL
   8  -679.83719310486    -2475.8497228     1020.8620142    0.324D-08 0.127D-13
                            Exc = -81.5658453857     Coul =  1102.42785962    
                              N = 91.999986572    
                            current damping = 0.350
 
          Norm of current diis error: 0.41197E-05
          max. resid. norm for Fia-block=  1.132D-07 for orbital     44a         
          max. resid. fock norm         =  1.153D-06 for orbital    919a         

 End of SCF iterations

   convergence criteria satisfied after    8 iterations


                  ------------------------------------------ 
                 |  total energy      =   -679.83719310486  |
                  ------------------------------------------ 
                 :  kinetic energy    =    675.54382650116  :
                 :  potential energy  =  -1355.38101960603  :
                 :  virial theorem    =      1.99368471356  :
                 :  wavefunction norm =      1.00000000000  :
                  .......................................... 


 orbitals $scfmo  will be written to file mos

    irrep                 42a         43a         44a         45a         46a   
 eigenvalues H         -0.29281    -0.26758    -0.26130    -0.24776    -0.22042
            eV          -7.9679     -7.2812     -7.1103     -6.7420     -5.9980
 occupation              2.0000      2.0000      2.0000      2.0000      2.0000 

    irrep                 47a         48a         49a         50a         51a   
 eigenvalues H         -0.07888    -0.03657    -0.01788    -0.00252     0.00983
            eV          -2.1464     -0.9951     -0.4866     -0.0687      0.2676
 
 
 
 
 ==============================================================================
                           electrostatic moments
 ==============================================================================

 reference point for electrostatic moments:    0.00000   0.00000   0.00000

 
              nuc           elec       ->  total
 ------------------------------------------------------------------------------
                          charge      
 ------------------------------------------------------------------------------
          92.000000     -92.000000      -0.000000
 
 ------------------------------------------------------------------------------
                       dipole moment  
 ------------------------------------------------------------------------------
   x     -47.312507      47.347483       0.034976
   y     -36.841852      37.988666       1.146814
   z      20.187772     -19.482797       0.704976
 
   | dipole moment | =     1.3466 a.u. =     3.4228 debye 
 
 ------------------------------------------------------------------------------
                     quadrupole moment
 ------------------------------------------------------------------------------
  xx     760.862955    -815.762948     -54.899993
  yy     328.767580    -380.105124     -51.337544
  zz     751.500364    -802.113813     -50.613450
  xy     276.941497    -276.794549       0.146947
  xz    -365.087482     361.747372      -3.340110
  yz       4.754150      -8.009112      -3.254962
 
     1/3  trace=     -52.283662
     anisotropy=       9.006277
 
 ==============================================================================
 
 


    ------------------------------------------------------------------------
         total  cpu-time :  1 minutes and 49 seconds
         total wall-time :  1 minutes and 49 seconds
    ------------------------------------------------------------------------


   ****  ridft : all done  ****


    2015-11-03 11:59:31.048 

fine, there is no data group "$actual step"
next step = rirpa
 
 
    *************************************************************************
    *************************** PROGRAM RIRPA *******************************
    ******                                                             ******
    ******              H. Eshuis, J. E. Bates and F. Furche           ******
    ******                                                             ******
    ****** Nov 2011                                                    ******
    ****** Copyright TURBOMOLE GmbH                                    ******
    *************************************************************************
    
    
                                References:                                  
    
                   RIRPA:                                                    
                     H. Eshuis, J. Yarkony and F. Furche                     
                     Fast computation of molecular random phase              
                     approximation correlation energies using resolution     
                     of the identity imaginary frequency integration         
                     J. Chem. Phys. 132: 234114 (2010)                       
    
                     H. Eshuis, J. E. Bates and F. Furche                    
                     Electron correlation methods based on                   
                     the random phase approximation                          
                     Theor. Chem. Acc.  131: 1084 (2012)                     
    
                   TWO-COMPONENT RIRPA:                                      
                     M. Kuehn                                                
                     Correlation energies from the                           
                     two-component random-phase approximation                
                     J. Chem. Theory Comput. 10: 623 (2014)                  
    
                   RIRPA GRADIENTS:                                          
                     Asbjoern M. Burow, Jefferson E. Bates, Filipp Furche*,  
                     and Henk Eshuis                                         
                     Analytical First-Order Molecular Properties and Forces  
                     within the Adiabatic Connection Random Phase            
                     Approximation                                           
                     J. Chem. Theory Comput. (2013, ASAP),                   
                     DOI: 10.1021/ct4008553                                  
    
    
    
 hostname is         c-9-333.local

 rirpa (c-9-333.local) : TURBOMOLE V7.0( ) 28 Sep 2015 at 09:54:12
 Copyright (C) 2015 TURBOMOLE GmbH, Karlsruhe


    2015-11-03 11:59:31.084 

 number of mkl threads =           8
 
                FOUND RI-J FLAG
 
  HF exact exchange energy will be computed using RI-J.


              +--------------------------------------------------+
              | Atomic coordinate, charge and isotop information |
              +--------------------------------------------------+

                    atomic coordinates            atom    charge  isotop
         -2.93380656   -1.18147687    2.44205686    c      6.000     0
         -1.35041287    0.78742289    2.52945362    c      6.000     0
         -0.48484537    1.41240790   -0.08239825    c      6.000     0
         -1.81137653   -0.37287929   -1.67468315    o      8.000     0
         -3.22423429   -1.95747673   -0.17768077    c      6.000     0
         -4.10565425   -2.37998592    4.37987599    o      8.000     0
         -4.46909086   -3.68079799   -0.99630623    o      8.000     0
          2.36486188    1.11739118   -0.43984236    c      6.000     0
          3.13217784    1.39803719   -3.20900622    c      6.000     0
          2.64972993   -0.86928419   -4.57830028    o      8.000     0
         -0.44705113    2.14585079    4.48090292    o      8.000     0
         -5.06432243   -3.74794381    3.64121448    h      1.000     0
          0.84593994   -1.13026274   -4.57164324    h      1.000     0
          3.20755574   -1.23195764    0.51349042    o      8.000     0
         -1.06887080    1.42079386    6.03403063    h      1.000     0
          3.22849249   -2.36130266   -0.92246131    h      1.000     0
         -1.07205534    3.30783225   -0.65124200    h      1.000     0
          3.26097663    2.60696700    0.67343151    h      1.000     0
          2.17872970    3.02011286   -4.06648989    h      1.000     0
          5.16325627    1.69655192   -3.32440272    h      1.000     0
 
       center of nuclear mass  :   -0.57948196   -0.44534148    0.24725488
       center of nuclear charge:   -0.51426638   -0.40045491    0.21943230
              +-------------------------------------------------+
              |        Rotational Constants Section             |
              +-------------------------------------------------+
                                   Center of Mass [a.u]:
              -0.57948196236327        -0.44534148037052         0.24725487683117
                     Principal Moments of Inertia [a.u.]
            1242.28413238333133      2344.00754807934891      3106.34706041579284
                       Rotational constants A,B,C [a.u.]
               0.00040248441316         0.00021330989331         0.00016096076526
                     Rotational constants A,B,C [cm**-1]
               0.04845887101224         0.02568237742282         0.01937957522482
                        Rotational constants A,B,C [MHz]
            1452.76040526642282       769.93830548712936       580.98504916436650

   * BASIS SET information:

              +--------------------------------------------------+
              |               basis set information              |
              +--------------------------------------------------+

              we will work with the 1s 3p 5d 7f 9g ... basis set
              ...i.e. with spherical basis functions...

   type   atoms  prim   cont   basis
   ---------------------------------------------------------------------------
    c        6     77     57   def2-QZVP   [7s4p3d2f1g|15s8p3d2f1g]
    o        6     77     57   def2-QZVP   [7s4p3d2f1g|15s8p3d2f1g]
    h        8     33     30   def2-QZVP   [4s3p2d1f|7s3p2d1f]
   ---------------------------------------------------------------------------
   total:   20   1188    924
   ---------------------------------------------------------------------------

   total number of primitive shells          :   71
   total number of contracted shells         :  284
   total number of cartesian basis functions : 1144
   total number of SCF-basis functions       :  924


   * AUXILIARY BASIS SET information:

              +--------------------------------------------------+
              |               basis set information              |
              +--------------------------------------------------+

              we will work with the 1s 3p 5d 7f 9g ... basis set
              ...i.e. with spherical basis functions...

   type   atoms  prim   cont   basis
   ---------------------------------------------------------------------------
    c        6    141    141   def2-QZVP   [9s8p7d5f3g1h|9s8p7d5f3g1h]
    o        6    141    141   def2-QZVP   [9s8p7d5f3g1h|9s8p7d5f3g1h]
    h        8     56     56   def2-QZVP   [6s4p3d2f1g|6s4p3d2f1g]
   ---------------------------------------------------------------------------
   total:   20   2140   2140
   ---------------------------------------------------------------------------

   total number of primitive shells          :   82
   total number of contracted shells         :  524
   total number of cartesian basis functions : 2860
   total number of SCF-basis functions       : 2140


   * RIJ AUXILIARY BASIS SET information:

              +--------------------------------------------------+
              |               basis set information              |
              +--------------------------------------------------+

              we will work with the 1s 3p 5d 7f 9g ... basis set
              ...i.e. with spherical basis functions...

   type   atoms  prim   cont   basis
   ---------------------------------------------------------------------------
    c        6     70     49   def2-QZVP   [6s4p3d1f1g|12s5p4d2f1g]
    o        6     70     49   def2-QZVP   [6s4p3d1f1g|12s5p4d2f1g]
    h        8     16     11   def2-QZVP   [3s1p1d|5s2p1d]
   ---------------------------------------------------------------------------
   total:   20    968    676
   ---------------------------------------------------------------------------

   total number of primitive shells          :   56
   total number of contracted shells         :  220
   total number of cartesian basis functions :  828
   total number of SCF-basis functions       :  676


 reading orbital data $scfmo  from file mos . 

 orbital characterization : scfconv=9
 

 integral neglect threshold       :  0.32E+02

 scfconv           9

 MAXIMUM CORE MEMORY WHICH CAN BE ALLOCATED DYNAMICALLY = 10000 MiB
              ( or 1310720000 double words )


 there are 1 real representations :   a   

 maximum number of shells which are related by symmetry :  1


         --------------------------------------------------------------
                   checking mo's by calculating trace(D*S)

              number of electrons : 
                 from trace(D*S)         :   91.999999999993
                 from occupation numbers :   92.000000000000

              molecular charge           :    0.000000000000
         --------------------------------------------------------------

 time elapsed for calculating density matrices :   0.259 sec
 all orbitals will be active in the correlation treatment

     total memory allocated for calculation of (Q|P)**(-1/2) : 53 MiB


     calculation of (P|Q) ...
     time in lp2sym        cpu:  0.90 sec    wall:  0.11 sec    ratio:  8.0


     calculation of the Cholesky decomposition of (P|Q)**(-1) ...
     time in invmetri      cpu:  3.64 sec    wall:  0.48 sec    ratio:  7.6

   threshold for RMS(d[D]) in SCF was     :  0.10E-06
   integral neglect threshold             :  0.12E-13
   derivative integral neglect threshold  :  0.10E-06


 setting up bound for integral derivative estimation

 increment for numerical differentiation : 0.00050000
 total memory allocated for calculation of (Q|P)**(-1/2) : 53 MiB
 Dividing biap into          347  block chunks,
 using                    14 MB per block
 Reserved                   4974 MB for BLAS routines
 Estimated total memory usage:                   9984 MB
 number of passes:            1
 
 Number of eigenvalues < 6e-3:            0
 
 
            -----------------------------
            Complex frequency integration
            -----------------------------
 
 Number of Clenshaw-Curtis nodes:          100
 Optimized scaling parameter    :    6.13865104442807     
 Sensitivity measure            :  -3.061168479488729E-005
 
 Allocatable memory for RI due to $ricore (MB):         500

 there are 1 real representations :   a   

 maximum number of shells which are related by symmetry :  1

  
           ------------------------
               RI-J - INFORMATION
           ------------------------
 Contributions to RI integral batches: 
  neglected integral batches:        7016
  direct contribution:              24259
  memory contribution:        9195
 
          -----------------
          -S,T+V- integrals
          -----------------

 1e-integrals will be neglected if expon. factor < 0.116550E-13

          ------------------------
          nuclear repulsion energy  :   775.150515460    
          ------------------------


                  -------------------------------------------- 
                 |  HXX+RIRPA total energy     =   -685.63817547075  |
                  --------------------------------------------- 
                 :  RIRPA correlation energy   =     -4.51463818020  :
                 :  HXX total energy           =   -681.12353729055  :
                 :  Hartree energy             =   1102.42785962258  :
                 :  Exact Exchange energy      =    -82.85218957152  :
                  ............................................. 


    ------------------------------------------------------------------------
    Rirpa Energy profiling         cpu                    wall         ratio
    ------------------------------------------------------------------------
    module                         sec     %               sec     %
    ------------------------------------------------------------------------
    RIRPA_energy               2886.0  100.00         1399.8  100.00   2.1
    riccmos                       4.4    0.15            0.7    0.05   6.7
    riccaux                       4.7    0.16            0.6    0.04   7.7
    riccbound                     7.8    0.27            5.5    0.39   1.4
    ccmkbaoi                    272.9    9.46           34.3    2.45   8.0
    ecrpa                      1438.2   49.83          212.4   15.17   6.8
    tread                       226.9    7.86           33.1    2.36   6.9
    tqbuild                    1109.2   38.43          155.1   11.08   7.2
    trpaln                       68.9    2.39            8.6    0.62   8.0
    ehxx                       1155.1   40.02         1145.5   81.83   1.0
    ------------------------------------------------------------------------
    sum                        7176.9  248.68         2996.2  214.05   2.4
    ------------------------------------------------------------------------

 residuum convergence criterium   :  0.10E-04


 integral neglect threshold       :  0.29E-11
 integral storage threshold THIZE :  0.10E-04
 integral storage threshold THIME :         5


 WARNING : cannot change filename for statistics 
  
           ------------------
           density functional
           ------------------
 Slater Dirac exchange with PW LDA corr. functional
 iterations will be done with small grid
  
 spherical integration : Lebedev's spherical grid
 spherical gridsize    :           5
    i.e. gridpoints    :         590
 value for diffuse not defined
 radial integration    : Chebyshev 2nd kind (scaling 3)
 radial gridsize       :           8
 integration cells     :          20
 partition function    : becke
 partition sharpness   :           3
  
 preparing numerical integration ....
          Overall gridpoints after grid construction =        100946

 Calculating ground state density on molecular grid

 Integral of ground state density: N =   91.99980520544855    



          IRREP   tensor space dimension   number of roots

           a             40388                   1
 number of passes:    1
 
 Number of eigenvalues < 6e-3:            0
 
 
            -----------------------------
            Complex frequency integration
            -----------------------------
 
 Number of Clenshaw-Curtis nodes:          100
 Optimized scaling parameter    :    6.13865104442807     
 Sensitivity measure            :  -3.061168479488729E-005
 
 Contributions to RI integral batches: 
  neglected integral batches:        7510
  direct contribution:              32960
  memory contribution:           0

 maximum number of Davidson iterations set to   25


 logfile dipl_a    exists already

 found      1 converged vectors on dipl_a   
 read       1 vectors from logfile dipl_a   


                    ------------------

                     CPKS equations   

                    ------------------


                       Block Davidson iteration


 total number of roots to be determined:   1


 maximum core memory set to 10000 MB,
 corresponding to      994 vectors in CAO basis


 maximum number of simultaneously treated vectors (including degeneracy):        1


 Iteration IRREP Converged      Max. Euclidean
                 roots          residual norm

    1       a        0        4.429654465385082D-03
 
    2       a        0        2.293268575313204D-04
 
    3       a        0        3.994177443677981D-05
 
    4       a        0        1.799961463984936D-05
 
    5       a        1        5.311848435497209D-06
 

 converged!


 Switching to fine grid

 preparing numerical integration ....
          Overall gridpoints after grid construction =        320279

 Calculating ground state density on molecular grid

 Integral of ground state density: N =   91.99998657186129    



 Iteration IRREP Converged      Max. Euclidean
                 roots          residual norm

    6       a        0        2.193044429532339D-05
 

 NOTE: Residual norms are larger than 1.00D-05 due to mgrid option!

 Eigenpairs written on logfile dipl_a   



 IRREP   Vector     Frequency            Euclidean residual norm

  a         1    0.000000000000000D+00    2.193044429532339D-05
 

                    -------------------

                     relaxed densities 

                    -------------------

    ----------------------------------------
     S+T+V CONTRIBUTIONS TO ENERGY GRADIENT 
    ----------------------------------------

 1e-integral 1st. derivatives will be neglected if expon. factor < 0.100000E-10


    -----------------------------------------------
     TWO ELECTRON CONTRIBUTIONS TO ENERGY GRADIENT 
    -----------------------------------------------

 setting up bound for integral derivative estimation

 increment for numerical differentiation : 0.00050000

 biggest AO integral is expected to be     6.990327543
 biggest cartesian 1st derivative AO integral is expected to be    14.574739305

 biggest 1-particle AO density matrix element is expected to be    0.6556364146

 core memory to be involved in 2e-gradient :
   symmetry shell pair data              :         1
   two particle density+dens. estimates  :    234951
   derivative integrals                  :   1194671
   ij-primitive data                     :       576
   derivative integral bound             :    121410
   totally                               :   1316655


 setting up bound for integral derivative estimation

 increment for numerical differentiation : 0.00050000

 biggest AO integral is expected to be     6.990327543
 biggest cartesian 1st derivative AO integral is expected to be    14.574739305

 2e-integral 1st. derivatives will be neglected if expon. factor < 0.935762E-20
 outer boundary for 2e-integral derivative neglection is 0.362817E-20

 Integrated ground state density     :   91.99998657186124    


          ------------------------------------------------
           cartesian gradient of the energy (hartree/bohr)
          ------------------------------------------------

  ATOM      1 c           2 c           3 c           4 o           5 c 
dE/dx  0.5813555D-06 -0.2131255D-05 -0.6483127D-05 -0.2642933D-07  0.8074971D-06
dE/dy  0.5358405D-05  0.8521374D-06 -0.2030097D-06 -0.3885586D-05 -0.7354436D-06
dE/dz  0.1079286D-04 -0.2681180D-05 -0.2496789D-05  0.3225924D-05 -0.1288328D-04

  ATOM      6 o           7 o           8 c           9 c          10 o 
dE/dx -0.1667182D-05 -0.1737052D-06  0.7305744D-05 -0.5075707D-05 -0.3054351D-06
dE/dy -0.8193756D-06  0.2207472D-05 -0.1201237D-04  0.5011635D-05  0.7611804D-06
dE/dz -0.5894796D-05  0.4120918D-05  0.8737018D-05 -0.3566417D-05  0.2985146D-05

  ATOM     11 o          12 h          13 h          14 o          15 h 
dE/dx -0.2701507D-05  0.2033965D-05  0.1779855D-05 -0.1432047D-05  0.2744954D-05
dE/dy -0.2151922D-05 -0.8381583D-06 -0.2248621D-05  0.9934468D-05  0.7833276D-06
dE/dz  0.1677750D-05  0.1674641D-05 -0.1503518D-05 -0.2425650D-05 -0.2914881D-07

  ATOM     16 h          17 h          18 h          19 h          20 h 
dE/dx -0.7528651D-06  0.1007905D-05  0.1099632D-05  0.2656489D-05  0.5242813D-06
dE/dy  0.2676838D-07 -0.1574309D-05  0.6496240D-06 -0.9419393D-07 -0.1210305D-05
dE/dz -0.1584142D-05  0.1288447D-05  0.1261272D-06  0.9502041D-06 -0.2783756D-05
 
 resulting FORCE  (fx,fy,fz) = (-.208D-06,-.188D-06,-.270D-06)
 resulting MOMENT (mx,my,mz) = (0.364D-07,-.376D-06,0.724D-05)


 **********************************************************************
  |maximum component of gradient| : 0.12883282E-04  (atom  5 c )       
   gradient norm                  : 0.31324687E-04
 **********************************************************************

 exx =       0.000003 eyy =      -0.000032 ezz =       0.000006
 eyz =       0.000015 exz =      -0.000005 exy =       0.000004

   ***  cartesian gradients written onto <gradient>  ***
 
 
 
 ==============================================================================
                           electrostatic moments
 ==============================================================================

 reference point for electrostatic moments:    0.00000   0.00000   0.00000

 
              nuc           gs,e       ->  gs,tot          rpa       ->  total
 ------------------------------------------------------------------------------
                          charge      
 ------------------------------------------------------------------------------
          92.000000     -92.000000      -0.000000       0.000000      -0.000000
 
 ------------------------------------------------------------------------------
                       dipole moment  
 ------------------------------------------------------------------------------
   x     -47.312507      47.347483       0.034976      -0.057273      -0.022296
   y     -36.841852      37.988666       1.146814      -0.036133       1.110681
   z      20.187772     -19.482797       0.704976      -0.040161       0.664815
 
   | dipole moment | =     1.2946 a.u. =     3.2906 debye 
 
 ------------------------------------------------------------------------------
                     quadrupole moment
 ------------------------------------------------------------------------------
  xx     760.862955    -815.762948     -54.899993       0.266609     -54.633384
  yy     328.767580    -380.105124     -51.337544       0.331093     -51.006451
  zz     751.500364    -802.113813     -50.613450      -0.557765     -51.171214
  xy     276.941497    -276.794549       0.146947       0.140942       0.287889
  xz    -365.087482     361.747372      -3.340110       0.254812      -3.085298
  yz       4.754150      -8.009112      -3.254962      -0.027610      -3.282572
 
     1/3  trace=     -52.270350
     anisotropy=       8.585795
 
 ==============================================================================
 

    ------------------------------------------------------------------------
    Rirpa profiling                cpu                    wall         ratio
    ------------------------------------------------------------------------
    module                         sec     %               sec     %
    ------------------------------------------------------------------------
    RIRPA                     21413.8  100.00        11571.2  100.00   1.9
    RIRPA_energy               2886.0   13.48         1399.8   12.10   2.1
    ccmkbaoi                    272.9    1.27           34.3    0.30   8.0
    ecrpa                      1438.2    6.72          212.4    1.84   6.8
    tread                       226.9    1.06           33.1    0.29   6.9
    tqbuild                    1109.2    5.18          155.1    1.34   7.2
    trpaln                       68.9    0.32            8.6    0.07   8.0
    ehxx                       1155.1    5.39         1145.5    9.90   1.0
    RIRPA_grad                18527.8   86.52        10171.4   87.90   1.8
    rirhs                      8755.4   40.89         1190.8   10.29   7.4
    respon                      449.3    2.10          103.5    0.89   4.3
    rparelax                    202.8    0.95           34.2    0.30   5.9
    egdfin                     8978.7   41.93         8824.2   76.26   1.0
    ------------------------------------------------------------------------
    sum                       65525.5  306.00        34894.4  301.56   1.9
    ------------------------------------------------------------------------


    ------------------------------------------------------------------------
         total  cpu-time :  5 hours 56 minutes and 55 seconds
         total wall-time :  3 hours 12 minutes and 51 seconds
    ------------------------------------------------------------------------


   ****  rirpa : all done  ****


    2015-11-03 15:12:22.372 

                                 ****   rirpa : all done  ****
fine, there is no data group "$actual step"
script actual: unknown actual step rirpa
next step = unknown
 energy change  : actual value =  -0.8800E-08 threshold =   0.1000E-06
 geom. gradient : actual value =   0.1480E-04 threshold =   0.1000E-03

CONVERGENCY CRITERIA FULFILLED IN CYCLE 12

