
   OpenMP run-time library returned nthreads = 28
 operating system is UNIX !

 dscf (c-15-33) : TURBOMOLE V7.3 ( 22142 ) 4 Jul 2018 at 18:12:42
 Copyright (C) 2018 TURBOMOLE GmbH, Karlsruhe


    2019-04-01 21:49:18.818 



                             d s c f - program

                   idea & directorship : reinhart ahlrichs
                   program development : marco haeser
                                         michael baer
                           dft version : oliver treutler


                          quantum chemistry group
                          universitaet  karlsruhe
                                  germany




                          References             
                                                 
          TURBOMOLE:                             
              R. Ahlrichs, M. Baer, M. Haeser, H. Horn, and
              C. Koelmel
              Electronic structure calculations on workstation
              computers: the program system TURBOMOLE
              Chem. Phys. Lett. 162: 165 (1989)
          Density Functional:                              
              O. Treutler and R. Ahlrichs                      
              Efficient Molecular Numerical Integration Schemes
              J. Chem. Phys. 102: 346 (1995)                   
          Parallel Version:                                
              Performance of parallel TURBOMOLE for Density    
              Functional Calculations                          
              M. v. Arnim and R. Ahlrichs                      
              J. Comp. Chem. 19: 1746 (1998)                   
                                         




              +--------------------------------------------------+
              | Atomic coordinate, charge and isotop information |
              +--------------------------------------------------+

                    atomic coordinates            atom    charge  isotop
         -1.18608996    0.16528918    0.00278033    o      0.000     0
          0.64931374    0.23111980   -0.00113468    h      0.000     0
         -1.84802220   -2.41612070    0.00234025    c      0.000     0
         -3.89924596   -2.53609434    0.00946560    h      0.000     0
         -1.16196177   -3.41355562   -1.67313320    h      0.000     0
         -1.15016353   -3.41707238    1.67084432    h      0.000     0
          4.29409396    0.03105255   -0.00307428    n      7.000     0
          5.61003950   -0.01512353   -2.16628083    c      6.000     0
          4.50553502    0.02876259   -3.88777492    h      1.000     0
          8.23607297   -0.10912392   -2.25828262    c      6.000     0
          9.19482996   -0.14180113   -4.06067076    h      1.000     0
          9.57848383   -0.15771373    0.00109856    c      6.000     0
         11.62002300   -0.22907877    0.00270350    h      1.000     0
          8.23253120   -0.11043069    2.25845174    c      6.000     0
          9.18835229   -0.14411379    4.06216829    h      1.000     0
          5.60665537   -0.01641741    2.16216247    c      6.000     0
          4.49926492    0.02643105    3.88203754    h      1.000     0
 
       center of nuclear mass  :    4.50103108   -0.36459726   -0.00000150
       center of nuclear charge:    6.96784191   -0.06417352   -0.00095620

              +--------------------------------------------------+
              |               basis set information              |
              +--------------------------------------------------+

              we will work with the 1s 3p 5d 7f 9g ... basis set
              ...i.e. with spherical basis functions...

   type   atoms  prim   cont   basis
   ---------------------------------------------------------------------------
    o        1     50     30   cc-pVTZ   [4s3p2d1f|18s5p2d1f]
    h        9     16     14   cc-pVTZ   [3s2p1d|5s2p1d]
    c        6     50     30   cc-pVTZ   [4s3p2d1f|18s5p2d1f]
    n        1     50     30   cc-pVTZ   [4s3p2d1f|18s5p2d1f]
   ---------------------------------------------------------------------------
   total:   17    544    366
   ---------------------------------------------------------------------------

   total number of primitive shells          :   86
   total number of contracted shells         :  134
   total number of cartesian basis functions :  415
   total number of SCF-basis functions       :  366


 integral neglect threshold       :  0.80E-13
 integral storage threshold THIZE :  0.10E-04
 integral storage threshold THIME :         5


 DENSITY CONVERGENCE CHECK SWITCHED ON !
 SCF CONVERGENCE IF RMS(delta[D]) <     0.1000000000E-06


 symmetry group of the molecule :   c1 

 the group has the following generators :
   c1(z)

    1 symmetry operations found

 there are 1 real representations :   a   

 maximum number of shells which are related by symmetry :  1


    mo occupation :
   irrep   mo's   occupied
    a      366       21
 
 number of basis functions   :                    366
 number of occupied orbitals :                     21
 

 automatic virtual orbital shift switched on 
      shift if e(lumo)-e(homo) < 0.10000000    


          ------------------------
          nuclear repulsion energy  :   206.284267381    
          ------------------------


         -----------------
         -S,T+V- integrals
         -----------------

 1e-integrals will be neglected if expon. factor < 0.805292E-14
 
   Difference densities algorithm switched on.
   The maximal number of linear combinations of
   difference densities is                    20 .

 DIIS switched on: error vector is FDS-SDF
 Max. Iterations for DIIS is     :   5
 DIIS matrix (see manual) 
    Scaling factor of diagonals  :  1.200
    threshold for scaling factor :  0.000

 scf convergence criterion : increment of total energy < .1000000D-08
                  and increment of one-electron energy < .1000000D-05

  MOs are in ASCII format !


 reading orbital data $scfmo  from file mos
 orbital characterization : scfconv=9

 DSCF restart information will be dumped onto file mos

 
                                              current damping :  0.700
 ITERATION  ENERGY          1e-ENERGY        2e-ENERGY     RMS[dD(SAO)]   TOL
   1  -246.72518478155    -742.27027856     289.26082640    0.000D+00 0.803D-13
          max. resid. norm for Fia-block=  9.317D-02 for orbital      1a         
          max. resid. fock norm         =  4.133D-01 for orbital    360a         
          Delta Eig. =    24.7553131662 eV 
 
                                              current damping :  0.650
 ITERATION  ENERGY          1e-ENERGY        2e-ENERGY     RMS[dD(SAO)]   TOL
   2  -246.76656953674    -741.41350903     288.36267212    0.826D-03 0.511D-13
          Norm of current diis error: 0.42143    
          max. resid. norm for Fia-block=  4.442D-02 for orbital      1a         
          max. resid. fock norm         =  1.337D-01 for orbital    350a         
          Delta Eig. =    11.0996122057 eV 
 
                                              current damping :  0.600
 ITERATION  ENERGY          1e-ENERGY        2e-ENERGY     RMS[dD(SAO)]   TOL
   3  -246.77486141994    -741.49511624     288.43598744    0.425D-03 0.386D-13
          Norm of current diis error: 0.18732    
          max. resid. norm for Fia-block=  1.886D-02 for orbital      1a         
          max. resid. fock norm         =  5.894D-02 for orbital    361a         
          Delta Eig. =     4.5147646947 eV 
 
                                              current damping :  0.650
 ITERATION  ENERGY          1e-ENERGY        2e-ENERGY     RMS[dD(SAO)]   TOL
   4  -246.77661994203    -741.43076500     288.36987768    0.201D-03 0.337D-13
          Norm of current diis error: 0.76434E-01
          max. resid. norm for Fia-block=  6.798D-03 for orbital      1a         
          max. resid. fock norm         =  2.195D-02 for orbital    362a         
          Delta Eig. =     1.5551614478 eV 
 
                                              current damping :  0.500
 ITERATION  ENERGY          1e-ENERGY        2e-ENERGY     RMS[dD(SAO)]   TOL
   5  -246.77692120344    -741.41457039     288.35338180    0.816D-04 0.311D-13
          Norm of current diis error: 0.32872E-01
          max. resid. norm for Fia-block=  2.820D-03 for orbital     13a         
          max. resid. fock norm         =  7.076D-03 for orbital    362a         
 mo-orthogonalization: Cholesky decomposition
          Delta Eig. =     0.6986187256 eV 
 
                                              current damping :  0.350
 ITERATION  ENERGY          1e-ENERGY        2e-ENERGY     RMS[dD(SAO)]   TOL
   6  -246.77698548110    -741.40851091     288.34725804    0.403D-04 0.291D-13
          Norm of current diis error: 0.12951E-01
          max. resid. norm for Fia-block=  1.184D-03 for orbital     21a         
          max. resid. fock norm         =  2.240D-03 for orbital    362a         
          Delta Eig. =     0.2432131485 eV 
 
                                              current damping :  0.200
 ITERATION  ENERGY          1e-ENERGY        2e-ENERGY     RMS[dD(SAO)]   TOL
   7  -246.77699853199    -741.40546772     288.34420180    0.180D-04 0.272D-13
          Norm of current diis error: 0.52007E-02
          max. resid. norm for Fia-block=  5.611D-04 for orbital     21a         
          max. resid. fock norm         =  5.624D-04 for orbital    362a         
          Delta Eig. =     0.0738058185 eV 
 
                                              current damping :  0.050
 ITERATION  ENERGY          1e-ENERGY        2e-ENERGY     RMS[dD(SAO)]   TOL
   8  -246.77700183149    -741.40516399     288.34389478    0.829D-05 0.251D-13
          Norm of current diis error: 0.25889E-02
          max. resid. norm for Fia-block=  3.683D-04 for orbital     21a         
          max. resid. fock norm         =  3.683D-04 for orbital     21a         
          Delta Eig. =     0.0157650875 eV 
 
                                              current damping :  0.050
 ITERATION  ENERGY          1e-ENERGY        2e-ENERGY     RMS[dD(SAO)]   TOL
   9  -246.77700307550    -741.40491329     288.34364284    0.505D-05 0.229D-13
          Norm of current diis error: 0.13305E-02
          max. resid. norm for Fia-block=  2.454D-04 for orbital     20a         
          max. resid. fock norm         =  2.489D-04 for orbital     20a         
          Delta Eig. =     0.0032055657 eV 
 
                                              current damping :  0.100
 ITERATION  ENERGY          1e-ENERGY        2e-ENERGY     RMS[dD(SAO)]   TOL
  10  -246.77700347868    -741.40524058     288.34396972    0.342D-05 0.209D-13
          Norm of current diis error: 0.59014E-03
          max. resid. norm for Fia-block=  1.113D-04 for orbital     21a         
          max. resid. fock norm         =  1.113D-04 for orbital     21a         
 mo-orthogonalization: Cholesky decomposition
          Delta Eig. =     0.0048778784 eV 
 
                                              current damping :  0.150
 ITERATION  ENERGY          1e-ENERGY        2e-ENERGY     RMS[dD(SAO)]   TOL
  11  -246.77700354210    -741.40507392     288.34380300    0.152D-05 0.199D-13
          Norm of current diis error: 0.25227E-03
          max. resid. norm for Fia-block=  4.853D-05 for orbital     20a         
          max. resid. fock norm         =  5.230D-05 for orbital     20a         
          Delta Eig. =     0.0016357104 eV 
 
                                              current damping :  0.200
 ITERATION  ENERGY          1e-ENERGY        2e-ENERGY     RMS[dD(SAO)]   TOL
  12  -246.77700355142    -741.40518521     288.34391428    0.512D-06 0.194D-13
          Norm of current diis error: 0.92580E-04
          max. resid. norm for Fia-block=  1.447D-05 for orbital     20a         
          max. resid. fock norm         =  1.454D-05 for orbital     20a         
          Delta Eig. =     0.0004621364 eV 
 
                                              current damping :  0.250
 ITERATION  ENERGY          1e-ENERGY        2e-ENERGY     RMS[dD(SAO)]   TOL
  13  -246.77700355266    -741.40517676     288.34390583    0.226D-06 0.191D-13
          Norm of current diis error: 0.33247E-04
          max. resid. norm for Fia-block=  6.170D-06 for orbital     20a         
          max. resid. fock norm         =  6.204D-06 for orbital     20a         
          Delta Eig. =     0.0000702762 eV 

 ENERGY & DENSITY CONVERGED !

 
                                              current damping :  0.100
 ITERATION  ENERGY          1e-ENERGY        2e-ENERGY     RMS[dD(SAO)]   TOL
  14  -246.77700355284    -741.40517645     288.34390552    0.812D-07 0.229D-13
          max. resid. norm for Fia-block=  1.643D-06 for orbital     19a         
          max. resid. fock norm         =  1.805D-06 for orbital     19a         

 convergence criteria satisfied after    14 iterations


                  ------------------------------------------ 
                 |  total energy      =   -246.77700355284  |
                  ------------------------------------------ 
                 :  kinetic energy    =    246.37342680134  :
                 :  potential energy  =   -493.15043035418  :
                 :  virial theorem    =      1.99836460956  :
                 :  wavefunction norm =      1.00000000000  :
                  .......................................... 


 orbitals $scfmo  will be written to file mos

    irrep                 17a         18a         19a         20a         21a   
 eigenvalues H         -0.54025    -0.51981    -0.41705    -0.38260    -0.34756
            eV         -14.7012    -14.1448    -11.3487    -10.4112     -9.4576
 occupation              2.0000      2.0000      2.0000      2.0000      2.0000 

    irrep                 22a         23a         24a         25a         26a   
 eigenvalues H          0.10056     0.10697     0.12232     0.14436     0.16213
            eV           2.7363      2.9109      3.3285      3.9284      4.4118
 
 
 
 
 ==============================================================================
                           electrostatic moments
 ==============================================================================

 reference point for electrostatic moments:    0.00000   0.00000   0.00000

 
              nuc           elec       ->  total
 ------------------------------------------------------------------------------
                          charge      
 ------------------------------------------------------------------------------
          42.000000     -42.000000      -0.000000
 
 ------------------------------------------------------------------------------
                       dipole moment  
 ------------------------------------------------------------------------------
   x     292.649360    -291.728241       0.921119
   y      -2.695288       2.667117      -0.028171
   z      -0.040160       0.040848       0.000687
 
   | dipole moment | =     0.9216 a.u. =     2.3423 debye 
 
 ------------------------------------------------------------------------------
                     quadrupole moment
 ------------------------------------------------------------------------------
  xx    2215.185270   -2229.487062     -14.301791
  yy       0.398478     -29.088174     -28.689696
  zz     180.584331    -202.230823     -21.646492
  xy     -25.080550      24.749557      -0.330993
  xz      -0.282757       0.282793       0.000036
  yz      -0.055380       0.053255      -0.002125
 
     1/3  trace=     -21.545993
     anisotropy=      12.474384
 
 ==============================================================================
 


    ------------------------------------------------------------------------
         total  cpu-time : 20 minutes and 17 seconds
         total wall-time :  1 minutes and 26 seconds
    ------------------------------------------------------------------------

   ****  dscf : all done  ****


    2019-04-01 21:50:44.592 

