Using Slurm to start processes with PMI2
STARTING ridft ON 8 PROCESSORS!
RUNNING PROGRAM /beegfs/modfac/apps/TURBOMOLE/7.0_intel_GA/bin/em64t-unknown-linux-gnu_mpi/ridft_mpi.
PLEASE WAIT UNTIL ridft HAS FINISHED.
Look for the output in slave1.output.
  this is node-proc. number 1 running on node c-6-28.local
  the total number of node-proc. spawned is            8
  parallel platform: MPP, or cluster with fast interconnect

 ridft (c-6-28.local) : TURBOMOLE V7.0.2( ) 15 Jan 2016 at 17:47:42
 Copyright (C) 2016 TURBOMOLE GmbH, Karlsruhe


    2018-02-01 20:01:04.739 



                                  r i d f t

                        DFT program with RI approximation 
                                for coulomb part 




                                                 
                                 References:     
                                                 
          TURBOMOLE:                             
              R. Ahlrichs, M. Baer, M. Haeser, H. Horn, and
              C. Koelmel
              Electronic structure calculations on workstation
              computers: the program system TURBOMOLE
              Chem. Phys. Lett. 162: 165 (1989)
          Density Functional:                              
              O. Treutler and R. Ahlrichs                      
              Efficient Molecular Numerical Integration Schemes
              J. Chem. Phys. 102: 346 (1995)                   
          Parallel Version:                                
              Performance of parallel TURBOMOLE for Density    
              Functional Calculations                          
              M. v. Arnim and R. Ahlrichs                      
              J. Comp. Chem. 19: 1746 (1998)                   
          RI-J Method:                                     
              Auxiliary Basis Sets to approximate Coulomb      
              Potentials                                       
              Chem. Phys. Lett. 240: 283 (1995)                
              K. Eichkorn, O. Treutler, H. Oehm, M. Haeser     
              and R. Ahlrichs                                  
              Chem. Phys. Lett. 242: 652 (1995)                
                                                           
              Auxiliary Basis Sets for Main Row Atoms and their
              Use to approximate Coulomb Potentials            
              K. Eichkorn, F. Weigend, O. Treutler and         
              R. Ahlrichs                                      
              Theo. Chem. Acc. 97: 119 (1997)                   
                                                           
              Accurate Coulomb-fitting basis sets for H to Rn 
              F. Weigend                                        
              Phys. Chem. Chem. Phys. 8: 1057 (2006)            
                                                           
          Multipole accelerated RI-J (MARI-J):             
              Fast evaluation of the Coulomb potential for     
              electron densities using multipole accelerated   
              resolution of identity approximation             
              M. Sierka, A. Hogekamp and R. Ahlrichs           
              J. Chem. Phys. 118: 9136 (2003)                  
          RI-JK Method:                                     
              A fully direct RI-HF algorithm: Implementation,
              optimised auxiliary basis sets, demonstration of
              accuracy and efficiency                         
              F. Weigend                                      
              Phys. Chem. Chem. Phys. 4: 4285 (2002)           
          Two-component HF and DFT with spin-orbit coupling:  
              Self-consistent treatment of spin-orbit         
              interactions with efficient Hartree-Fock and    
              density functional methods                      
              M. K. Armbruster, F. Weigend, C. van Wüllen and 
              W. Klopper                                      
              Phys. Chem. Chem. Phys. 10: 1748 (2008)         
          Relativistic all-electron 2c calculations           
              An efficient implementation of two-component    
              relativistic exact-decoupling methods for large 
              molecules                                       
              D. Peng, N. Middendorf, F. Weigend, M. Reiher   
              J. Chem. Phys. 138, 184105 (2013)               
                                         


 


              +--------------------------------------------------+
              |      general information about current run       |
              +--------------------------------------------------+

 

 SCF run will be profiled !


 DENSITY CONVERGENCE CHECK SWITCHED ON !
 SCF CONVERGENCE IF RMS(delta[D]) <     0.1000000000E-06

 PBE functional
 exchange:    LDA + PBE
 correlation: LDA (PW) + PBE
 A DFT calculation using the RI-J approximation will be carried out.

 !!!RI-K makes sense only with a hybrid functional.

    RI-K switched off!!!
 Allocatable memory for RI due to $ricore (MB):        5000


              +--------------------------------------------------+
              | Atomic coordinate, charge and isotop information |
              +--------------------------------------------------+

                    atomic coordinates            atom    charge  isotop
         -7.50192929   -9.30448991  -22.21948869    c      6.000     0
         -9.16726367  -11.38555271  -21.06400242    c      6.000     0
        -13.52984574  -10.67571677  -19.59037130    c      6.000     0
         -8.42156073  -13.95719218  -22.27847649    c      6.000     0
         -9.78992654  -16.17059628  -21.11087518    c      6.000     0
        -12.17392377  -16.90590950  -22.00286749    c      6.000     0
        -13.47907824  -18.88276713  -20.84310666    c      6.000     0
        -12.42088830  -20.15587374  -18.78919923    c      6.000     0
        -10.03294721  -19.46046775  -17.91232662    c      6.000     0
         -8.72943680  -17.48687368  -19.07354632    c      6.000     0
        -16.27005068  -10.44483381  -20.39504503    c      6.000     0
         -5.98438472   -9.66913714  -13.48222842    c      6.000     0
         -8.12955647  -11.25696440  -12.28853566    c      6.000     0
        -11.23039107   -8.07239037  -10.89627993    c      6.000     0
         -8.30495707  -13.90535700  -13.46890774    c      6.000     0
        -10.19384416  -15.60124636  -12.15632664    c      6.000     0
         -9.49419763  -17.01314012  -10.02942476    c      6.000     0
        -11.23189719  -18.57987805   -8.81531352    c      6.000     0
        -13.70395943  -18.75728742   -9.71946810    c      6.000     0
        -14.41915275  -17.36006550  -11.83882998    c      6.000     0
        -12.67723154  -15.79650420  -13.05012742    c      6.000     0
        -13.84125560   -6.96798150  -11.31479380    c      6.000     0
        -11.83168114  -10.85450754  -21.49583129    n      7.000     0
         -5.63554316   -8.44633882  -20.71677091    n      7.000     0
         -5.21765291   -7.72844887  -12.00351961    n      7.000     0
        -10.51759772   -9.88592085  -12.56467378    n      7.000     0
         -7.82268573   -8.56573739  -24.42375596    o      8.000     0
        -12.91885193  -10.66787063  -17.31889970    o      8.000     0
         -5.07159786  -10.13427244  -15.59103806    o      8.000     0
         -9.84877072   -7.38812431   -9.11977863    o      8.000     0
        -15.07104401   -7.59974907   -9.77453094    h      1.000     0
         -4.00798441   -6.43763553  -12.73573557    h      1.000     0
        -13.73083701   -4.90676650  -11.22751869    h      1.000     0
         -4.41531676   -7.15738497  -21.43228547    h      1.000     0
        -17.38537082  -11.81025165  -19.31735879    h      1.000     0
        -16.94974926   -8.55091438  -19.91036996    h      1.000     0
        -14.66786527   -7.55472635  -13.11450283    h      1.000     0
        -11.54870032  -10.19852502  -14.17397968    h      1.000     0
         -7.76770226  -11.41176132  -10.25645268    h      1.000     0
         -8.80074751  -13.72997718  -15.46489506    h      1.000     0
         -6.41696949  -14.74844130  -13.38533838    h      1.000     0
        -13.23217797  -14.73068166  -14.71515000    h      1.000     0
         -7.56582660  -16.89116964   -9.32378591    h      1.000     0
        -16.33630258  -17.49842557  -12.56202250    h      1.000     0
        -10.65528505  -19.66831305   -7.17176201    h      1.000     0
        -15.05895354  -19.98244979   -8.78175009    h      1.000     0
         -6.32640436   -7.24868709  -10.48716746    h      1.000     0
        -16.52885245  -10.77943061  -22.41528321    h      1.000     0
        -12.50097490  -11.07628391  -23.30021928    h      1.000     0
         -8.89567412  -11.45365277  -19.02179617    h      1.000     0
         -8.84094765  -13.84109308  -24.29905293    h      1.000     0
         -6.37360972  -14.18654825  -22.06882649    h      1.000     0
        -12.99822798  -15.92422512  -23.60664971    h      1.000     0
         -6.87055100  -16.94693924  -18.38277205    h      1.000     0
        -15.32761402  -19.43216910  -21.55019116    h      1.000     0
         -9.19848951  -20.43601430  -16.31150182    h      1.000     0
        -13.44691133  -21.68021754  -17.87415226    h      1.000     0
         -5.39500559   -9.04189924  -18.88738562    h      1.000     0
 
       center of nuclear mass  :  -10.26877867  -12.82503035  -16.20815606
       center of nuclear charge:  -10.31087610  -12.83745562  -16.20310470

              +--------------------------------------------------+
              |               basis set information              |
              +--------------------------------------------------+

              we will work with the 1s 3p 5d 7f 9g ... basis set
              ...i.e. with spherical basis functions...

   type   atoms  prim   cont   basis
   ---------------------------------------------------------------------------
    c       22     77     57   def2-QZVP   [7s4p3d2f1g|15s8p3d2f1g]
    n        4     77     57   def2-QZVP   [7s4p3d2f1g|15s8p3d2f1g]
    o        4     77     57   def2-QZVP   [7s4p3d2f1g|15s8p3d2f1g]
    h       28     33     30   def2-QZVP   [4s3p2d1f|7s3p2d1f]
   ---------------------------------------------------------------------------
   total:   58   3234   2550
   ---------------------------------------------------------------------------

   total number of primitive shells          :  100
   total number of contracted shells         :  790
   total number of cartesian basis functions : 3140
   total number of SCF-basis functions       : 2550


 integral neglect threshold       :  0.11E-13
 integral storage threshold THIZE :  0.10E-04
 integral storage threshold THIME :         5

 RI-J AUXILIARY BASIS SET information:

              we will work with the 1s 3p 5d 7f 9g ... basis set
              ...i.e. with spherical basis functions...

   type   atoms  prim   cont   basis
   ---------------------------------------------------------------------------
    c       22     70     49   def2-QZVP   [6s4p3d1f1g|12s5p4d2f1g]
    n        4     70     49   def2-QZVP   [6s4p3d1f1g|12s5p4d2f1g]
    o        4     70     49   def2-QZVP   [6s4p3d1f1g|12s5p4d2f1g]
    h       28     16     11   def2-QZVP   [3s1p1d|5s2p1d]
   ---------------------------------------------------------------------------
   total:   58   2548   1778
   ---------------------------------------------------------------------------

   total number of primitive shells          :   80
   total number of contracted shells         :  590
   total number of cartesian basis functions : 2166
   total number of SCF-basis functions       : 1778


 symmetry group of the molecule :   c1 

 the group has the following generators :
   c1(z)

    1 symmetry operations found

 there are 1 real representations :   a   

 maximum number of shells which are related by symmetry :  1


    mo occupation :
   irrep   mo's   occupied
    a     2550      110
 
 number of basis functions   :         2550
 number of occupied orbitals :          110
 
  
           ------------------
           density functional
           ------------------
 PBE functional
 exchange:    LDA + PBE
 correlation: LDA (PW) + PBE
 grinp -> nfun, dfgga, dfhybrid 
           6 T F
 iterations will be done with small grid
  
 spherical integration : Lebedev's spherical grid
 spherical gridsize    :           5
    i.e. gridpoints    :         590
 value for diffuse not defined
 radial integration    : Chebyshev 2nd kind (scaling 3)
 radial gridsize       :           8
 integration cells     :          58
 partition function    : becke
 partition sharpness   :           3
  

 <rddim> : input of entry tasksize
           from data group '$pardft' failed !

               Default values taken

 <rddim> : input of entry memdiv
           from data group '$pardft' failed !

               Default values taken
  RIDFT: memory allocation for DFT gridpoints
  MEMORY is divided by 1 as DEFAULT
 Each node can hold at most  the            1 -th part
 of the gridpoints    

 biggest AO integral is expected to be     6.990327543
  
           ------------------------
               RI-J - INFORMATION
           ------------------------
 
 
 **************************************************
 *      MEMORY ALLOCATION FOR PARALLEL RI-DFT     *
 **************************************************
 
 
MEMORY FOR (MU NU/ ALPHA), SEQUENTIAL RUN               4974 MByte
 
            DIFFERENCE IN MEMORY NEED:       DIAG./SLAVE  
 
      TOTAL DIFFERENCE :                    291 MByte
 
      difference in xcore:                   27 MByte
      difference in fatmat:                  89 MByte
      getcor calls skipped by slaves:       175 MByte
 
 
           Integral memory available for diagonal.      4974 MByte
 
           Integral memory available for slave             0 MByte
 
         MEMORY FOR (MU NU/ ALPHA) ON DIAGONALIZER      4974 MByte
 
         MEMORY FOR (MU NU/ ALPHA) ON ONE SLAVE            0 MByte
 
         TOTAL MEMORY FOR (MU NU/ ALPHA),ALL NODES      4974 MByte
 
 Contributions to RI integral batches: 
  neglected integral batches:      152069
  direct contribution:             118819
  memory contribution:       41557
 Memory core needed for (P|Q) and Cholesky     25 MByte
 Memory core minimum needed except of (P|Q)     4 MByte
 Total minimum memory core needed (sum)        28 MByte
     number of direct tasks:         160
  
 ****************************************
 Memory allocated for RI-J  5002 MByte
 ****************************************
                                            

          ------------------------
          nuclear repulsion energy  :   3070.35079296    
          ------------------------

 
          -----------------
          -S integrals
          -----------------

 1e-integrals will be neglected if expon. factor < 0.106432E-14
 
          -----------------
          -T+V integrals
          -----------------

 1e-integrals will be neglected if expon. factor < 0.106432E-14
 Difference densities >>NOT<< switched on in parallel ridft!

 automatic virtual orbital shift switched on 
      shift if e(lumo)-e(homo) < 0.10000000    


 DIIS switched on: error vector is FDS-SDF
 Max. Iterations for DIIS is     :   4
 DIIS matrix (see manual) 
    Scaling factor of diagonals  :  1.200
    threshold for scaling factor :  0.000

 scf convergence criterion : increment of total energy < .1000000D-08
                  and increment of one-electron energy < .1000000D-05

  MOs are in ASCII format !


 reading orbital data $scfmo  from file mos . 

 orbital characterization : scfconv=9
 

 DSCF restart information will be dumped onto file mos


 Starting SCF iterations


 ITERATION  ENERGY          1e-ENERGY        2e-ENERGY     RMS[dD(SAO)]   TOL
   1  -1374.1665197973    -7979.0399909     3534.5226781    0.000D+00 0.106D-13
                            Exc = -190.258280421     Coul =  3724.78095854    
                              N = 220.00024301    
                            current damping = 0.700
 
          max. resid. norm for Fia-block=  5.773D-07 for orbital    101a         
          max. resid. fock norm         =  1.124D-06 for orbital   2448a         

 ITERATION  ENERGY          1e-ENERGY        2e-ENERGY     RMS[dD(SAO)]   TOL
   2  -1374.1665197973    -7979.0400147     3534.5227020    0.349D-08 0.106D-13
                            Exc = -190.258278508     Coul =  3724.78098049    
                              N = 220.00024301    
                            current damping = 0.700
 
          Norm of current diis error: 0.18943E-04
          max. resid. norm for Fia-block=  2.647D-07 for orbital    101a         
          max. resid. fock norm         =  5.808D-07 for orbital   2448a         

 ENERGY & DENSITY CONVERGED !


 ITERATION  ENERGY          1e-ENERGY        2e-ENERGY     RMS[dD(SAO)]   TOL
   3  -1374.1665007629    -7979.0399976     3534.5227039    0.167D-08 0.106D-13
                            Exc = -190.258259961     Coul =  3724.78096384    
                              N = 220.00002951    
                            current damping = 0.750
 
          Norm of current diis error: 0.62160E-05
          max. resid. norm for Fia-block=  6.167D-08 for orbital     32a         
          max. resid. fock norm         =  1.455D-07 for orbital   2526a         

 End of SCF iterations

   convergence criteria satisfied after    3 iterations


                  ------------------------------------------ 
                 |  total energy      =  -1374.16650076289  |
                  ------------------------------------------ 
                 :  kinetic energy    =   1368.10073476228  :
                 :  potential energy  =  -2742.26723552517  :
                 :  virial theorem    =      1.99558585805  :
                 :  wavefunction norm =      1.00000000000  :
                  .......................................... 


 orbitals $scfmo  will be written to file mos

    irrep                106a        107a        108a        109a        110a   
 eigenvalues H         -0.22898    -0.22274    -0.21647    -0.21364    -0.20744
            eV          -6.2308     -6.0611     -5.8905     -5.8135     -5.6449
 occupation              2.0000      2.0000      2.0000      2.0000      2.0000 

    irrep                111a        112a        113a        114a        115a   
 eigenvalues H         -0.05398    -0.05067    -0.04453    -0.04334    -0.03994
            eV          -1.4689     -1.3789     -1.2119     -1.1793     -1.0868
 
 
 ! grave: sending quit signal to master process
 
 
 
 
 ==============================================================================
                           electrostatic moments
 ==============================================================================

 reference point for electrostatic moments:    0.00000   0.00000   0.00000

 
              nuc           elec       ->  total
 ------------------------------------------------------------------------------
                          charge      
 ------------------------------------------------------------------------------
         220.000000    -220.000000      -0.000000
 
 ------------------------------------------------------------------------------
                       dipole moment  
 ------------------------------------------------------------------------------
   x   -2268.392742    2267.652230      -0.740511
   y   -2824.240237    2823.829324      -0.410913
   z   -3564.683033    3564.599127      -0.083907
 
   | dipole moment | =     0.8510 a.u. =     2.1631 debye 
 
 ------------------------------------------------------------------------------
                     quadrupole moment
 ------------------------------------------------------------------------------
  xx   25481.025778  -25586.051084    -105.025306
  yy   40185.018978  -40305.875324    -120.856346
  zz   62893.702501  -63038.473424    -144.770924
  xy   30013.193699  -29996.684609      16.509090
  xz   36626.129191  -36604.004672      22.124520
  yz   45746.459776  -45739.517321       6.942455
 
     1/3  trace=    -123.550859
     anisotropy=      60.264814
 
 ==============================================================================
 

    ridft profiling
  --------------------------------------------------------------------
             module   cpu total (s)       %  wall total (s)       %

               RIDFT           448.2  100.00           448.0  100.00
         Ridft_b_scf            58.1   12.95            58.0   12.95
        b_scf_prelim             0.0    0.00             0.0    0.00
        b_scf_molinp             0.0    0.01             0.0    0.01
         b_scf_init0             0.0    0.00             0.0    0.00
        b_scf_auxbas             0.0    0.00             0.0    0.00
      b_scf_symmetry             0.0    0.00             0.0    0.00
         b_scf_cosmo             0.0    0.00             0.0    0.00
        b_scf_params             7.3    1.64             7.3    1.64
          b_scf_ri-j            20.2    4.51            20.2    4.51
    b_scf_ri-j_auxpq            20.2    4.50            20.2    4.50
     ri-j_auxpq_chol             0.8    0.18             0.8    0.18
         b_scf_1elec             3.4    0.77             3.4    0.76
       b_scf_moinput            27.0    6.03            27.0    6.03
     moinput_orthmos            19.0    4.25            19.0    4.25
    b_scf_dft-dstmax             0.0    0.00             0.0    0.00
           Ridft_scf           389.1   86.82           388.9   86.82
          Scf_b_loop             0.0    0.00             0.0    0.00
                noga             0.0    0.00             0.0    0.00
            Scf_loop           384.6   85.80           384.4   85.80
     scf_loop_mkdmat             1.7    0.39             1.7    0.39
       scf_loop_ri-j            67.9   15.16            67.9   15.15
      parlp1.bc.dens             0.2    0.05             0.2    0.05
        parlp1.gs.gp             1.6    0.36             1.6    0.36
        parlp2.bc.gq             0.0    0.00             0.0    0.00
        scf_loop_dft           253.1   56.47           252.9   56.46
      pardft.bc.dens             0.0    0.00             0.0    0.00
        dft_grid_con             2.0    0.46             2.0    0.46
           dft_xcrhf           249.6   55.68           249.4   55.66
          dft_getval             9.9    2.21             9.9    2.21
          funct2 dst             0.1    0.03             0.1    0.03
      funct2 f2loop1             2.0    0.44             2.0    0.45
      funct2 f2loop2             4.0    0.89             4.0    0.89
          funct2 s+c             3.6    0.81             3.6    0.81
        funct2 cmf_2             3.3    0.73             3.2    0.72
          dft_mkdens           134.5   30.02           134.4   30.01
         dft_gga-fun             0.1    0.02             0.1    0.03
          dft_mkfock           104.9   23.39           104.8   23.39
     pardft.red.fock            76.8   17.13            76.7   17.12
     scf_loop_energy             0.0    0.00             0.0    0.00
     scf_loop_mkfock             0.0    0.01             0.0    0.01
       scf_loop_diis            37.4    8.34            37.3    8.34
       scf_loop_diag            16.0    3.57            16.0    3.57
         diag_tritrn             6.7    1.49             6.7    1.49
          diag_rdiag             9.3    2.07             9.3    2.07
     scf_loop_modump             8.1    1.82             8.2    1.82
          Scf_a_loop             4.5    1.01             4.5    1.01
         Ridft_a_scf             1.0    0.23             1.0    0.23
         a_scf_fanal             1.0    0.22             1.0    0.23
 


    ------------------------------------------------------------------------
         total  cpu-time :  7 minutes and 34 seconds
         total wall-time :  7 minutes and 34 seconds
    ------------------------------------------------------------------------


   ****  ridft : all done  ****


    2018-02-01 20:08:38.930 

