
   OpenMP run-time library returned nthreads = 28
 operating system is UNIX !

 dscf (c-19-413) : TURBOMOLE V7.3 ( 22142 ) 4 Jul 2018 at 18:12:42
 Copyright (C) 2018 TURBOMOLE GmbH, Karlsruhe


    2019-04-02 17:22:48.066 



                             d s c f - program

                   idea & directorship : reinhart ahlrichs
                   program development : marco haeser
                                         michael baer
                           dft version : oliver treutler


                          quantum chemistry group
                          universitaet  karlsruhe
                                  germany




                          References             
                                                 
          TURBOMOLE:                             
              R. Ahlrichs, M. Baer, M. Haeser, H. Horn, and
              C. Koelmel
              Electronic structure calculations on workstation
              computers: the program system TURBOMOLE
              Chem. Phys. Lett. 162: 165 (1989)
          Density Functional:                              
              O. Treutler and R. Ahlrichs                      
              Efficient Molecular Numerical Integration Schemes
              J. Chem. Phys. 102: 346 (1995)                   
          Parallel Version:                                
              Performance of parallel TURBOMOLE for Density    
              Functional Calculations                          
              M. v. Arnim and R. Ahlrichs                      
              J. Comp. Chem. 19: 1746 (1998)                   
                                         




              +--------------------------------------------------+
              | Atomic coordinate, charge and isotop information |
              +--------------------------------------------------+

                    atomic coordinates            atom    charge  isotop
         -0.10479206   -1.79144318    0.01891668    n      7.000     0
         -0.10831172   -3.69954198    0.10403484    h      1.000     0
         -2.48302399   -0.63333223   -0.12205027    c      6.000     0
         -4.40097685   -1.90465661   -0.23263045    o      8.000     0
         -2.35905620    2.10903246   -0.12568305    c      6.000     0
         -4.09002757    3.16592051   -0.27798333    h      1.000     0
         -0.10030686    3.27192377    0.06461996    c      6.000     0
          0.09091575    5.30338385    0.08205130    h      1.000     0
          2.10879506    1.94186570    0.25543226    n      7.000     0
          3.77313142    2.82944869    0.49439070    h      1.000     0
          2.22108394   -0.66859398    0.33290579    c      6.000     0
          4.18504694   -1.82635496    0.63338423    o      8.000     0
          1.33764612   -0.32560399    6.19140678    c      6.000     0
          3.21946993   -0.99454031    5.97556466    h      1.000     0
         -0.82534213    0.40469520    6.39208028    c      6.000     0
         -2.72429496    1.02584882    6.58174107    h      1.000     0
 
       center of nuclear mass  :   -0.01271103    0.00034844    1.27606525
       center of nuclear charge:   -0.01100736    0.05255711    1.31230485

              +--------------------------------------------------+
              |               basis set information              |
              +--------------------------------------------------+

              we will work with the 1s 3p 5d 7f 9g ... basis set
              ...i.e. with spherical basis functions...

   type   atoms  prim   cont   basis
   ---------------------------------------------------------------------------
    n        2     77     55   cc-pVQZ   [5s4p3d2f1g|21s6p3d2f1g]
    h        6     32     30   cc-pVQZ   [4s3p2d1f|6s3p2d1f]
    c        6     77     55   cc-pVQZ   [5s4p3d2f1g|21s6p3d2f1g]
    o        2     77     55   cc-pVQZ   [5s4p3d2f1g|21s6p3d2f1g]
   ---------------------------------------------------------------------------
   total:   16    962    730
   ---------------------------------------------------------------------------

   total number of primitive shells          :  111
   total number of contracted shells         :  210
   total number of cartesian basis functions :  910
   total number of SCF-basis functions       :  730


 integral neglect threshold       :  0.37E-13
 integral storage threshold THIZE :  0.10E-04
 integral storage threshold THIME :         5


 DENSITY CONVERGENCE CHECK SWITCHED ON !
 SCF CONVERGENCE IF RMS(delta[D]) <     0.1000000000E-06


 symmetry group of the molecule :   c1 

 the group has the following generators :
   c1(z)

    1 symmetry operations found

 there are 1 real representations :   a   

 maximum number of shells which are related by symmetry :  1


    mo occupation :
   irrep   mo's   occupied
    a      730       36
 
 number of basis functions   :                    730
 number of occupied orbitals :                     36
 

 automatic virtual orbital shift switched on 
      shift if e(lumo)-e(homo) < 0.10000000    


          ------------------------
          nuclear repulsion energy  :   495.331172689    
          ------------------------


         -----------------
         -S,T+V- integrals
         -----------------

 1e-integrals will be neglected if expon. factor < 0.367249E-14
 
   Difference densities algorithm switched on.
   The maximal number of linear combinations of
   difference densities is                    20 .

 DIIS switched on: error vector is FDS-SDF
 Max. Iterations for DIIS is     :   5
 DIIS matrix (see manual) 
    Scaling factor of diagonals  :  1.200
    threshold for scaling factor :  0.000

 scf convergence criterion : increment of total energy < .1000000D-08
                  and increment of one-electron energy < .1000000D-05

  MOs are in ASCII format !


 reading orbital data $scfmo  from file mos
 orbital characterization : scfconv=9

 DSCF restart information will be dumped onto file mos

 
                                              current damping :  0.700
 ITERATION  ENERGY          1e-ENERGY        2e-ENERGY     RMS[dD(SAO)]   TOL
   1  -489.38586070729    -1650.8880840     666.17105064    0.000D+00 0.366D-13
          max. resid. norm for Fia-block=  1.161D-01 for orbital      1a         
          max. resid. fock norm         =  2.407D-01 for orbital    728a         
          Delta Eig. =    29.7529410402 eV 
 
                                              current damping :  0.650
 ITERATION  ENERGY          1e-ENERGY        2e-ENERGY     RMS[dD(SAO)]   TOL
   2  -489.47719121401    -1649.3807750     664.57241115    0.126D-02 0.240D-13
          Norm of current diis error: 0.82164    
          max. resid. norm for Fia-block=  5.180D-02 for orbital      2a         
          max. resid. fock norm         =  9.874D-02 for orbital    655a         
          Delta Eig. =    12.9807014808 eV 
 
                                              current damping :  0.600
 ITERATION  ENERGY          1e-ENERGY        2e-ENERGY     RMS[dD(SAO)]   TOL
   3  -489.49556156179    -1649.5711295     664.74439526    0.555D-03 0.181D-13
          Norm of current diis error: 0.37180    
          max. resid. norm for Fia-block=  2.436D-02 for orbital      2a         
          max. resid. fock norm         =  3.770D-02 for orbital    727a         
          Delta Eig. =     5.7199615579 eV 
 
                                              current damping :  0.650
 ITERATION  ENERGY          1e-ENERGY        2e-ENERGY     RMS[dD(SAO)]   TOL
   4  -489.50008638156    -1649.4706756     664.63941648    0.301D-03 0.159D-13
          Norm of current diis error: 0.15962    
          max. resid. norm for Fia-block=  9.285D-03 for orbital     29a         
          max. resid. fock norm         =  1.542D-02 for orbital    657a         
          Delta Eig. =     2.0269710232 eV 
 
                                              current damping :  0.500
 ITERATION  ENERGY          1e-ENERGY        2e-ENERGY     RMS[dD(SAO)]   TOL
   5  -489.50098735890    -1649.4482594     664.61609938    0.103D-03 0.147D-13
          Norm of current diis error: 0.71953E-01
          max. resid. norm for Fia-block=  4.865D-03 for orbital     29a         
          max. resid. fock norm         =  5.515D-03 for orbital    727a         
 mo-orthogonalization: Cholesky decomposition
          Delta Eig. =     0.8177466870 eV 
 
                                              current damping :  0.350
 ITERATION  ENERGY          1e-ENERGY        2e-ENERGY     RMS[dD(SAO)]   TOL
   6  -489.50121743494    -1649.4383007     664.60591054    0.559D-04 0.137D-13
          Norm of current diis error: 0.31023E-01
          max. resid. norm for Fia-block=  2.271D-03 for orbital     29a         
          max. resid. fock norm         =  2.359D-03 for orbital     37a         
          Delta Eig. =     0.3029425506 eV 
 
                                              current damping :  0.200
 ITERATION  ENERGY          1e-ENERGY        2e-ENERGY     RMS[dD(SAO)]   TOL
   7  -489.50127222393    -1649.4356888     664.60324390    0.250D-04 0.127D-13
          Norm of current diis error: 0.12603E-01
          max. resid. norm for Fia-block=  9.980D-04 for orbital     29a         
          max. resid. fock norm         =  1.097D-03 for orbital     37a         
          Delta Eig. =     0.0884985883 eV 
 
                                              current damping :  0.050
 ITERATION  ENERGY          1e-ENERGY        2e-ENERGY     RMS[dD(SAO)]   TOL
   8  -489.50128381277    -1649.4345084     664.60205193    0.107D-04 0.118D-13
          Norm of current diis error: 0.46328E-02
          max. resid. norm for Fia-block=  3.986D-04 for orbital     36a         
          max. resid. fock norm         =  4.564D-04 for orbital     37a         
          Delta Eig. =     0.0196452895 eV 
 
                                              current damping :  0.100
 ITERATION  ENERGY          1e-ENERGY        2e-ENERGY     RMS[dD(SAO)]   TOL
   9  -489.50128570655    -1649.4349117     664.60245334    0.405D-05 0.111D-13
          Norm of current diis error: 0.14166E-02
          max. resid. norm for Fia-block=  1.131D-04 for orbital     36a         
          max. resid. fock norm         =  1.277D-04 for orbital     37a         
          Delta Eig. =     0.0061665508 eV 
 
                                              current damping :  0.150
 ITERATION  ENERGY          1e-ENERGY        2e-ENERGY     RMS[dD(SAO)]   TOL
  10  -489.50128585285    -1649.4345558     664.60209730    0.115D-05 0.107D-13
          Norm of current diis error: 0.56292E-03
          max. resid. norm for Fia-block=  4.788D-05 for orbital     33a         
          max. resid. fock norm         =  5.943D-05 for orbital     33a         
 mo-orthogonalization: Cholesky decomposition
          Delta Eig. =     0.0030622600 eV 
 
                                              current damping :  0.200
 ITERATION  ENERGY          1e-ENERGY        2e-ENERGY     RMS[dD(SAO)]   TOL
  11  -489.50128587023    -1649.4348449     664.60238630    0.307D-06 0.105D-13
          Norm of current diis error: 0.26598E-03
          max. resid. norm for Fia-block=  1.543D-05 for orbital     32a         
          max. resid. fock norm         =  1.986D-05 for orbital     32a         
          Delta Eig. =     0.0009230095 eV 
 
                                              current damping :  0.250
 ITERATION  ENERGY          1e-ENERGY        2e-ENERGY     RMS[dD(SAO)]   TOL
  12  -489.50128587386    -1649.4348014     664.60234280    0.163D-06 0.103D-13
          Norm of current diis error: 0.89304E-04
          max. resid. norm for Fia-block=  8.389D-06 for orbital     33a         
          max. resid. fock norm         =  8.452D-06 for orbital     33a         
          Delta Eig. =     0.0001281350 eV 

 DENSITY CONVERGED !

 
                                              current damping :  0.300
 ITERATION  ENERGY          1e-ENERGY        2e-ENERGY     RMS[dD(SAO)]   TOL
  13  -489.50128587456    -1649.4348049     664.60234635    0.712D-07 0.101D-13
          Norm of current diis error: 0.43922E-04
          max. resid. norm for Fia-block=  4.708D-06 for orbital     33a         
          max. resid. fock norm         =  4.746D-06 for orbital     33a         
          Delta Eig. =     0.0000647893 eV 

 DENSITY CONVERGED !

 
                                              current damping :  0.150
 ITERATION  ENERGY          1e-ENERGY        2e-ENERGY     RMS[dD(SAO)]   TOL
  14  -489.50128587475    -1649.4348091     664.60235053    0.416D-07 0.104D-13
          Norm of current diis error: 0.20751E-04
          max. resid. norm for Fia-block=  2.376D-06 for orbital     33a         
          max. resid. fock norm         =  2.396D-06 for orbital     33a         
          Delta Eig. =     0.0000430373 eV 

 ENERGY & DENSITY CONVERGED !

 
                                              current damping :  0.050
 ITERATION  ENERGY          1e-ENERGY        2e-ENERGY     RMS[dD(SAO)]   TOL
  15  -489.50128587480    -1649.4348107     664.60235215    0.271D-07 0.104D-13
          max. resid. norm for Fia-block=  4.690D-07 for orbital     34a         
          max. resid. fock norm         =  4.698D-07 for orbital     34a         

 convergence criteria satisfied after    15 iterations


                  ------------------------------------------ 
                 |  total energy      =   -489.50128587480  |
                  ------------------------------------------ 
                 :  kinetic energy    =    488.77286252972  :
                 :  potential energy  =   -978.27414840452  :
                 :  virial theorem    =      1.99851190719  :
                 :  wavefunction norm =      1.00000000000  :
                  .......................................... 


 orbitals $scfmo  will be written to file mos

    irrep                 32a         33a         34a         35a         36a   
 eigenvalues H         -0.44680    -0.43554    -0.41395    -0.41283    -0.36579
            eV         -12.1582    -11.8518    -11.2643    -11.2339     -9.9538
 occupation              2.0000      2.0000      2.0000      2.0000      2.0000 

    irrep                 37a         38a         39a         40a         41a   
 eigenvalues H          0.08864     0.09093     0.11830     0.13495     0.13919
            eV           2.4121      2.4744      3.2192      3.6722      3.7875
 
 
 
 
 ==============================================================================
                           electrostatic moments
 ==============================================================================

 reference point for electrostatic moments:    0.00000   0.00000   0.00000

 
              nuc           elec       ->  total
 ------------------------------------------------------------------------------
                          charge      
 ------------------------------------------------------------------------------
          72.000000     -72.000000       0.000000
 
 ------------------------------------------------------------------------------
                       dipole moment  
 ------------------------------------------------------------------------------
   x      -0.792530       1.295964       0.503434
   y       3.784112      -1.919171       1.864941
   z      94.485949     -94.423004       0.062945
 
   | dipole moment | =     1.9327 a.u. =     4.9125 debye 
 
 ------------------------------------------------------------------------------
                     quadrupole moment
 ------------------------------------------------------------------------------
  xx     489.909218    -540.244505     -50.335287
  yy     264.078453    -301.978473     -37.900020
  zz     559.494922    -604.462705     -44.967783
  xy      -7.408745       7.333024      -0.075721
  xz      63.491565     -64.938579      -1.447014
  yz       1.135116      -0.714016       0.421100
 
     1/3  trace=     -44.401030
     anisotropy=      11.114420
 
 ==============================================================================
 


    ------------------------------------------------------------------------
         total  cpu-time :  1 hours 58 minutes and 22 seconds
         total wall-time :  7 minutes and 31 seconds
    ------------------------------------------------------------------------

   ****  dscf : all done  ****


    2019-04-02 17:30:18.586 

