 operating system is UNIX !

 ridft (c-18-412.gp.local) : TURBOMOLE V7.2 ( 21454 ) 4 Oct 2017 at 12:48:15
 Copyright (C) 2017 TURBOMOLE GmbH, Karlsruhe


    2018-05-19 18:05:24.283 



                                  r i d f t

                        DFT program with RI approximation 
                                for coulomb part 




                                                 
                                 References:     
                                                 
          TURBOMOLE:                             
              R. Ahlrichs, M. Baer, M. Haeser, H. Horn, and
              C. Koelmel
              Electronic structure calculations on workstation
              computers: the program system TURBOMOLE
              Chem. Phys. Lett. 162: 165 (1989)
          Density Functional:                              
              O. Treutler and R. Ahlrichs                      
              Efficient Molecular Numerical Integration Schemes
              J. Chem. Phys. 102: 346 (1995)                   
          Parallel Version:                                
              Performance of parallel TURBOMOLE for Density    
              Functional Calculations                          
              M. v. Arnim and R. Ahlrichs                      
              J. Comp. Chem. 19: 1746 (1998)                   
          RI-J Method:                                     
              Auxiliary Basis Sets to approximate Coulomb      
              Potentials                                       
              Chem. Phys. Lett. 240: 283 (1995)                
              K. Eichkorn, O. Treutler, H. Oehm, M. Haeser     
              and R. Ahlrichs                                  
              Chem. Phys. Lett. 242: 652 (1995)                
                                                           
              Auxiliary Basis Sets for Main Row Atoms and their
              Use to approximate Coulomb Potentials            
              K. Eichkorn, F. Weigend, O. Treutler and         
              R. Ahlrichs                                      
              Theo. Chem. Acc. 97: 119 (1997)                   
                                                           
              Accurate Coulomb-fitting basis sets for H to Rn 
              F. Weigend                                        
              Phys. Chem. Chem. Phys. 8: 1057 (2006)            
                                                           
          Multipole accelerated RI-J (MARI-J):             
              Fast evaluation of the Coulomb potential for     
              electron densities using multipole accelerated   
              resolution of identity approximation             
              M. Sierka, A. Hogekamp and R. Ahlrichs           
              J. Chem. Phys. 118: 9136 (2003)                  
          RI-JK Method:                                     
              A fully direct RI-HF algorithm: Implementation,
              optimised auxiliary basis sets, demonstration of
              accuracy and efficiency                         
              F. Weigend                                      
              Phys. Chem. Chem. Phys. 4: 4285 (2002)           
          Two-component HF and DFT with spin-orbit coupling:  
              Self-consistent treatment of spin-orbit         
              interactions with efficient Hartree-Fock and    
              density functional methods                      
              M. K. Armbruster, F. Weigend, C. van Wüllen and 
              W. Klopper                                      
              Phys. Chem. Chem. Phys. 10: 1748 (2008)         
          Relativistic all-electron 2c calculations           
              An efficient implementation of two-component    
              relativistic exact-decoupling methods for large 
              molecules                                       
              D. Peng, N. Middendorf, F. Weigend, M. Reiher   
              J. Chem. Phys. 138, 184105 (2013)               
                                         




              +--------------------------------------------------+
              |      general information about current run       |
              +--------------------------------------------------+

 
 A HF calculation using the RI-JK approximation will be carried out.
 Allocatable memory for RI due to $ricore (MB):                   500


              +--------------------------------------------------+
              | Atomic coordinate, charge and isotop information |
              +--------------------------------------------------+

                    atomic coordinates            atom    charge  isotop
          1.57889864    2.10736010    0.04044262    c      6.000     0
          2.80496581    3.74280779    0.03691447    h      1.000     0
          2.61401085   -0.31397273    0.04490992    c      6.000     0
          4.64333871   -0.55785600    0.04303110    h      1.000     0
          1.03472834   -2.42133693    0.04097989    c      6.000     0
          1.83858278   -4.30064730    0.03737600    h      1.000     0
         -1.57890989   -2.10735000    0.04043839    c      6.000     0
         -2.80498510   -3.74280366    0.03690653    h      1.000     0
         -2.61402714    0.31398581    0.04489563    c      6.000     0
         -4.64335224    0.55786427    0.04300462    h      1.000     0
         -1.03474934    2.42135045    0.04096973    c      6.000     0
         -1.83859551    4.30064909    0.03735748    h      1.000     0
 
       center of nuclear mass  :   -0.00000805    0.00000582    0.04187317
       center of nuclear charge:   -0.00000802    0.00000558    0.04167636

              +--------------------------------------------------+
              |               basis set information              |
              +--------------------------------------------------+

              we will work with the 1s 3p 5d 7f 9g ... basis set
              ...i.e. with spherical basis functions...

   type   atoms  prim   cont   basis
   ---------------------------------------------------------------------------
    c        6     77     57   def2-QZVP   [7s4p3d2f1g|15s8p3d2f1g]
    h        6     33     30   def2-QZVP   [4s3p2d1f|7s3p2d1f]
   ---------------------------------------------------------------------------
   total:   12    660    522
   ---------------------------------------------------------------------------

   total number of primitive shells          :   42
   total number of contracted shells         :  162
   total number of cartesian basis functions :  642
   total number of SCF-basis functions       :  522


 integral neglect threshold       :  0.52E-13
 integral storage threshold THIZE :  0.10E-04
 integral storage threshold THIME :         5

 RI-JK AUXILIARY BASIS SET information:

              we will work with the 1s 3p 5d 7f 9g ... basis set
              ...i.e. with spherical basis functions...

   type   atoms  prim   cont   basis
   ---------------------------------------------------------------------------
    c        6     97     75   def2-QZVP   [10s8p5d1f1g|14s10p6d2f1g]
    h        6     20     18   def2-QZVP   [2s2p2d|4s2p2d]
   ---------------------------------------------------------------------------
   total:   12    702    558
   ---------------------------------------------------------------------------

   total number of primitive shells          :   41
   total number of contracted shells         :  186
   total number of cartesian basis functions :  654
   total number of SCF-basis functions       :  558


 symmetry group of the molecule :   c1 

 the group has the following generators :
   c1(z)

    1 symmetry operations found

 there are 1 real representations :   a   

 maximum number of shells which are related by symmetry :  1


    mo occupation :
   irrep   mo's   occupied
    a      522       21
 
 number of basis functions   :                    522
 number of occupied orbitals :                     21
 

 biggest AO integral is expected to be     5.262544080
  
           ------------------------
               RI-JK - INFORMATION
           ------------------------
 Contributions to RI integral batches: 
  neglected integral batches:                  1436
  direct contribution:                        10026
  memory contribution:                  1741
 Memory core needed for (P|Q) and Cholesky      3 MByte
 Memory core minimum needed except of (P|Q)     1 MByte
 Total minimum memory core needed (sum)         3 MByte
  
 ****************************************
 Memory allocated for RI-J    37 MByte
 ****************************************
                                            
 total memory allocated for calculation of  (Q|P)**(-1/2) :    4 MiB

  forming (P|Q)**(-1/2) 
 eigenvalues of original matrix 
 smallest =0.2606716404716E-07  largest = 31.57158591531    
  The symmetry information takes                      1  MB

          ------------------------
          nuclear repulsion energy  :   203.742280555    
          ------------------------


         -----------------
         -S,T+V- integrals
         -----------------

 1e-integrals will be neglected if expon. factor < 0.520555E-14
 
   Difference densities algorithm switched on.
   The maximal number of linear combinations of
   difference densities is                    20 .

 DIIS switched on: error vector is FDS-SDF
 Max. Iterations for DIIS is     :   5
 DIIS matrix (see manual) 
    Scaling factor of diagonals  :  1.200
    threshold for scaling factor :  0.000

 scf convergence criterion : increment of total energy < .1000000D-08
                  and increment of one-electron energy < .1000000D-05

  MOs are in ASCII format !


 automatic virtual orbital shift switched on 
      shift if e(lumo)-e(homo) < 0.10000000    


 reading orbital data $scfmo  from file mos
 orbital characterization : scfconv=9

 DSCF restart information will be dumped onto file mos


 Starting SCF iterations

 
 BLOCKING OF MOS FOR RI-K
 
 
 occupied MOs partitioned into blocks of maximum length 21
 this requires 58 MiB core memory.
 
            MULTIPLE PASS Statistics 
 ----------------------------------------------------
  pass       irrep     lambda      batch : MO  to  MO
 ----------------------------------------------------
   1       1  ->  1    1  -> 21             1  ->  21



 ITERATION  ENERGY          1e-ENERGY        2e-ENERGY     NORM[dD(SAO)]  TOL
   1  -230.74250947795    -714.86763461     280.38284457    0.000D+00 0.519D-13
                           RI-K = -33.1968400355     Coul =  313.579684609    
                            current damping = 0.700
 
          max. resid. norm for Fia-block=  2.004D-01 for orbital      6a         
          max. resid. fock norm         =  6.173D-01 for orbital    516a         

 End of SCF iterations

   convergence criteria cannot be satisfied within     1 iterations !


                  ------------------------------------------ 
                 |  total energy      =   -230.74250947795  |
                  ------------------------------------------ 
                 :  kinetic energy    =    231.03529562763  :
                 :  potential energy  =   -461.77780510559  :
                 :  virial theorem    =      2.00126888691  :
                 :  wavefunction norm =      1.00000000000  :
                  .......................................... 


 ATTENTION : $energy will not be updated since 
 this calculation did not converge (sob) 

 A POSSIBLE REASON MAY BE THAT ...
 - THE GEOMETRY IS FAR FROM BEING REASONABLE

    irrep                 17a         18a         19a         20a         21a   
 eigenvalues H         -0.42818    -0.40372    -0.40361    -0.28917    -0.28901
            eV         -11.6516    -10.9858    -10.9829     -7.8687     -7.8645
 occupation              2.0000      2.0000      2.0000      2.0000      2.0000 

    irrep                 22a         23a         24a         25a         26a   
 eigenvalues H          0.05807     0.05819     0.07213     0.09066     0.09067
            eV           1.5803      1.5834      1.9627      2.4671      2.4674
 
 
 
 
 ==============================================================================
                           electrostatic moments
 ==============================================================================

 reference point for electrostatic moments:    0.00000   0.00000   0.00000

 
              nuc           elec       ->  total
 ------------------------------------------------------------------------------
                          charge      
 ------------------------------------------------------------------------------
          42.000000     -42.000000       0.000000
 
 ------------------------------------------------------------------------------
                       dipole moment  
 ------------------------------------------------------------------------------
   x      -0.000337       0.000336      -0.000000
   y       0.000234      -0.000232       0.000002
   z       1.750407      -1.752710      -0.002303
 
   | dipole moment | =     0.0023 a.u. =     0.0059 debye 
 
 ------------------------------------------------------------------------------
                     quadrupole moment
 ------------------------------------------------------------------------------
  xx     190.378530    -214.788383     -24.409852
  yy     190.459958    -214.867407     -24.407450
  zz       0.073186     -30.205138     -30.131952
  xy       0.015300      -0.014921       0.000380
  xz       0.000492      -0.000476       0.000016
  yz      -0.000176       0.000170      -0.000006
 
     1/3  trace=     -26.316418
     anisotropy=       5.723301
 
 ==============================================================================
 

 ATTENTION: ridft did not converge! 



    ------------------------------------------------------------------------
         total  cpu-time :   8.87 seconds
         total wall-time :  10.11 seconds
    ------------------------------------------------------------------------

   ****  ridft : all done  ****


    2018-05-19 18:05:34.378 

