           Doing BLAS/Lapack in the master proc. with  8 CPUs.
           SMPCPUS    set: Shared-memory Parallelization with   8 CPUs.

           SMP Parallelization Reference:
           C. van Wullen, J. Comput. Chem. 32 (2011) 1195--1201
 operating system is UNIX !

 ridft (c-18-212.gp.local) : TURBOMOLE V7.2 ( 21454 ) 4 Oct 2017 at 12:48:15
 Copyright (C) 2017 TURBOMOLE GmbH, Karlsruhe


    2018-04-28 20:57:26.137 



                                  r i d f t

                        DFT program with RI approximation 
                                for coulomb part 




                                                 
                                 References:     
                                                 
          TURBOMOLE:                             
              R. Ahlrichs, M. Baer, M. Haeser, H. Horn, and
              C. Koelmel
              Electronic structure calculations on workstation
              computers: the program system TURBOMOLE
              Chem. Phys. Lett. 162: 165 (1989)
          Density Functional:                              
              O. Treutler and R. Ahlrichs                      
              Efficient Molecular Numerical Integration Schemes
              J. Chem. Phys. 102: 346 (1995)                   
          Parallel Version:                                
              Performance of parallel TURBOMOLE for Density    
              Functional Calculations                          
              M. v. Arnim and R. Ahlrichs                      
              J. Comp. Chem. 19: 1746 (1998)                   
          RI-J Method:                                     
              Auxiliary Basis Sets to approximate Coulomb      
              Potentials                                       
              Chem. Phys. Lett. 240: 283 (1995)                
              K. Eichkorn, O. Treutler, H. Oehm, M. Haeser     
              and R. Ahlrichs                                  
              Chem. Phys. Lett. 242: 652 (1995)                
                                                           
              Auxiliary Basis Sets for Main Row Atoms and their
              Use to approximate Coulomb Potentials            
              K. Eichkorn, F. Weigend, O. Treutler and         
              R. Ahlrichs                                      
              Theo. Chem. Acc. 97: 119 (1997)                   
                                                           
              Accurate Coulomb-fitting basis sets for H to Rn 
              F. Weigend                                        
              Phys. Chem. Chem. Phys. 8: 1057 (2006)            
                                                           
          Multipole accelerated RI-J (MARI-J):             
              Fast evaluation of the Coulomb potential for     
              electron densities using multipole accelerated   
              resolution of identity approximation             
              M. Sierka, A. Hogekamp and R. Ahlrichs           
              J. Chem. Phys. 118: 9136 (2003)                  
          RI-JK Method:                                     
              A fully direct RI-HF algorithm: Implementation,
              optimised auxiliary basis sets, demonstration of
              accuracy and efficiency                         
              F. Weigend                                      
              Phys. Chem. Chem. Phys. 4: 4285 (2002)           
          Two-component HF and DFT with spin-orbit coupling:  
              Self-consistent treatment of spin-orbit         
              interactions with efficient Hartree-Fock and    
              density functional methods                      
              M. K. Armbruster, F. Weigend, C. van Wüllen and 
              W. Klopper                                      
              Phys. Chem. Chem. Phys. 10: 1748 (2008)         
          Relativistic all-electron 2c calculations           
              An efficient implementation of two-component    
              relativistic exact-decoupling methods for large 
              molecules                                       
              D. Peng, N. Middendorf, F. Weigend, M. Reiher   
              J. Chem. Phys. 138, 184105 (2013)               
                                         




              +--------------------------------------------------+
              |      general information about current run       |
              +--------------------------------------------------+

 

 DENSITY CONVERGENCE CHECK SWITCHED ON !
 SCF CONVERGENCE IF RMS(delta[D]) <     0.1000000000E-06

 PBE functional
 exchange:    LDA + PBE
 correlation: LDA (PW) + PBE
 A DFT calculation using the RI-J approximation will be carried out.
 Allocatable memory for RI due to $ricore (MB):                  5000


              +--------------------------------------------------+
              | Atomic coordinate, charge and isotop information |
              +--------------------------------------------------+

                    atomic coordinates            atom    charge  isotop
          0.85059422    0.00245861   12.81415679    n      7.000     0
          2.49591832   -0.00814803   10.88774535    c      6.000     0
          4.47608027   -0.00578866   11.40610250    h      1.000     0
          1.79032154   -0.02150416    8.35205777    c      6.000     0
          3.20281749   -0.02937302    6.87599336    h      1.000     0
         -0.77223886   -0.02417636    7.76167810    c      6.000     0
         -1.39533576   -0.03448571    5.81472833    h      1.000     0
         -2.50720259   -0.01337641    9.73676243    c      6.000     0
         -4.51872164   -0.01498152    9.38010349    h      1.000     0
         -1.60844165   -0.00030394   12.21033618    c      6.000     0
         -2.91647921    0.00835692   13.78483937    h      1.000     0
 
       center of nuclear mass  :    0.04458497   -0.01078733   10.30376143
       center of nuclear charge:    0.02839670   -0.01105036   10.25362723

              +--------------------------------------------------+
              |               basis set information              |
              +--------------------------------------------------+

              we will work with the 1s 3p 5d 7f 9g ... basis set
              ...i.e. with spherical basis functions...

   type   atoms  prim   cont   basis
   ---------------------------------------------------------------------------
    n        1     77     55   cc-pVQZ   [5s4p3d2f1g|21s6p3d2f1g]
    c        5     77     55   cc-pVQZ   [5s4p3d2f1g|21s6p3d2f1g]
    h        5     32     30   cc-pVQZ   [4s3p2d1f|6s3p2d1f]
   ---------------------------------------------------------------------------
   total:   11    622    480
   ---------------------------------------------------------------------------

   total number of primitive shells          :   78
   total number of contracted shells         :  140
   total number of cartesian basis functions :  595
   total number of SCF-basis functions       :  480


 integral neglect threshold       :  0.56E-13
 integral storage threshold THIZE :  0.10E-04
 integral storage threshold THIME :         5

 RI-J AUXILIARY BASIS SET information:

              we will work with the 1s 3p 5d 7f 9g ... basis set
              ...i.e. with spherical basis functions...

   type   atoms  prim   cont   basis
   ---------------------------------------------------------------------------
    n        1     70     49   cc-pVQZ   [6s4p3d1f1g|12s5p4d2f1g]
    c        5     70     49   cc-pVQZ   [6s4p3d1f1g|12s5p4d2f1g]
    h        5     16     11   cc-pVQZ   [3s1p1d|5s2p1d]
   ---------------------------------------------------------------------------
   total:   11    500    349
   ---------------------------------------------------------------------------

   total number of primitive shells          :   56
   total number of contracted shells         :  115
   total number of cartesian basis functions :  426
   total number of SCF-basis functions       :  349


 symmetry group of the molecule :   c1 

 the group has the following generators :
   c1(z)

    1 symmetry operations found

 there are 1 real representations :   a   

 maximum number of shells which are related by symmetry :  1


    mo occupation :
   irrep   mo's   occupied
    a      480       21
 
 number of basis functions   :                    480
 number of occupied orbitals :                     21
 
  
           ------------------
           density functional
           ------------------
 PBE functional
 exchange:    LDA + PBE
 correlation: LDA (PW) + PBE

 iterations will be done with small grid
  
 spherical integration : Lebedev's spherical grid
 spherical gridsize    :                     5
    i.e. gridpoints    :                   590
 value for diffuse not defined
 radial integration    : Chebyshev 2nd kind (scaling 3)
 radial gridsize       :                     8
 integration cells     :                    11
 partition function    : becke
 partition sharpness   :                     3
  

 biggest AO integral is expected to be     4.161848376
  
           ------------------------
               RI-J - INFORMATION
           ------------------------
 Contributions to RI integral batches: 
  neglected integral batches:                   881
  direct contribution:                            0
  memory contribution:                  8989
 Memory core needed for (P|Q) and Cholesky      1 MByte
 Memory core minimum needed except of (P|Q)     2 MByte
 Total minimum memory core needed (sum)         3 MByte
  
 ****************************************
 Memory allocated for RI-J   538 MByte
 ****************************************
                                            

          ------------------------
          nuclear repulsion energy  :   206.198696868    
          ------------------------


         -----------------
         -S,T+V- integrals
         -----------------

 1e-integrals will be neglected if expon. factor < 0.561674E-14
 Difference densities >>NOT<< switched on in parallel ridft!

 DIIS switched on: error vector is FDS-SDF
 Max. Iterations for DIIS is     :   4
 DIIS matrix (see manual) 
    Scaling factor of diagonals  :  1.200
    threshold for scaling factor :  0.000

 scf convergence criterion : increment of total energy < .1000000D-08
                  and increment of one-electron energy < .1000000D-05

  MOs are in ASCII format !


 automatic virtual orbital shift switched on 
      shift if e(lumo)-e(homo) < 0.10000000    


 reading orbital data $scfmo  from file mos
 orbital characterization : expanded
 mo provided and orthogonalized by Cholesky decomposition

 DSCF restart information will be dumped onto file mos


 Starting SCF iterations

          Overall gridpoints after grid construction =         54808

 ITERATION  ENERGY          1e-ENERGY        2e-ENERGY     RMS[dD(SAO)]   TOL
   1  -247.09627221234    -732.86562411     279.57065503    0.000D+00 0.560D-13
                            Exc = -34.7562017428     Coul =  314.326856769    
                              N = 41.999992573    
                            current damping = 0.700
 
          max. resid. norm for Fia-block=  2.959D-01 for orbital     15a         
          max. resid. fock norm         =  9.323D+00 for orbital    452a         

 ITERATION  ENERGY          1e-ENERGY        2e-ENERGY     RMS[dD(SAO)]   TOL
   2  -247.88712417745    -739.28405602     285.19823497    0.582D-02 0.560D-13
                            Exc = -35.2797653654     Coul =  320.478000340    
                              N = 41.999990709    
                            current damping = 0.650
 
          Norm of current diis error:  2.7292    
          max. resid. norm for Fia-block=  1.372D-01 for orbital      1a         
          max. resid. fock norm         =  1.986D-01 for orbital    465a         

 ITERATION  ENERGY          1e-ENERGY        2e-ENERGY     RMS[dD(SAO)]   TOL
   3  -248.01880983362    -740.86044510     286.64293839    0.255D-02 0.560D-13
                            Exc = -35.4688507201     Coul =  322.111789115    
                              N = 41.999990509    
                            current damping = 0.550
 
          Norm of current diis error:  1.3407    
          max. resid. norm for Fia-block=  5.557D-02 for orbital     21a         
          max. resid. fock norm         =  6.075D-02 for orbital      7a         

 ITERATION  ENERGY          1e-ENERGY        2e-ENERGY     RMS[dD(SAO)]   TOL
   4  -248.06192660022    -741.52282249     287.26219902    0.152D-02 0.560D-13
                            Exc = -35.5261805831     Coul =  322.788379605    
                              N = 41.999989744    
                            current damping = 0.450
 
          Norm of current diis error: 0.53057    
          max. resid. norm for Fia-block=  2.781D-02 for orbital      7a         
          max. resid. fock norm         =  4.902D-02 for orbital    454a         

 ITERATION  ENERGY          1e-ENERGY        2e-ENERGY     RMS[dD(SAO)]   TOL
   5  -248.06734108281    -742.22195637     287.95591842    0.632D-03 0.560D-13
                            Exc = -35.6004781526     Coul =  323.556396574    
                              N = 41.999990110    
                            current damping = 0.350
 
          Norm of current diis error: 0.32590    
          max. resid. norm for Fia-block=  1.354D-02 for orbital     21a         
          max. resid. fock norm         =  1.437D-02 for orbital     21a         
          mo-orthogonalization: Cholesky decomposition

 ITERATION  ENERGY          1e-ENERGY        2e-ENERGY     RMS[dD(SAO)]   TOL
   6  -248.07003800519    -742.04484550     287.77611063    0.587D-03 0.560D-13
                            Exc = -35.5865953468     Coul =  323.362705973    
                              N = 41.999989715    
                            current damping = 0.400
 
          Norm of current diis error: 0.12642    
          max. resid. norm for Fia-block=  3.345D-03 for orbital     20a         
          max. resid. fock norm         =  6.731D-03 for orbital    431a         

 ITERATION  ENERGY          1e-ENERGY        2e-ENERGY     RMS[dD(SAO)]   TOL
   7  -248.07037378737    -742.11211771     287.84304706    0.809D-04 0.560D-13
                            Exc = -35.5924158287     Coul =  323.435462885    
                              N = 41.999989858    
                            current damping = 0.450
 
          Norm of current diis error: 0.53748E-01
          max. resid. norm for Fia-block=  1.505D-03 for orbital     13a         
          max. resid. fock norm         =  2.595D-03 for orbital    475a         

 ITERATION  ENERGY          1e-ENERGY        2e-ENERGY     RMS[dD(SAO)]   TOL
   8  -248.07043704469    -742.14800432     287.87887041    0.263D-04 0.560D-13
                            Exc = -35.5960356446     Coul =  323.474906054    
                              N = 41.999989831    
                            current damping = 0.300
 
          Norm of current diis error: 0.10711E-01
          max. resid. norm for Fia-block=  3.096D-04 for orbital     21a         
          max. resid. fock norm         =  3.347D-04 for orbital    475a         

 ITERATION  ENERGY          1e-ENERGY        2e-ENERGY     RMS[dD(SAO)]   TOL
   9  -248.07043995321    -742.14144538     287.87230856    0.156D-04 0.560D-13
                            Exc = -35.5956311577     Coul =  323.467939717    
                              N = 41.999989828    
                            current damping = 0.350
 
          Norm of current diis error: 0.15568E-02
          max. resid. norm for Fia-block=  6.516D-05 for orbital     13a         
          max. resid. fock norm         =  1.382D-04 for orbital    478a         

 ITERATION  ENERGY          1e-ENERGY        2e-ENERGY     RMS[dD(SAO)]   TOL
  10  -248.07043996896    -742.14312766     287.87399082    0.249D-05 0.560D-13
                            Exc = -35.5957236293     Coul =  323.469714451    
                              N = 41.999989831    
                            current damping = 0.400
 
          Norm of current diis error: 0.13698E-02
          max. resid. norm for Fia-block=  4.477D-05 for orbital     20a         
          max. resid. fock norm         =  7.621D-05 for orbital    476a         
          mo-orthogonalization: Cholesky decomposition

 ITERATION  ENERGY          1e-ENERGY        2e-ENERGY     RMS[dD(SAO)]   TOL
  11  -248.07043999950    -742.14306816     287.87393129    0.733D-06 0.560D-13
                            Exc = -35.5957358988     Coul =  323.469667189    
                              N = 41.999989831    
                            current damping = 0.450
 
          Norm of current diis error: 0.71674E-03
          max. resid. norm for Fia-block=  2.443D-05 for orbital     19a         
          max. resid. fock norm         =  3.397D-05 for orbital     19a         

 ITERATION  ENERGY          1e-ENERGY        2e-ENERGY     RMS[dD(SAO)]   TOL
  12  -248.07044001116    -742.14255515     287.87341827    0.770D-06 0.560D-13
                            Exc = -35.5956964913     Coul =  323.469114765    
                              N = 41.999989829    
                            current damping = 0.300
 
          Norm of current diis error: 0.26145E-03
          max. resid. norm for Fia-block=  7.824D-06 for orbital     19a         
          max. resid. fock norm         =  1.264D-05 for orbital    478a         

 ITERATION  ENERGY          1e-ENERGY        2e-ENERGY     RMS[dD(SAO)]   TOL
  13  -248.07044001267    -742.14254501     287.87340813    0.113D-06 0.560D-13
                            Exc = -35.5957010273     Coul =  323.469109156    
                              N = 41.999989830    
                            current damping = 0.150
 
          Norm of current diis error: 0.66574E-04
          max. resid. norm for Fia-block=  2.236D-06 for orbital     17a         
          max. resid. fock norm         =  2.863D-06 for orbital     15a         

 DENSITY CONVERGED !


 ITERATION  ENERGY          1e-ENERGY        2e-ENERGY     RMS[dD(SAO)]   TOL
  14  -248.07044001273    -742.14270137     287.87356448    0.483D-07 0.560D-13
                            Exc = -35.5957092695     Coul =  323.469273754    
                              N = 41.999989830    
                            current damping = 0.200
 
          Norm of current diis error: 0.38170E-04
          max. resid. norm for Fia-block=  8.856D-07 for orbital     20a         
          max. resid. fock norm         =  1.450D-06 for orbital    476a         

 DENSITY CONVERGED !


 ITERATION  ENERGY          1e-ENERGY        2e-ENERGY     RMS[dD(SAO)]   TOL
  15  -248.07044001276    -742.14264765     287.87351077    0.177D-07 0.560D-13
                            Exc = -35.5957062051     Coul =  323.469216977    
                              N = 41.999989830    
                            current damping = 0.250
 
          Norm of current diis error: 0.13982E-04
          max. resid. norm for Fia-block=  4.034D-07 for orbital     19a         
          max. resid. fock norm         =  7.444D-07 for orbital    476a         
          mo-orthogonalization: Cholesky decomposition

 ENERGY & DENSITY CONVERGED !

          Overall gridpoints after grid construction =        176049

 ITERATION  ENERGY          1e-ENERGY        2e-ENERGY     RMS[dD(SAO)]   TOL
  16  -248.07043620182    -742.14263290     287.87349983    0.122D-07 0.560D-13
                            Exc = -35.5957012837     Coul =  323.469201117    
                              N = 41.999998645    
                            current damping = 0.100
 
          Norm of current diis error: 0.71868E-05
          max. resid. norm for Fia-block=  1.333D-07 for orbital     20a         
          max. resid. fock norm         =  2.727D-07 for orbital    476a         

 End of SCF iterations

   convergence criteria satisfied after    16 iterations


                  ------------------------------------------ 
                 |  total energy      =   -248.07043620182  |
                  ------------------------------------------ 
                 :  kinetic energy    =    246.97932963734  :
                 :  potential energy  =   -495.04976583916  :
                 :  virial theorem    =      1.99560162597  :
                 :  wavefunction norm =      1.00000000000  :
                  .......................................... 


 <geterg> : there is no data group $energy 


 <skperg> : $end is missing 


 orbitals $scfmo  will be written to file mos

    irrep                 17a         18a         19a         20a         21a   
 eigenvalues H         -0.36095    -0.32278    -0.26785    -0.24560    -0.21734
            eV          -9.8221     -8.7834     -7.2886     -6.6833     -5.9142
 occupation              2.0000      2.0000      2.0000      2.0000      2.0000 

    irrep                 22a         23a         24a         25a         26a   
 eigenvalues H         -0.06742    -0.05401     0.01054     0.03619     0.04743
            eV          -1.8347     -1.4696      0.2868      0.9848      1.2907
 
 
 
 
 ==============================================================================
                           electrostatic moments
 ==============================================================================

 reference point for electrostatic moments:    0.00000   0.00000   0.00000

 
              nuc           elec       ->  total
 ------------------------------------------------------------------------------
                          charge      
 ------------------------------------------------------------------------------
          42.000000     -42.000000       0.000000
 
 ------------------------------------------------------------------------------
                       dipole moment  
 ------------------------------------------------------------------------------
   x       1.192661      -1.457446      -0.264784
   y      -0.464115       0.459795      -0.004320
   z     430.652344    -431.474268      -0.821925
 
   | dipole moment | =     0.8635 a.u. =     2.1949 debye 
 
 ------------------------------------------------------------------------------
                     quadrupole moment
 ------------------------------------------------------------------------------
  xx     179.655736    -202.278401     -22.622664
  yy       0.010176     -27.988443     -27.978267
  zz    4593.258165   -4636.728878     -43.470712
  xy      -0.050744       0.044882      -0.005863
  xz      11.165583     -15.372588      -4.207004
  yz      -3.812840       3.785041      -0.027799
 
     1/3  trace=     -31.357215
     anisotropy=      20.118867
 
 ==============================================================================
 


    ------------------------------------------------------------------------
         total  cpu-time :  3 minutes and 42 seconds
         total wall-time :  29.23 seconds
    ------------------------------------------------------------------------

   ****  ridft : all done  ****


    2018-04-28 20:57:55.354 

