Using Slurm to start processes with PMI2
STARTING ridft ON 8 PROCESSORS!
RUNNING PROGRAM /beegfs/modfac/apps/TURBOMOLE/7.0_intel_GA/bin/em64t-unknown-linux-gnu_mpi/ridft_mpi.
PLEASE WAIT UNTIL ridft HAS FINISHED.
Look for the output in slave1.output.
  this is node-proc. number 1 running on node c-9-334.local
  the total number of node-proc. spawned is            8
  parallel platform: MPP, or cluster with fast interconnect

 ridft (c-9-334.local) : TURBOMOLE V7.0.2( ) 15 Jan 2016 at 17:47:42
 Copyright (C) 2016 TURBOMOLE GmbH, Karlsruhe


    2017-11-01 20:15:53.791 



                                  r i d f t

                        DFT program with RI approximation 
                                for coulomb part 




                                                 
                                 References:     
                                                 
          TURBOMOLE:                             
              R. Ahlrichs, M. Baer, M. Haeser, H. Horn, and
              C. Koelmel
              Electronic structure calculations on workstation
              computers: the program system TURBOMOLE
              Chem. Phys. Lett. 162: 165 (1989)
          Density Functional:                              
              O. Treutler and R. Ahlrichs                      
              Efficient Molecular Numerical Integration Schemes
              J. Chem. Phys. 102: 346 (1995)                   
          Parallel Version:                                
              Performance of parallel TURBOMOLE for Density    
              Functional Calculations                          
              M. v. Arnim and R. Ahlrichs                      
              J. Comp. Chem. 19: 1746 (1998)                   
          RI-J Method:                                     
              Auxiliary Basis Sets to approximate Coulomb      
              Potentials                                       
              Chem. Phys. Lett. 240: 283 (1995)                
              K. Eichkorn, O. Treutler, H. Oehm, M. Haeser     
              and R. Ahlrichs                                  
              Chem. Phys. Lett. 242: 652 (1995)                
                                                           
              Auxiliary Basis Sets for Main Row Atoms and their
              Use to approximate Coulomb Potentials            
              K. Eichkorn, F. Weigend, O. Treutler and         
              R. Ahlrichs                                      
              Theo. Chem. Acc. 97: 119 (1997)                   
                                                           
              Accurate Coulomb-fitting basis sets for H to Rn 
              F. Weigend                                        
              Phys. Chem. Chem. Phys. 8: 1057 (2006)            
                                                           
          Multipole accelerated RI-J (MARI-J):             
              Fast evaluation of the Coulomb potential for     
              electron densities using multipole accelerated   
              resolution of identity approximation             
              M. Sierka, A. Hogekamp and R. Ahlrichs           
              J. Chem. Phys. 118: 9136 (2003)                  
          RI-JK Method:                                     
              A fully direct RI-HF algorithm: Implementation,
              optimised auxiliary basis sets, demonstration of
              accuracy and efficiency                         
              F. Weigend                                      
              Phys. Chem. Chem. Phys. 4: 4285 (2002)           
          Two-component HF and DFT with spin-orbit coupling:  
              Self-consistent treatment of spin-orbit         
              interactions with efficient Hartree-Fock and    
              density functional methods                      
              M. K. Armbruster, F. Weigend, C. van Wüllen and 
              W. Klopper                                      
              Phys. Chem. Chem. Phys. 10: 1748 (2008)         
          Relativistic all-electron 2c calculations           
              An efficient implementation of two-component    
              relativistic exact-decoupling methods for large 
              molecules                                       
              D. Peng, N. Middendorf, F. Weigend, M. Reiher   
              J. Chem. Phys. 138, 184105 (2013)               
                                         


 


              +--------------------------------------------------+
              |      general information about current run       |
              +--------------------------------------------------+

 

 SCF run will be profiled !


 DENSITY CONVERGENCE CHECK SWITCHED ON !
 SCF CONVERGENCE IF RMS(delta[D]) <     0.1000000000E-06

 PBE functional
 exchange:    LDA + PBE
 correlation: LDA (PW) + PBE
 A DFT calculation using the RI-J approximation will be carried out.
 Allocatable memory for RI due to $ricore (MB):       10000


              +--------------------------------------------------+
              | Atomic coordinate, charge and isotop information |
              +--------------------------------------------------+

                    atomic coordinates            atom    charge  isotop
          3.02763569   -1.59057603    0.00000000    c      6.000     0
          0.62406949   -0.23598822    0.00000000    c      6.000     0
          5.32594031   -0.18785232    0.00000000    c      6.000     0
         -4.00921843   -0.13182007    0.00000000    c      6.000     0
         -3.97410338    2.58751026    0.00000000    c      6.000     0
          0.64863889    2.48969979    0.00000000    c      6.000     0
         -1.62590082    3.82028132    0.00000000    c      6.000     0
         -1.70664810   -1.45852311    0.00000000    c      6.000     0
          7.65765433   -1.48043538    0.00000000    c      6.000     0
          3.18430492   -4.24966069    0.00000000    c      6.000     0
         -6.38462552   -1.39349885    0.00000000    c      6.000     0
         -6.31278701    3.91651317    0.00000000    c      6.000     0
          3.02427555    3.80200590    0.00000000    c      6.000     0
          5.25145372    2.52749350    0.00000000    c      6.000     0
          5.49397006   -5.48253152    0.00000000    c      6.000     0
          7.75350334   -4.09250152    0.00000000    c      6.000     0
         -8.56942589    2.63385644    0.00000000    c      6.000     0
         -8.60585824   -0.04971059    0.00000000    c      6.000     0
         -1.79610964   -3.50894179    0.00000000    h      1.000     0
          1.46803341   -5.37162752    0.00000000    h      1.000     0
         -1.57526843    5.87645894    0.00000000    h      1.000     0
          2.99300983    5.85645889    0.00000000    h      1.000     0
          7.03740446    3.54363653    0.00000000    h      1.000     0
          9.39175429   -0.37758671    0.00000000    h      1.000     0
         -6.40792492   -3.44838374    0.00000000    h      1.000     0
         -6.27823905    5.97100559    0.00000000    h      1.000     0
          5.55170731   -7.53448712    0.00000000    h      1.000     0
        -10.40643217   -1.03559812    0.00000000    h      1.000     0
        -10.34271436    3.66811995    0.00000000    h      1.000     0
          9.56190035   -5.06331696    0.00000000    h      1.000     0
 
       center of nuclear mass  :    0.03869629    0.06864504    0.00000000
       center of nuclear charge:    0.03345329    0.05934425    0.00000000

              +--------------------------------------------------+
              |               basis set information              |
              +--------------------------------------------------+

              we will work with the 1s 3p 5d 7f 9g ... basis set
              ...i.e. with spherical basis functions...

   type   atoms  prim   cont   basis
   ---------------------------------------------------------------------------
    c       18     77     55   cc-pVQZ   [5s4p3d2f1g|21s6p3d2f1g]
    h       12     32     30   cc-pVQZ   [4s3p2d1f|6s3p2d1f]
   ---------------------------------------------------------------------------
   total:   30   1770   1350
   ---------------------------------------------------------------------------

   total number of primitive shells          :   45
   total number of contracted shells         :  390
   total number of cartesian basis functions : 1680
   total number of SCF-basis functions       : 1350


 integral neglect threshold       :  0.20E-13
 integral storage threshold THIZE :  0.10E-04
 integral storage threshold THIME :         5

 RI-J AUXILIARY BASIS SET information:

              we will work with the 1s 3p 5d 7f 9g ... basis set
              ...i.e. with spherical basis functions...

   type   atoms  prim   cont   basis
   ---------------------------------------------------------------------------
    c       18     70     49   cc-pVQZ   [6s4p3d1f1g|12s5p4d2f1g]
    h       12     16     11   cc-pVQZ   [3s1p1d|5s2p1d]
   ---------------------------------------------------------------------------
   total:   30   1452   1014
   ---------------------------------------------------------------------------

   total number of primitive shells          :   32
   total number of contracted shells         :  330
   total number of cartesian basis functions : 1242
   total number of SCF-basis functions       : 1014


 symmetry group of the molecule :   c1 

 the group has the following generators :
   c1(z)

    1 symmetry operations found

 there are 1 real representations :   a   

 maximum number of shells which are related by symmetry :  1


    mo occupation :
   irrep   mo's   occupied
    a     1350       60
 
 number of basis functions   :         1350
 number of occupied orbitals :           60
 
  
           ------------------
           density functional
           ------------------
 PBE functional
 exchange:    LDA + PBE
 correlation: LDA (PW) + PBE
 grinp -> nfun, dfgga, dfhybrid 
           6 T F
 iterations will be done with small grid
  
 spherical integration : Lebedev's spherical grid
 spherical gridsize    :           5
    i.e. gridpoints    :         590
 value for diffuse not defined
 radial integration    : Chebyshev 2nd kind (scaling 3)
 radial gridsize       :           8
 integration cells     :          30
 partition function    : becke
 partition sharpness   :           3
  

 <rddim> : input of entry tasksize
           from data group '$pardft' failed !

               Default values taken

 <rddim> : input of entry memdiv
           from data group '$pardft' failed !

               Default values taken
  RIDFT: memory allocation for DFT gridpoints
  MEMORY is divided by 1 as DEFAULT
 Each node can hold at most  the            1 -th part
 of the gridpoints    

 biggest AO integral is expected to be     3.537514283
  
           ------------------------
               RI-J - INFORMATION
           ------------------------
 
 
 **************************************************
 *      MEMORY ALLOCATION FOR PARALLEL RI-DFT     *
 **************************************************
 
 
MEMORY FOR (MU NU/ ALPHA), SEQUENTIAL RUN               9992 MByte
 
            DIFFERENCE IN MEMORY NEED:       DIAG./SLAVE  
 
      TOTAL DIFFERENCE :                     83 MByte
 
      difference in xcore:                    9 MByte
      difference in fatmat:                  25 MByte
      getcor calls skipped by slaves:        50 MByte
 
 
           Integral memory available for diagonal.      9992 MByte
 
           Integral memory available for slave             0 MByte
 
         MEMORY FOR (MU NU/ ALPHA) ON DIAGONALIZER      9992 MByte
 
         MEMORY FOR (MU NU/ ALPHA) ON ONE SLAVE            0 MByte
 
         TOTAL MEMORY FOR (MU NU/ ALPHA),ALL NODES      9992 MByte
 
 Contributions to RI integral batches: 
  neglected integral batches:       27983
  direct contribution:                  0
  memory contribution:       48262
 Memory core needed for (P|Q) and Cholesky      8 MByte
 Memory core minimum needed except of (P|Q)     8 MByte
 Total minimum memory core needed (sum)        16 MByte
  
 ****************************************
 Memory allocated for RI-J 10007 MByte
 ****************************************
                                            

          ------------------------
          nuclear repulsion energy  :   1128.83054331    
          ------------------------

 
          -----------------
          -S integrals
          -----------------

 1e-integrals will be neglected if expon. factor < 0.198926E-14
 
          -----------------
          -T+V integrals
          -----------------

 1e-integrals will be neglected if expon. factor < 0.198926E-14
 Difference densities >>NOT<< switched on in parallel ridft!

 automatic virtual orbital shift switched on 
      shift if e(lumo)-e(homo) < 0.10000000    


 DIIS switched on: error vector is FDS-SDF
 Max. Iterations for DIIS is     :   4
 DIIS matrix (see manual) 
    Scaling factor of diagonals  :  1.200
    threshold for scaling factor :  0.000

 scf convergence criterion : increment of total energy < .1000000D-08
                  and increment of one-electron energy < .1000000D-05


 <geterg> : there is no data group $energy 

  MOs are in ASCII format !


 reading orbital data $scfmo  from file mos . 

 orbital characterization : expanded
 
 mo provided and orthogonalized by Cholesky decomposition

 DSCF restart information will be dumped onto file mos


 Starting SCF iterations


 ITERATION  ENERGY          1e-ENERGY        2e-ENERGY     RMS[dD(SAO)]   TOL
   1  -690.53371019749    -3146.7038050     1327.3395515    0.000D+00 0.198D-13
                            Exc = -98.7673920231     Coul =  1426.10694351    
                              N = 120.00031635    
                            current damping = 0.700
 
          max. resid. norm for Fia-block=  2.655D-01 for orbital     12a         
          max. resid. fock norm         =  7.042D+00 for orbital   1191a         

 ITERATION  ENERGY          1e-ENERGY        2e-ENERGY     RMS[dD(SAO)]   TOL
   2  -692.13252741780    -3166.5460791     1345.5830084    0.112D-01 0.198D-13
                            Exc = -100.477035768     Coul =  1446.06004413    
                              N = 120.00023663    
                            current damping = 0.650
 
          Norm of current diis error:  4.6706    
          max. resid. norm for Fia-block=  1.159D-01 for orbital     21a         
          max. resid. fock norm         =  1.364D-01 for orbital     20a         

 ITERATION  ENERGY          1e-ENERGY        2e-ENERGY     RMS[dD(SAO)]   TOL
   3  -692.45145077554    -3170.7829445     1349.5009504    0.331D-02 0.198D-13
                            Exc = -100.923157345     Coul =  1450.42410777    
                              N = 120.00019391    
                            current damping = 0.550
 
          Norm of current diis error:  2.2359    
          max. resid. norm for Fia-block=  5.729D-02 for orbital     20a         
          max. resid. fock norm         =  6.522D-02 for orbital     20a         

 ITERATION  ENERGY          1e-ENERGY        2e-ENERGY     RMS[dD(SAO)]   TOL
   4  -692.54147717814    -3174.6268533     1353.2548328    0.117D-02 0.198D-13
                            Exc = -101.223716118     Coul =  1454.47854894    
                              N = 120.00017417    
                            current damping = 0.450
 
          Norm of current diis error: 0.84133    
          max. resid. norm for Fia-block=  2.253D-02 for orbital     20a         
          max. resid. fock norm         =  2.596D-02 for orbital     20a         

 ITERATION  ENERGY          1e-ENERGY        2e-ENERGY     RMS[dD(SAO)]   TOL
   5  -692.55541745221    -3175.1628453     1353.7768846    0.461D-03 0.198D-13
                            Exc = -101.319658414     Coul =  1455.09654297    
                              N = 120.00016342    
                            current damping = 0.350
 
          Norm of current diis error: 0.36602    
          max. resid. norm for Fia-block=  7.934D-03 for orbital     21a         
          max. resid. fock norm         =  1.109D-02 for orbital   1342a         
          mo-orthogonalization: Cholesky decomposition

 ITERATION  ENERGY          1e-ENERGY        2e-ENERGY     RMS[dD(SAO)]   TOL
   6  -692.55751352809    -3176.2217348     1354.8336780    0.156D-03 0.198D-13
                            Exc = -101.377742477     Coul =  1456.21142047    
                              N = 120.00016143    
                            current damping = 0.250
 
          Norm of current diis error: 0.20395    
          max. resid. norm for Fia-block=  3.110D-03 for orbital     55a         
          max. resid. fock norm         =  6.832D-03 for orbital   1342a         

 ITERATION  ENERGY          1e-ENERGY        2e-ENERGY     RMS[dD(SAO)]   TOL
   7  -692.55824535207    -3176.0234673     1354.6346787    0.605D-04 0.198D-13
                            Exc = -101.381167404     Coul =  1456.01584607    
                              N = 120.00015990    
                            current damping = 0.300
 
          Norm of current diis error: 0.83964E-01
          max. resid. norm for Fia-block=  1.753D-03 for orbital     59a         
          max. resid. fock norm         =  3.485D-03 for orbital   1346a         

 ITERATION  ENERGY          1e-ENERGY        2e-ENERGY     RMS[dD(SAO)]   TOL
   8  -692.55831337597    -3176.0284572     1354.6396005    0.227D-04 0.198D-13
                            Exc = -101.380506193     Coul =  1456.02010671    
                              N = 120.00015965    
                            current damping = 0.350
 
          Norm of current diis error: 0.63434E-01
          max. resid. norm for Fia-block=  7.620D-04 for orbital     59a         
          max. resid. fock norm         =  1.892D-03 for orbital   1336a         

 ITERATION  ENERGY          1e-ENERGY        2e-ENERGY     RMS[dD(SAO)]   TOL
   9  -692.55840189659    -3176.0426765     1354.6537313    0.974D-05 0.198D-13
                            Exc = -101.381393507     Coul =  1456.03512483    
                              N = 120.00015967    
                            current damping = 0.200
 
          Norm of current diis error: 0.10619E-01
          max. resid. norm for Fia-block=  2.924D-04 for orbital     60a         
          max. resid. fock norm         =  6.125D-04 for orbital   1334a         

 ITERATION  ENERGY          1e-ENERGY        2e-ENERGY     RMS[dD(SAO)]   TOL
  10  -692.55839984837    -3176.0779649     1354.6890218    0.378D-05 0.198D-13
                            Exc = -101.382972525     Coul =  1456.07199428    
                              N = 120.00015968    
                            current damping = 0.250
 
          Norm of current diis error: 0.13927E-01
          max. resid. norm for Fia-block=  1.567D-04 for orbital     60a         
          max. resid. fock norm         =  2.805D-04 for orbital   1335a         
          mo-orthogonalization: Cholesky decomposition

 ITERATION  ENERGY          1e-ENERGY        2e-ENERGY     RMS[dD(SAO)]   TOL
  11  -692.55840407896    -3176.0640090     1354.6750616    0.182D-05 0.198D-13
                            Exc = -101.382543402     Coul =  1456.05760500    
                              N = 120.00015966    
                            current damping = 0.300
 
          Norm of current diis error: 0.39245E-02
          max. resid. norm for Fia-block=  6.043D-05 for orbital     59a         
          max. resid. fock norm         =  1.577D-04 for orbital   1334a         

 ITERATION  ENERGY          1e-ENERGY        2e-ENERGY     RMS[dD(SAO)]   TOL
  12  -692.55840429031    -3176.0592080     1354.6702604    0.778D-06 0.198D-13
                            Exc = -101.382162248     Coul =  1456.05242262    
                              N = 120.00015966    
                            current damping = 0.150
 
          Norm of current diis error: 0.23424E-02
          max. resid. norm for Fia-block=  4.036D-05 for orbital     60a         
          max. resid. fock norm         =  8.177D-05 for orbital   1350a         

 ITERATION  ENERGY          1e-ENERGY        2e-ENERGY     RMS[dD(SAO)]   TOL
  13  -692.55840438970    -3176.0573188     1354.6683711    0.535D-06 0.198D-13
                            Exc = -101.382155739     Coul =  1456.05052687    
                              N = 120.00015966    
                            current damping = 0.050
 
          Norm of current diis error: 0.11907E-02
          max. resid. norm for Fia-block=  1.935D-05 for orbital     60a         
          max. resid. fock norm         =  4.794D-05 for orbital      8a         
          irrep a   : virtual orbitals shifted by    0.00311

 ITERATION  ENERGY          1e-ENERGY        2e-ENERGY     RMS[dD(SAO)]   TOL
  14  -692.55840440852    -3176.0581586     1354.6692109    0.265D-06 0.198D-13
                            Exc = -101.382182274     Coul =  1456.05139318    
                              N = 120.00015966    
                            current damping = 0.100
 
          Norm of current diis error: 0.83376E-03
          max. resid. norm for Fia-block=  1.082D-05 for orbital     55a         
          max. resid. fock norm         =  2.424D-05 for orbital     15a         

 ITERATION  ENERGY          1e-ENERGY        2e-ENERGY     RMS[dD(SAO)]   TOL
  15  -692.55840442138    -3176.0581498     1354.6692020    0.158D-06 0.198D-13
                            Exc = -101.382180793     Coul =  1456.05138283    
                              N = 120.00015966    
                            current damping = 0.150
 
          Norm of current diis error: 0.31668E-03
          max. resid. norm for Fia-block=  6.687D-06 for orbital     60a         
          max. resid. fock norm         =  1.403D-05 for orbital   1342a         
          mo-orthogonalization: Cholesky decomposition

 DENSITY CONVERGED !


 ITERATION  ENERGY          1e-ENERGY        2e-ENERGY     RMS[dD(SAO)]   TOL
  16  -692.55840442200    -3176.0582754     1354.6693276    0.851D-07 0.198D-13
                            Exc = -101.382181789     Coul =  1456.05150943    
                              N = 120.00015966    
                            current damping = 0.200
 
          Norm of current diis error: 0.26610E-03
          max. resid. norm for Fia-block=  3.833D-06 for orbital     60a         
          max. resid. fock norm         =  7.508D-06 for orbital   1342a         

 DENSITY CONVERGED !


 ITERATION  ENERGY          1e-ENERGY        2e-ENERGY     RMS[dD(SAO)]   TOL
  17  -692.55840442364    -3176.0581112     1354.6691634    0.453D-07 0.198D-13
                            Exc = -101.382177354     Coul =  1456.05134080    
                              N = 120.00015966    
                            current damping = 0.250
 
          Norm of current diis error: 0.48474E-04
          max. resid. norm for Fia-block=  9.013D-07 for orbital     60a         
          max. resid. fock norm         =  2.246D-06 for orbital   1335a         

 DENSITY CONVERGED !


 ITERATION  ENERGY          1e-ENERGY        2e-ENERGY     RMS[dD(SAO)]   TOL
  18  -692.55840442365    -3176.0581303     1354.6691826    0.118D-07 0.198D-13
                            Exc = -101.382178485     Coul =  1456.05136105    
                              N = 120.00015966    
                            current damping = 0.300
 
          Norm of current diis error: 0.33640E-04
          max. resid. norm for Fia-block=  4.583D-07 for orbital     56a         
          max. resid. fock norm         =  1.163D-06 for orbital   1335a         

 ENERGY & DENSITY CONVERGED !


 ITERATION  ENERGY          1e-ENERGY        2e-ENERGY     RMS[dD(SAO)]   TOL
  19  -692.55837695164    -3176.0581448     1354.6692246    0.532D-08 0.198D-13
                            Exc = -101.382151724     Coul =  1456.05137630    
                              N = 120.00000665    
                            current damping = 0.150
 
          Norm of current diis error: 0.91526E-05
          max. resid. norm for Fia-block=  1.341D-07 for orbital     59a         
          max. resid. fock norm         =  4.096D-07 for orbital     12a         

 End of SCF iterations

   convergence criteria satisfied after   19 iterations


                  ------------------------------------------ 
                 |  total energy      =   -692.55837695164  |
                  ------------------------------------------ 
                 :  kinetic energy    =    689.21985831855  :
                 :  potential energy  =  -1381.77823527018  :
                 :  virial theorem    =      1.99517944083  :
                 :  wavefunction norm =      1.00000000000  :
                  .......................................... 


 <geterg> : there is no data group $energy 


 <skperg> : $end is missing 


 orbitals $scfmo  will be written to file mos

    irrep                 56a         57a         58a         59a         60a   
 eigenvalues H         -0.26684    -0.24812    -0.23170    -0.20719    -0.18592
            eV          -7.2611     -6.7517     -6.3050     -5.6379     -5.0592
 occupation              2.0000      2.0000      2.0000      2.0000      2.0000 

    irrep                 61a         62a         63a         64a         65a   
 eigenvalues H         -0.09364    -0.07229    -0.04516    -0.03233    -0.01155
            eV          -2.5482     -1.9671     -1.2289     -0.8798     -0.3143
 
 
 ! grave: sending quit signal to master process
 
 
 
 
 ==============================================================================
                           electrostatic moments
 ==============================================================================

 reference point for electrostatic moments:    0.00000   0.00000   0.00000

 
              nuc           elec       ->  total
 ------------------------------------------------------------------------------
                          charge      
 ------------------------------------------------------------------------------
         120.000000    -120.000000      -0.000000
 
 ------------------------------------------------------------------------------
                       dipole moment  
 ------------------------------------------------------------------------------
   x       4.014395      -4.013399       0.000995
   y       7.121310      -7.138828      -0.017517
   z       0.000000       0.000000       0.000000
 
   | dipole moment | =     0.0175 a.u. =     0.0446 debye 
 
 ------------------------------------------------------------------------------
                     quadrupole moment
 ------------------------------------------------------------------------------
  xx    3570.628698   -3638.410943     -67.782245
  yy    1133.431511   -1201.518217     -68.086706
  zz       0.000000     -82.795180     -82.795180
  xy    -811.185498     811.034360      -0.151138
  xz       0.000000      -0.000000      -0.000000
  yz       0.000000       0.000000       0.000000
 
     1/3  trace=     -72.888044
     anisotropy=      14.865348
 
 ==============================================================================
 

    ridft profiling
  --------------------------------------------------------------------
             module   cpu total (s)       %  wall total (s)       %

               RIDFT           302.9  100.00           303.2  100.00
         Ridft_b_scf            21.0    6.93            21.0    6.92
        b_scf_prelim             0.0    0.00             0.0    0.00
        b_scf_molinp             0.0    0.00             0.0    0.00
         b_scf_init0             0.0    0.00             0.0    0.00
        b_scf_auxbas             0.0    0.00             0.0    0.00
      b_scf_symmetry             0.0    0.00             0.0    0.00
         b_scf_cosmo             0.0    0.00             0.0    0.00
        b_scf_params             1.6    0.53             1.6    0.53
          b_scf_ri-j            17.1    5.64            17.1    5.63
    b_scf_ri-j_auxpq            17.1    5.64            17.1    5.63
     ri-j_auxpq_chol             0.1    0.02             0.1    0.02
         b_scf_1elec             0.4    0.15             0.4    0.15
       b_scf_moinput             1.8    0.61             1.8    0.61
     moinput_orthmos             1.8    0.59             1.8    0.59
    b_scf_dft-dstmax             0.0    0.00             0.0    0.00
           Ridft_scf           281.7   93.00           281.7   92.90
          Scf_b_loop             0.0    0.00             0.0    0.00
                noga             0.0    0.00             0.0    0.00
            Scf_loop           281.0   92.77           281.0   92.67
     scf_loop_mkdmat             1.1    0.36             1.1    0.36
       scf_loop_ri-j            25.2    8.31            25.2    8.30
      parlp1.bc.dens             1.0    0.34             1.0    0.34
        parlp1.gs.gp             0.0    0.00             0.0    0.00
        parlp2.bc.gq             0.0    0.00             0.0    0.00
        scf_loop_dft           216.4   71.45           216.4   71.36
      pardft.bc.dens             0.0    0.00             0.0    0.00
        dft_grid_con             0.5    0.16             0.5    0.15
           dft_xcrhf           211.7   69.89           211.7   69.81
          dft_getval            13.9    4.58            14.0    4.61
          funct2 dst             0.3    0.10             0.3    0.10
      funct2 f2loop1             3.3    1.10             3.5    1.15
      funct2 f2loop2             5.1    1.69             5.1    1.67
          funct2 s+c             4.8    1.57             4.8    1.59
        funct2 cmf_2             4.2    1.37             4.2    1.40
          dft_mkdens            83.5   27.58            83.4   27.51
         dft_gga-fun             0.2    0.08             0.3    0.09
          dft_mkfock           113.7   37.55           113.7   37.51
     pardft.red.fock            17.0    5.60            17.0    5.59
     scf_loop_energy             0.0    0.01             0.0    0.01
     scf_loop_mkfock             0.0    0.01             0.0    0.01
       scf_loop_diis            10.0    3.29            10.0    3.29
       scf_loop_diag            14.7    4.85            14.7    4.84
         diag_tritrn             3.7    1.22             3.7    1.22
          diag_rdiag            10.9    3.61            10.9    3.60
     scf_loop_modump            11.1    3.68            11.2    3.68
      scf_loop_ortho             2.1    0.69             2.1    0.69
          Scf_a_loop             0.7    0.23             0.7    0.23
         Ridft_a_scf             0.2    0.08             0.5    0.18
         a_scf_fanal             0.2    0.07             0.5    0.17
 


    ------------------------------------------------------------------------
         total  cpu-time :  5 minutes and  5 seconds
         total wall-time :  5 minutes and  5 seconds
    ------------------------------------------------------------------------


   ****  ridft : all done  ****


    2017-11-01 20:20:58.665 

