 this is node-proc. number 0 running on node c-15-18.gp.local
 the total number of node-proc. spawned is  61

 dscfserver (c-15-18.gp.local) : TURBOMOLE V7.2 ( 21471 ) 7 Nov 2017 at 16:15:16
 Copyright (C) 2017 TURBOMOLE GmbH, Karlsruhe


    2018-02-14 23:43:28.157 

 
    0:01:17 ---- Start global counter...
    2:00:19 ---- ... finished.
 
    2:02:04 ---- Start global counter...
    3:52:31 ---- ... finished.
 
    3:54:12 ---- Start global counter...
    5:43:46 ---- ... finished.
 
    5:45:30 ---- Start global counter...
    7:26:37 ---- ... finished.
 
    7:28:21 ---- Start global counter...
    9:07:22 ---- ... finished.
 
    9:09:27 ---- Start global counter...
   10:34:49 ---- ... finished.
 
   10:36:37 ---- Start global counter...
   11:57:18 ---- ... finished.
 
   11:59:03 ---- Start global counter...
   13:14:23 ---- ... finished.
 
   13:16:08 ---- Start global counter...
   14:25:43 ---- ... finished.
 
   14:27:28 ---- Start global counter...
   15:34:44 ---- ... finished.
 
   15:36:55 ---- Start global counter...
   16:37:48 ---- ... finished.
 
   16:39:35 ---- Start global counter...
   17:33:46 ---- ... finished.
 
   17:35:28 ---- Start global counter...
   18:23:40 ---- ... finished.
 
   18:25:22 ---- Start global counter...
   19:10:46 ---- ... finished.
 
   19:12:28 ---- Start global counter...
   19:51:50 ---- ... finished.
 
   19:53:57 ---- Start global counter...
   20:26:52 ---- ... finished.
 
   20:28:37 ---- Start global counter...
   20:56:55 ---- ... finished.
 
   20:58:40 ---- Start global counter...
   21:42:39 ---- ... finished.
 
   21:44:25 ---- Start global counter...
   22:19:29 ---- ... finished.
 
   22:21:14 ---- Start global counter...
   22:59:27 ---- ... finished.
 
   23:01:08 ---- ByeBye Tag received


 ! Total wall-clock time in seconds  :    82868.4
 ! Time (sec) spent in global counter:    80637.8
 ! So-called SERIAL wall-clock time  :     2230.6

  *** Regular termination of server ***
 total turnaround time of dscfserver 82869.40 sec
 cpu elapsed by dscfserver process   80516.63 sec 

   ***  dscf server : all done  ***


    2018-02-15 22:44:37.556 

