
   OpenMP run-time library returned nthreads = 16
 operating system is UNIX !

 dscf (c-3-41) : TURBOMOLE V7.3 ( 22142 ) 4 Jul 2018 at 18:12:42
 Copyright (C) 2018 TURBOMOLE GmbH, Karlsruhe


    2019-04-02 20:13:30.597 



                             d s c f - program

                   idea & directorship : reinhart ahlrichs
                   program development : marco haeser
                                         michael baer
                           dft version : oliver treutler


                          quantum chemistry group
                          universitaet  karlsruhe
                                  germany




                          References             
                                                 
          TURBOMOLE:                             
              R. Ahlrichs, M. Baer, M. Haeser, H. Horn, and
              C. Koelmel
              Electronic structure calculations on workstation
              computers: the program system TURBOMOLE
              Chem. Phys. Lett. 162: 165 (1989)
          Density Functional:                              
              O. Treutler and R. Ahlrichs                      
              Efficient Molecular Numerical Integration Schemes
              J. Chem. Phys. 102: 346 (1995)                   
          Parallel Version:                                
              Performance of parallel TURBOMOLE for Density    
              Functional Calculations                          
              M. v. Arnim and R. Ahlrichs                      
              J. Comp. Chem. 19: 1746 (1998)                   
                                         




              +--------------------------------------------------+
              | Atomic coordinate, charge and isotop information |
              +--------------------------------------------------+

                    atomic coordinates            atom    charge  isotop
          1.56047746    2.33669330   -0.07606230    c      6.000     0
          2.87429833    3.89874160   -0.15584845    h      1.000     0
          2.45694619   -0.11894102    0.24047901    c      6.000     0
          4.46666540   -0.45780719    0.39244736    h      1.000     0
          0.76254818   -2.13265455    0.37462849    c      6.000     0
          1.46218198   -4.03915122    0.61250010    h      1.000     0
         -1.82889489   -1.69166486    0.19490624    c      6.000     0
         -3.14678896   -3.25029762    0.30316394    h      1.000     0
         -2.72783551    0.76436262   -0.11799696    c      6.000     0
         -4.73850953    1.10643677   -0.23460981    h      1.000     0
         -1.03132842    2.77557069   -0.25747029    c      6.000     0
         -1.72762902    4.68164948   -0.50617290    h      1.000     0
         -0.51944913    1.26911630    6.08235886    n      7.000     0
         -1.22489786    2.97319844    5.58556314    h      1.000     0
          2.11132684    1.13119104    6.33182791    c      6.000     0
          3.41695812    3.01037948    6.05813120    o      8.000     0
          3.01631690   -1.38985047    6.93296908    c      6.000     0
          5.01385586   -1.67749691    7.18642129    h      1.000     0
          1.35390738   -3.30675309    7.17148374    c      6.000     0
          1.93202661   -5.21239187    7.61845001    h      1.000     0
         -1.18823893   -2.95709343    6.85005617    n      7.000     0
         -2.41419466   -4.39812100    7.03689183    h      1.000     0
         -2.27378891   -0.64255492    6.28424455    c      6.000     0
         -4.53728097   -0.35754024    6.01569143    o      8.000     0
 
       center of nuclear mass  :    0.00792494   -0.07857788    3.82551049
       center of nuclear charge:    0.01978660   -0.10615973    3.77430350

              +--------------------------------------------------+
              |               basis set information              |
              +--------------------------------------------------+

              we will work with the 1s 3p 5d 7f 9g ... basis set
              ...i.e. with spherical basis functions...

   type   atoms  prim   cont   basis
   ---------------------------------------------------------------------------
    c       10     77     57   def2-QZVP   [7s4p3d2f1g|15s8p3d2f1g]
    h       10     33     30   def2-QZVP   [4s3p2d1f|7s3p2d1f]
    n        2     77     57   def2-QZVP   [7s4p3d2f1g|15s8p3d2f1g]
    o        2     77     57   def2-QZVP   [7s4p3d2f1g|15s8p3d2f1g]
   ---------------------------------------------------------------------------
   total:   24   1408   1098
   ---------------------------------------------------------------------------

   total number of primitive shells          :  100
   total number of contracted shells         :  338
   total number of cartesian basis functions : 1358
   total number of SCF-basis functions       : 1098


 integral neglect threshold       :  0.25E-13
 integral storage threshold THIZE :  0.10E-04
 integral storage threshold THIME :         5


 DENSITY CONVERGENCE CHECK SWITCHED ON !
 SCF CONVERGENCE IF RMS(delta[D]) <     0.1000000000E-06


 symmetry group of the molecule :   c1 

 the group has the following generators :
   c1(z)

    1 symmetry operations found

 there are 1 real representations :   a   

 maximum number of shells which are related by symmetry :  1


    mo occupation :
   irrep   mo's   occupied
    a     1098       50
 
 number of basis functions   :                   1098
 number of occupied orbitals :                     50
 

 automatic virtual orbital shift switched on 
      shift if e(lumo)-e(homo) < 0.10000000    


          ------------------------
          nuclear repulsion energy  :   878.329077593    
          ------------------------


         -----------------
         -S,T+V- integrals
         -----------------

 1e-integrals will be neglected if expon. factor < 0.246094E-14
 
   Difference densities algorithm switched on.
   The maximal number of linear combinations of
   difference densities is                    20 .

 DIIS switched on: error vector is FDS-SDF
 Max. Iterations for DIIS is     :   5
 DIIS matrix (see manual) 
    Scaling factor of diagonals  :  1.200
    threshold for scaling factor :  0.000

 scf convergence criterion : increment of total energy < .1000000D-08
                  and increment of one-electron energy < .1000000D-05

  MOs are in ASCII format !


 reading orbital data $scfmo  from file mos
 orbital characterization : scfconv=9

 DSCF restart information will be dumped onto file mos

 
                                              current damping :  0.700
 ITERATION  ENERGY          1e-ENERGY        2e-ENERGY     RMS[dD(SAO)]   TOL
   1  -643.28828785758    -2621.9712857     1100.3539202    0.000D+00 0.245D-13
          max. resid. norm for Fia-block=  2.612D-01 for orbital      2a         
          max. resid. fock norm         =  8.016D-01 for orbital   1098a         
          Delta Eig. =    62.2308169991 eV 
 
                                              current damping :  0.650
 ITERATION  ENERGY          1e-ENERGY        2e-ENERGY     RMS[dD(SAO)]   TOL
   2  -643.41176305246    -2619.9028385     1098.1619979    0.724D-03 0.163D-13
          Norm of current diis error:  1.1030    
          max. resid. norm for Fia-block=  1.129D-01 for orbital      2a         
          max. resid. fock norm         =  3.305D-01 for orbital   1098a         
          Delta Eig. =    26.8925257625 eV 
 
                                              current damping :  0.600
 ITERATION  ENERGY          1e-ENERGY        2e-ENERGY     RMS[dD(SAO)]   TOL
   3  -643.43704582309    -2620.3352906     1098.5691672    0.332D-03 0.121D-13
          Norm of current diis error: 0.49328    
          max. resid. norm for Fia-block=  4.769D-02 for orbital      2a         
          max. resid. fock norm         =  1.278D-01 for orbital   1097a         
          Delta Eig. =    10.0367603159 eV 
 
                                              current damping :  0.650
 ITERATION  ENERGY          1e-ENERGY        2e-ENERGY     RMS[dD(SAO)]   TOL
   4  -643.44301011648    -2620.1149277     1098.3428400    0.158D-03 0.107D-13
          Norm of current diis error: 0.20198    
          max. resid. norm for Fia-block=  1.728D-02 for orbital      1a         
          max. resid. fock norm         =  4.967D-02 for orbital   1098a         
          Delta Eig. =     4.1494060021 eV 
 
                                              current damping :  0.500
 ITERATION  ENERGY          1e-ENERGY        2e-ENERGY     RMS[dD(SAO)]   TOL
   5  -643.44411828833    -2620.1028426     1098.3296468    0.577D-04 0.995D-14
          Norm of current diis error: 0.88462E-01
          max. resid. norm for Fia-block=  6.979D-03 for orbital      2a         
          max. resid. fock norm         =  1.918D-02 for orbital   1097a         
 mo-orthogonalization: Cholesky decomposition
          Delta Eig. =     1.6662355174 eV 
 
                                              current damping :  0.350
 ITERATION  ENERGY          1e-ENERGY        2e-ENERGY     RMS[dD(SAO)]   TOL
   6  -643.44438544527    -2620.0901409     1098.3166779    0.296D-04 0.930D-14
          Norm of current diis error: 0.36370E-01
          max. resid. norm for Fia-block=  2.281D-03 for orbital      1a         
          max. resid. fock norm         =  6.446D-03 for orbital   1098a         
          Delta Eig. =     0.6386960105 eV 
 
                                              current damping :  0.200
 ITERATION  ENERGY          1e-ENERGY        2e-ENERGY     RMS[dD(SAO)]   TOL
   7  -643.44444624508    -2620.0852376     1098.3117138    0.131D-04 0.866D-14
          Norm of current diis error: 0.14207E-01
          max. resid. norm for Fia-block=  1.011D-03 for orbital     32a         
          max. resid. fock norm         =  1.655D-03 for orbital   1097a         
          Delta Eig. =     0.1810451775 eV 
 
                                              current damping :  0.050
 ITERATION  ENERGY          1e-ENERGY        2e-ENERGY     RMS[dD(SAO)]   TOL
   8  -643.44445911672    -2620.0838738     1098.3103371    0.569D-05 0.806D-14
          Norm of current diis error: 0.52705E-02
          max. resid. norm for Fia-block=  4.267D-04 for orbital     32a         
          max. resid. fock norm         =  4.574D-04 for orbital     52a         
          Delta Eig. =     0.0391136438 eV 
 
                                              current damping :  0.100
 ITERATION  ENERGY          1e-ENERGY        2e-ENERGY     RMS[dD(SAO)]   TOL
   9  -643.44446144963    -2620.0842247     1098.3106856    0.236D-05 0.754D-14
          Norm of current diis error: 0.17511E-02
          max. resid. norm for Fia-block=  1.374D-04 for orbital     32a         
          max. resid. fock norm         =  1.500D-04 for orbital     52a         
          Delta Eig. =     0.0068520025 eV 
 
                                              current damping :  0.150
 ITERATION  ENERGY          1e-ENERGY        2e-ENERGY     RMS[dD(SAO)]   TOL
  10  -643.44446167677    -2620.0835868     1098.3100475    0.733D-06 0.724D-14
          Norm of current diis error: 0.71642E-03
          max. resid. norm for Fia-block=  5.748D-05 for orbital     47a         
          max. resid. fock norm         =  7.126D-05 for orbital     47a         
 mo-orthogonalization: Cholesky decomposition
          Delta Eig. =     0.0036842891 eV 
 
                                              current damping :  0.200
 ITERATION  ENERGY          1e-ENERGY        2e-ENERGY     RMS[dD(SAO)]   TOL
  11  -643.44446170515    -2620.0841250     1098.3105857    0.217D-06 0.709D-14
          Norm of current diis error: 0.34029E-03
          max. resid. norm for Fia-block=  1.839D-05 for orbital     46a         
          max. resid. fock norm         =  2.357D-05 for orbital     46a         
          Delta Eig. =     0.0011136514 eV 
 
                                              current damping :  0.250
 ITERATION  ENERGY          1e-ENERGY        2e-ENERGY     RMS[dD(SAO)]   TOL
  12  -643.44446171106    -2620.0839940     1098.3104547    0.105D-06 0.696D-14
          Norm of current diis error: 0.11326E-03
          max. resid. norm for Fia-block=  9.222D-06 for orbital     47a         
          max. resid. fock norm         =  9.313D-06 for orbital     47a         
          Delta Eig. =     0.0001247582 eV 

 DENSITY CONVERGED !

 
                                              current damping :  0.300
 ITERATION  ENERGY          1e-ENERGY        2e-ENERGY     RMS[dD(SAO)]   TOL
  13  -643.44446171218    -2620.0840102     1098.3104709    0.451D-07 0.680D-14
          Norm of current diis error: 0.59832E-04
          max. resid. norm for Fia-block=  4.724D-06 for orbital     47a         
          max. resid. fock norm         =  4.761D-06 for orbital     47a         
          Delta Eig. =     0.0000725764 eV 

 ENERGY & DENSITY CONVERGED !

 
                                              current damping :  0.350
 ITERATION  ENERGY          1e-ENERGY        2e-ENERGY     RMS[dD(SAO)]   TOL
  14  -643.44446171248    -2620.0840085     1098.3104692    0.251D-07 0.700D-14
          max. resid. norm for Fia-block=  1.743D-06 for orbital     49a         
          max. resid. fock norm         =  1.768D-06 for orbital     49a         

 convergence criteria satisfied after    14 iterations


                  ------------------------------------------ 
                 |  total energy      =   -643.44446171248  |
                  ------------------------------------------ 
                 :  kinetic energy    =    642.61311935944  :
                 :  potential energy  =  -1286.05758107192  :
                 :  virial theorem    =      1.99870798118  :
                 :  wavefunction norm =      1.00000000000  :
                  .......................................... 


 orbitals $scfmo  will be written to file mos

    irrep                 46a         47a         48a         49a         50a   
 eigenvalues H         -0.44264    -0.42930    -0.36340    -0.33843    -0.33551
            eV         -12.0448    -11.6818     -9.8888     -9.2091     -9.1297
 occupation              2.0000      2.0000      2.0000      2.0000      2.0000 

    irrep                 51a         52a         53a         54a         55a   
 eigenvalues H          0.07180     0.08678     0.10934     0.11007     0.11816
            eV           1.9539      2.3614      2.9753      2.9951      3.2153
 
 
 
 
 ==============================================================================
                           electrostatic moments
 ==============================================================================

 reference point for electrostatic moments:    0.00000   0.00000   0.00000

 
              nuc           elec       ->  total
 ------------------------------------------------------------------------------
                          charge      
 ------------------------------------------------------------------------------
         100.000000    -100.000000       0.000000
 
 ------------------------------------------------------------------------------
                       dipole moment  
 ------------------------------------------------------------------------------
   x       1.978660      -1.764095       0.214565
   y     -10.615973       8.839434      -1.776540
   z     377.430350    -377.138199       0.292151
 
   | dipole moment | =     1.8131 a.u. =     4.6085 debye 
 
 ------------------------------------------------------------------------------
                     quadrupole moment
 ------------------------------------------------------------------------------
  xx     620.534368    -687.613123     -67.078755
  yy     483.990805    -536.408790     -52.417985
  zz    2438.315973   -2499.058830     -60.742857
  xy      74.222900     -78.896718      -4.673818
  xz      82.443488     -80.529053       1.914436
  yz    -226.243912     211.791918     -14.451995
 
     1/3  trace=     -60.079866
     anisotropy=      29.416016
 
 ==============================================================================
 


    ------------------------------------------------------------------------
         total  cpu-time :  8 hours 29 minutes and 38 seconds
         total wall-time : 32 minutes and 27 seconds
    ------------------------------------------------------------------------

   ****  dscf : all done  ****


    2019-04-02 20:45:57.090 

