
   OpenMP run-time library returned nthreads = 28

 ricc2 (c-16-23) : TURBOMOLE V7.3 ( 22142 ) 4 Jul 2018 at 18:12:42
 Copyright (C) 2018 TURBOMOLE GmbH, Karlsruhe


    2019-04-01 23:34:03.526 



                              R I C C 2 - PROGRAM

                          the quantum chemistry groups
                             at the universities in
                           Karlsruhe, Bochum & Mainz
                                   Germany



   *-----------------------------------------------------------------------*
   |                     program will use 28 thread(s)                     |
   *-----------------------------------------------------------------------*


              +--------------------------------------------------+
              | Atomic coordinate, charge and isotop information |
              +--------------------------------------------------+

                    atomic coordinates            atom    charge  isotop
          1.82184790    1.65368669    0.71434225    c      6.000     0
          3.13662339    3.21240370    0.84289774    h      1.000     0
          2.70430597   -0.78070905    0.22486138    c      6.000     0
          4.70451956   -1.10966451   -0.03214918    h      1.000     0
          1.00935500   -2.79233284    0.08015756    c      6.000     0
          1.69501119   -4.68158557   -0.28726103    h      1.000     0
         -1.56909029   -2.36896840    0.41735756    c      6.000     0
         -2.88326856   -3.92992049    0.31013532    h      1.000     0
         -2.45208435    0.06503041    0.90752704    c      6.000     0
         -4.44916378    0.39309349    1.18780806    h      1.000     0
         -0.75673155    2.07828152    1.06127278    c      6.000     0
         -1.43705195    3.95664962    1.48297577    h      1.000     0
         -0.22649344    1.00984960    8.23935934    c      0.000     0
         -1.11124355    2.99301631    7.52266108    o      0.000     0
          0.53546790   -0.83747725    6.65334005    o      0.000     0
          0.21666199   -0.22158983    4.94993098    h      0.000     0
          0.17026268    0.25965273   10.94432427    c      0.000     0
         -0.41548845    1.78907722   12.17262525    h      0.000     0
         -0.91837212   -1.43472103   11.35430246    h      0.000     0
          2.15163566   -0.18657225   11.25616420    h      0.000     0
 
       center of nuclear mass  :    0.00743792    0.15735220    3.92068363
       center of nuclear charge:    0.12648300   -0.35783557    0.56994091

              +--------------------------------------------------+
              |               basis set information              |
              +--------------------------------------------------+

              we will work with the 1s 3p 5d 7f 9g ... basis set
              ...i.e. with spherical basis functions...

   type   atoms  prim   cont   basis
   ---------------------------------------------------------------------------
    c        8     50     30   cc-pVTZ   [4s3p2d1f|18s5p2d1f]
    h       10     16     14   cc-pVTZ   [3s2p1d|5s2p1d]
    o        2     50     30   cc-pVTZ   [4s3p2d1f|18s5p2d1f]
   ---------------------------------------------------------------------------
   total:   20    660    440
   ---------------------------------------------------------------------------

   total number of primitive shells          :   60
   total number of contracted shells         :  160
   total number of cartesian basis functions :  500
   total number of SCF-basis functions       :  440


 symmetry group of the molecule :   c1 

 the group has the following generators :
   c1(z)

    1 symmetry operations found

 there are 1 real representations :   a   


   =========================================================================


     restricted closed shell calculation for the wavefunction models:
               MP2        - Second Order Moeller Plesset PT


     global parameters for ricc2 program:

        hard restart (reuse of interm.) :  disabled
        soft restart (reuse of vectors) :  disabled
        threshold for vector function   :    0.100000E-05
        convergence threshold energy    :    0.100000E-06
        linear dependence threshold     :    0.100000E-13
        global print level              :      1
        maximum number of iterations    :   300
        maximum number DIIS vectors     :    10
        max. dim. of reduced space      :   100
        core memory limit (MB)          : *****


     MP2 energy only: Energy will be calculated directly from T2 amplitudes!

     Scratch Directory : 


   =========================================================================

    der. integral neglect threshold  :  0.10E-07
    integral neglect threshold       :  0.67E-11
    integral storage threshold THIZE :  0.10E-04
    integral storage threshold THIME :         5


                  +------------------------------------------+
                  |     Auxiliary basis set information      |
                  +------------------------------------------+

              we will work with the 1s 3p 5d 7f 9g ... basis set
              ...i.e. with spherical basis functions...

   type   atoms  prim   cont   basis
   ---------------------------------------------------------------------------
    c        8     81     81   cc-pVTZ   [8s6p5d3f1g|8s6p5d3f1g]
    h       10     30     30   cc-pVTZ   [4s3p2d1f|4s3p2d1f]
    o        2     81     81   cc-pVTZ   [8s6p5d3f1g|8s6p5d3f1g]
   ---------------------------------------------------------------------------
   total:   20   1110   1110
   ---------------------------------------------------------------------------

   total number of primitive shells          :   56
   total number of contracted shells         :  330
   total number of cartesian basis functions : 1360
   total number of SCF-basis functions       : 1110


 maximum number of shells which are related by symmetry :  1


 The symmetry information takes   1 MB

*---------------------------------------------------------------------*
|               simplified C1 algorithm will be applied               |
*---------------------------------------------------------------------*
  MOs are in ASCII format !


 reading orbital data $scfmo  from file mos
 orbital characterization : scfconv=9



              +--------------------------------------------+
              | list of orbitals that will be kept frozen: |
              +--------------------------------------------+
              |   irrep   index      energy     occ/vir    |
              +--------------------------------------------+
              |   a         1      -11.2345     occupied   |
              |   a         2      -11.2339     occupied   |
              |   a         3      -11.2339     occupied   |
              |   a         4      -11.2327     occupied   |
              |   a         5      -11.2327     occupied   |
              |   a         6      -11.2321     occupied   |
              +--------------------------------------------+



   Molecular Orbital Statistic:
   ============================

   -----------------------------
   orbitals in total:
   -----------------------------
    frozen occupied :      6
    active occupied :     15
    active virtual  :    419
    frozen virtual  :      0
    all together    :    440
   -----------------------------


     time in riccmos       cpu:  5.99 sec    wall:  0.27 sec    ratio: 22.3

     total memory allocated for calculation of (Q|P)**(-1/2) : 15 MiB


     calculation of (P|Q) ...
     time in lp2sym        cpu:  1.87 sec    wall:  0.07 sec    ratio: 27.6


     calculation of the Cholesky decomposition of (P|Q)**(-1) ...
     time in invmetri      cpu:  4.93 sec    wall:  0.18 sec    ratio: 27.9

   threshold for RMS(d[D]) in SCF was     :  0.10E-06
   integral neglect threshold             :  0.67E-11
   derivative integral neglect threshold  :  0.10E-07


   =========================================================================

     Energy of reference wave function is  -230.7795913525000
     Maximum orbital residual is           0.1162455742190E-06


     Number of symmetry-nonredundant auxiliary basis functions:     1110

     Block lengths for integral files:
        frozen occupied (BOI):        1 MiB
        active occupied (BJI):        1 MiB
        active virtual  (BAI):        4 MiB
        frozen virtual  (BGI):        0 MiB
               general  (BTI):        4 MiB

   =========================================================================




   **************************************************************************
   *                                                                        *
   *          OPTIMIZATION OF THE GROUND STATE CLUSTER AMPLITUDES           *
   *                                                                        *
   **************************************************************************


   Iter.   MP2 energy       Norm(Omega)   Norm(t1)  Norm(t2)     cpu    wall
   ...........................................................................
    1   -231.7301585843     ------          0.00000   0.33772    0.42    0.02
   ...........................................................................


     time in total         cpu: 25.28 sec    wall:  0.95 sec    ratio: 26.5


     **********************************************************************
     *                                                                    *
     *   RHF  energy                             :   -230.7795913525      *
     *   MP2 correlation energy (doubles)        :     -0.9505672318      *
     *                                                                    *
     *   Final MP2 energy                        :   -231.7301585843      *
     *                                                                    *
     *    E(S)   =     -0.5938821160      E(T)   =     -0.3566851158      *
     *    E(OS)  =     -0.7127771546      E(SS)  =     -0.2377900772      *
     *                                                                    *
     *   SCS-MP2 energy                          :   -231.7141872971      *
     *   (computed with  C(OS) =   1.2000  and  C(SS) =   0.3333)         *
     *                                                                    *
     *   SOS-MP2 energy                          :   -231.7062016535      *
     *   (computed with  C(OS) =   1.3000)                                *
     *                                                                    *
     *   Norm of MP1 T2 amplitudes               :      0.3377240699      *
     *                                                                    *
     **********************************************************************



    ------------------------------------------------------------------------
         total  cpu-time :  1 minutes and 19 seconds
         total wall-time :   3.06 seconds
    ------------------------------------------------------------------------

   ****  ricc2 : all done  ****


    2019-04-01 23:34:06.498 

