Using Slurm to start processes with PMI2
STARTING ridft ON 8 PROCESSORS!
RUNNING PROGRAM /beegfs/modfac/apps/TURBOMOLE/7.0_intel_GA/bin/em64t-unknown-linux-gnu_mpi/ridft_mpi.
PLEASE WAIT UNTIL ridft HAS FINISHED.
Look for the output in slave1.output.
  this is node-proc. number 1 running on node c-9-374.local
  the total number of node-proc. spawned is            8
  parallel platform: MPP, or cluster with fast interconnect

 ridft (c-9-374.local) : TURBOMOLE V7.0.2( ) 15 Jan 2016 at 17:47:42
 Copyright (C) 2016 TURBOMOLE GmbH, Karlsruhe


    2017-11-07 22:18:45.065 



                                  r i d f t

                        DFT program with RI approximation 
                                for coulomb part 




                                                 
                                 References:     
                                                 
          TURBOMOLE:                             
              R. Ahlrichs, M. Baer, M. Haeser, H. Horn, and
              C. Koelmel
              Electronic structure calculations on workstation
              computers: the program system TURBOMOLE
              Chem. Phys. Lett. 162: 165 (1989)
          Density Functional:                              
              O. Treutler and R. Ahlrichs                      
              Efficient Molecular Numerical Integration Schemes
              J. Chem. Phys. 102: 346 (1995)                   
          Parallel Version:                                
              Performance of parallel TURBOMOLE for Density    
              Functional Calculations                          
              M. v. Arnim and R. Ahlrichs                      
              J. Comp. Chem. 19: 1746 (1998)                   
          RI-J Method:                                     
              Auxiliary Basis Sets to approximate Coulomb      
              Potentials                                       
              Chem. Phys. Lett. 240: 283 (1995)                
              K. Eichkorn, O. Treutler, H. Oehm, M. Haeser     
              and R. Ahlrichs                                  
              Chem. Phys. Lett. 242: 652 (1995)                
                                                           
              Auxiliary Basis Sets for Main Row Atoms and their
              Use to approximate Coulomb Potentials            
              K. Eichkorn, F. Weigend, O. Treutler and         
              R. Ahlrichs                                      
              Theo. Chem. Acc. 97: 119 (1997)                   
                                                           
              Accurate Coulomb-fitting basis sets for H to Rn 
              F. Weigend                                        
              Phys. Chem. Chem. Phys. 8: 1057 (2006)            
                                                           
          Multipole accelerated RI-J (MARI-J):             
              Fast evaluation of the Coulomb potential for     
              electron densities using multipole accelerated   
              resolution of identity approximation             
              M. Sierka, A. Hogekamp and R. Ahlrichs           
              J. Chem. Phys. 118: 9136 (2003)                  
          RI-JK Method:                                     
              A fully direct RI-HF algorithm: Implementation,
              optimised auxiliary basis sets, demonstration of
              accuracy and efficiency                         
              F. Weigend                                      
              Phys. Chem. Chem. Phys. 4: 4285 (2002)           
          Two-component HF and DFT with spin-orbit coupling:  
              Self-consistent treatment of spin-orbit         
              interactions with efficient Hartree-Fock and    
              density functional methods                      
              M. K. Armbruster, F. Weigend, C. van Wüllen and 
              W. Klopper                                      
              Phys. Chem. Chem. Phys. 10: 1748 (2008)         
          Relativistic all-electron 2c calculations           
              An efficient implementation of two-component    
              relativistic exact-decoupling methods for large 
              molecules                                       
              D. Peng, N. Middendorf, F. Weigend, M. Reiher   
              J. Chem. Phys. 138, 184105 (2013)               
                                         


 


              +--------------------------------------------------+
              |      general information about current run       |
              +--------------------------------------------------+

 

 SCF run will be profiled !


 DENSITY CONVERGENCE CHECK SWITCHED ON !
 SCF CONVERGENCE IF RMS(delta[D]) <     0.1000000000E-06

 TPSS meta-GGA functional
 exchange:    LDA + TPSS
 correlation: LDA (PW) + TPSS
 A DFT calculation using the RI-J approximation will be carried out.
 Allocatable memory for RI due to $ricore (MB):       14000


              +--------------------------------------------------+
              | Atomic coordinate, charge and isotop information |
              +--------------------------------------------------+

                    atomic coordinates            atom    charge  isotop
         -0.14230526   -2.44974723    7.80850844    c      6.000     0
          0.95815540   -2.13047120    5.46128660    c      6.000     0
         -0.36350885   -0.96463565    3.44779494    c      6.000     0
         -2.88283920   -0.12582590    3.92118513    c      6.000     0
         -3.97078987   -0.47298862    6.33968441    c      6.000     0
         -2.62880237   -1.61595886    8.26016433    c      6.000     0
         -4.26306550    1.05453880    1.93502230    c      6.000     0
         -3.22146886    1.39511696   -0.40392046    c      6.000     0
         -0.71045879    0.58842047   -0.96794343    c      6.000     0
          0.72718192   -0.59534367    0.96240898    c      6.000     0
          3.23900703   -1.39998773    0.39899148    c      6.000     0
          4.28133027   -1.05767008   -1.93938511    c      6.000     0
          2.90039173    0.12095192   -3.92611731    c      6.000     0
          0.37994928    0.95696506   -3.45358184    c      6.000     0
         -0.94326077    2.11915400   -5.46816691    c      6.000     0
          0.15712430    2.43844100   -7.81540330    c      6.000     0
          2.64537338    1.60916133   -8.26573807    c      6.000     0
          3.98861793    0.46905251   -6.34440589    c      6.000     0
          5.39238511    5.86136298   -3.05655019    c      0.000     0
          3.79569333    7.40629460   -4.51205468    c      0.000     0
          1.62785412    8.41360253   -3.34714926    c      0.000     0
          1.08064461    7.88579994   -0.84253629    c      0.000     0
          2.66178357    6.31416555    0.60750273    c      0.000     0
          4.83471653    5.32426275   -0.55534138    c      0.000     0
          2.05034265    5.70687277    3.25380038    c      0.000     0
         -0.44162616    5.88247632    4.15551268    c      0.000     0
         -1.02774456    5.27455218    6.63375981    c      0.000     0
          0.85174700    4.45430068    8.32178527    c      0.000     0
          3.35107630    4.29303769    7.42818424    c      0.000     0
          3.93570030    4.91410563    4.95358881    c      0.000     0
          0.21044179    3.73291700   10.91767711    c      0.000     0
         -2.06698263    4.50392716   12.06330166    c      0.000     0
         -2.67972576    3.70616434   14.46121427    c      0.000     0
         -1.09657085    2.18890946   15.78011877    n      0.000     0
          1.14563607    1.45739497   14.77932963    c      0.000     0
          1.82406439    2.20475236   12.38148392    c      0.000     0
         -1.92203554    1.06278273   18.24361867    c      0.000     0
         -3.04301692   -1.50991235   17.71740761    c      0.000     0
         -5.56313812   -1.75047826   16.95089349    c      0.000     0
         -6.49549743   -4.09269799   16.19371084    c      0.000     0
         -4.91588046   -6.21428899   16.19751240    c      0.000     0
         -2.42440581   -5.99125708   17.05136834    c      0.000     0
         -1.49138169   -3.64773269   17.80817739    c      0.000     0
         -5.80666410   -8.69278840   15.09525178    c      0.000     0
         -5.38962176   -8.61919320   12.29539953    n      0.000     0
         -3.04008066   -9.08606894   11.38658563    c      0.000     0
         -2.50996297   -8.73629651    8.86393390    c      0.000     0
         -4.38403102   -7.88358159    7.17796579    c      0.000     0
         -6.81379950   -7.48949111    8.19488015    c      0.000     0
         -7.26299912   -7.85109701   10.73067756    c      0.000     0
         -3.82398215   -7.39631061    4.50974449    c      0.000     0
         -5.41179543   -5.85031356    3.04545183    c      0.000     0
         -4.84469448   -5.32057684    0.54481296    c      0.000     0
         -2.67001144   -6.31795124   -0.60825409    c      0.000     0
         -1.09766783   -7.89045830    0.85016983    c      0.000     0
         -1.65517654   -8.41209717    3.35382075    c      0.000     0
         -2.04766377   -5.71599051   -3.25314067    c      0.000     0
          0.44871037   -5.88847450   -4.14282808    c      0.000     0
          1.04542144   -5.28195802   -6.61900559    c      0.000     0
         -0.82774710   -4.46778388   -8.31708703    c      0.000     0
         -3.33184380   -4.31221142   -7.43562957    c      0.000     0
         -3.92691024   -4.93035387   -4.96286963    c      0.000     0
          4.34637445    7.90118363   -7.18064674    c      0.000     0
          2.46198831    8.74024245   -8.86177754    c      0.000     0
          2.98422168    9.09671755  -11.38525167    c      0.000     0
          5.33597263    8.65074161  -12.29865137    n      0.000     0
          7.21896831    7.89740702  -10.73821341    c      0.000     0
          6.77758649    7.52875830   -8.20211458    c      0.000     0
          5.74752210    8.72826744  -15.09914896    c      0.000     0
          4.88494035    6.23838092  -16.19841909    c      0.000     0
          6.48664860    4.13340572  -16.18676723    c      0.000     0
          5.57990358    1.77962861  -16.93915073    c      0.000     0
          3.06393203    1.51101859  -17.70994338    c      0.000     0
          1.49047878    3.63245633  -17.80947771    c      0.000     0
          2.39749498    5.98731342  -17.05609058    c      0.000     0
          1.97095752   -1.07432178  -18.23259986    c      0.000     0
          1.14347026   -2.20021702  -15.76957107    n      0.000     0
          2.73189184   -3.70172859  -14.43903096    c      0.000     0
          2.11324766   -4.49969455  -12.04259726    c      0.000     0
         -0.17672964   -3.74592210  -10.91055512    c      0.000     0
         -1.79418479   -2.23273070  -12.38572617    c      0.000     0
         -1.10924675   -1.48435663  -14.78127038    c      0.000     0
          1.95830864   -6.41883446   -2.86427018    h      0.000     0
          3.00739502   -5.36019873   -7.20447052    h      0.000     0
         -4.84256929   -3.75083633   -8.70256433    h      0.000     0
         -5.88505013   -4.83649703   -4.36334117    h      0.000     0
          3.43204993   -5.72699476  -11.07323710    h      0.000     0
          4.48130487   -4.22194222  -15.36364618    h      0.000     0
         -2.30040009   -0.33419542  -16.00909669    h      0.000     0
         -3.58860712   -1.57176799  -11.65875476    h      0.000     0
          0.28513492   -0.95454716  -19.42078236    h      0.000     0
          3.34808864   -2.36988419  -19.05076662    h      0.000     0
          6.82899460    0.14921788  -16.90210227    h      0.000     0
          8.43639470    4.32190307  -15.56814195    h      0.000     0
          1.17683791    7.64404085  -17.09668265    h      0.000     0
         -0.45257939    3.41268949  -18.45168545    h      0.000     0
          7.75543057    9.07778741  -15.40000017    h      0.000     0
          4.61712855   10.30161298  -15.81663168    h      0.000     0
          1.60122712    9.76466506  -12.76026308    h      0.000     0
          0.54457731    9.07169247   -8.22988222    h      0.000     0
          8.35437190    6.96173898   -7.02847315    h      0.000     0
          9.05394303    7.61236092  -11.59702629    h      0.000     0
          0.37939143    9.66320718   -4.38778062    h      0.000     0
         -0.57909524    8.73693372    0.00783480    h      0.000     0
          6.06077293    4.04982162    0.47799149    h      0.000     0
          7.04284621    4.99259692   -3.90474470    h      0.000     0
         -1.95673336    6.41716205    2.88534101    h      0.000     0
         -2.98660765    5.35596461    7.22921932    h      0.000     0
          4.86607503    3.72570940    8.68743008    h      0.000     0
          5.89083458    4.81673711    4.34491710    h      0.000     0
         -3.37949249    5.74516259   11.10319247    h      0.000     0
         -4.41918843    4.23998835   15.39676798    h      0.000     0
          2.33299201    0.29502858   15.99980245    h      0.000     0
          3.60944343    1.53150417   11.64344571    h      0.000     0
         -0.23158688    0.92267636   19.42272746    h      0.000     0
         -3.28214419    2.36886374   19.07347470    h      0.000     0
         -6.79553549   -0.10726407   16.92047287    h      0.000     0
         -8.44812915   -4.25947615   15.57796475    h      0.000     0
         -1.22125781   -7.66089343   17.08671302    h      0.000     0
          0.45553077   -3.44933525   18.44564740    h      0.000     0
         -7.81912927   -9.01817373   15.39261984    h      0.000     0
         -4.69650537  -10.28010960   15.81379350    h      0.000     0
         -1.66598010   -9.76539752   12.76469619    h      0.000     0
         -0.59415163   -9.08471004    8.23647056    h      0.000     0
         -8.38367418   -6.90973750    7.01829584    h      0.000     0
         -9.09679559   -7.54800988   11.58588390    h      0.000     0
         -0.41333432   -9.66282923    4.40087850    h      0.000     0
          0.56307848   -8.74684194    0.00691281    h      0.000     0
         -6.06412946   -4.04590441   -0.49611925    h      0.000     0
         -7.06307913   -4.97533351    3.88564883    h      0.000     0
         -2.86223211    2.78009668   -5.18853790    h      1.000     0
          5.91150554   -0.18369329   -6.65805772    h      1.000     0
         -0.91032719    3.33644150   -9.32108965    h      1.000     0
          3.49681500    1.86741433  -10.11650807    h      1.000     0
          6.19979554   -1.68874979   -2.31698679    h      1.000     0
          4.35824949   -2.30705854    1.85577116    h      1.000     0
         -4.34031882    2.30327777   -1.86031897    h      1.000     0
         -6.18061464    1.68786823    2.31349212    h      1.000     0
         -5.89264324    0.18240506    6.65410725    h      1.000     0
         -3.48034981   -1.87400947   10.11092827    h      1.000     0
          2.87573685   -2.79505216    5.18066851    h      1.000     0
          0.92373631   -3.35162469    9.31287746    h      1.000     0
          4.56284957   -0.83689602   19.79105115    cl     0.000     0
         -0.08538217  -12.47792250   16.06084930    cl     0.000     0
         -0.02691329   12.43636629  -16.06243648    cl     0.000     0
         -4.51593353    0.73774549  -19.83306486    cl     0.000     0
 
       center of nuclear mass  :   -0.00143859   -0.00343177   -0.00106416
       center of nuclear charge:    0.00835953   -0.00339705   -0.00276124

              +--------------------------------------------------+
              |               basis set information              |
              +--------------------------------------------------+

              we will work with the 1s 3p 5d 7f 9g ... basis set
              ...i.e. with spherical basis functions...

   type   atoms  prim   cont   basis
   ---------------------------------------------------------------------------
    c       78     50     30   cc-pVTZ   [4s3p2d1f|18s5p2d1f]
    n        4     50     30   cc-pVTZ   [4s3p2d1f|18s5p2d1f]
    h       60     16     14   cc-pVTZ   [3s2p1d|5s2p1d]
    cl       4    106     34   cc-pVTZ   [5s4p2d1f|41s16p2d1f]
   ---------------------------------------------------------------------------
   total:  146   5484   3436
   ---------------------------------------------------------------------------

   total number of primitive shells          :  120
   total number of contracted shells         : 1228
   total number of cartesian basis functions : 3926
   total number of SCF-basis functions       : 3436


 integral neglect threshold       :  0.85E-14
 integral storage threshold THIZE :  0.10E-04
 integral storage threshold THIME :         5

 RI-J AUXILIARY BASIS SET information:

              we will work with the 1s 3p 5d 7f 9g ... basis set
              ...i.e. with spherical basis functions...

   type   atoms  prim   cont   basis
   ---------------------------------------------------------------------------
    c       78     70     49   cc-pVTZ   [6s4p3d1f1g|12s5p4d2f1g]
    n        4     70     49   cc-pVTZ   [6s4p3d1f1g|12s5p4d2f1g]
    h       60     16     11   cc-pVTZ   [3s1p1d|5s2p1d]
    cl       4     77     51   cc-pVTZ   [8s4p3d1f1g|14s5p5d2f1g]
   ---------------------------------------------------------------------------
   total:  146   7008   4882
   ---------------------------------------------------------------------------

   total number of primitive shells          :   83
   total number of contracted shells         : 1598
   total number of cartesian basis functions : 5974
   total number of SCF-basis functions       : 4882


 symmetry group of the molecule :   c1 

 the group has the following generators :
   c1(z)

    1 symmetry operations found

 there are 1 real representations :   a   

 maximum number of shells which are related by symmetry :  1


    mo occupation :
   irrep   mo's   occupied
    a     3436       60
 
 number of basis functions   :         3436
 number of occupied orbitals :           60
 
  
           ------------------
           density functional
           ------------------
 Dummy atoms with grid-point found.
 DFT quadrature threshold dgrenze tightened by factor 1/10.

 TPSS meta-GGA functional
 exchange:    LDA + TPSS
 correlation: LDA (PW) + TPSS
 Dummy atoms with grid-point found.
 DFT quadrature threshold dgrenze tightened by factor 1/10.

 Dummy atoms with grid-point found.
 DFT quadrature threshold dgrenze tightened by factor 1/10.

 grinp -> nfun, dfgga, dfhybrid 
           5 F F
 iterations will be done with small grid
  
 spherical integration : Lebedev's spherical grid
 spherical gridsize    :           5
    i.e. gridpoints    :         590
 value for diffuse not defined
 radial integration    : Chebyshev 2nd kind (scaling 3)
 radial gridsize       :           8
 integration cells     :         146
 partition function    : becke
 partition sharpness   :           3
  
 found dummy atom(s) with basis: included in dft

 <rddim> : input of entry tasksize
           from data group '$pardft' failed !

               Default values taken

 <rddim> : input of entry memdiv
           from data group '$pardft' failed !

               Default values taken
  RIDFT: memory allocation for DFT gridpoints
  MEMORY is divided by 1 as DEFAULT
 Each node can hold at most  the            1 -th part
 of the gridpoints    

 biggest AO integral is expected to be    10.299856942
  
           ------------------------
               RI-J - INFORMATION
           ------------------------
 
 
 **************************************************
 *      MEMORY ALLOCATION FOR PARALLEL RI-DFT     *
 **************************************************
 
 
MEMORY FOR (MU NU/ ALPHA), SEQUENTIAL RUN              13817 MByte
 
            DIFFERENCE IN MEMORY NEED:       DIAG./SLAVE  
 
      TOTAL DIFFERENCE :                    654 MByte
 
      difference in xcore:                  184 MByte
      difference in fatmat:                 173 MByte
      getcor calls skipped by slaves:       298 MByte
 
 
           Integral memory available for diagonal.     13817 MByte
 
           Integral memory available for slave             0 MByte
 
         MEMORY FOR (MU NU/ ALPHA) ON DIAGONALIZER     13817 MByte
 
         MEMORY FOR (MU NU/ ALPHA) ON ONE SLAVE            0 MByte
 
         TOTAL MEMORY FOR (MU NU/ ALPHA),ALL NODES     13817 MByte
 
 Contributions to RI integral batches: 
  neglected integral batches:      509220
  direct contribution:             158901
  memory contribution:       86485
 Memory core needed for (P|Q) and Cholesky    182 MByte
 Memory core minimum needed except of (P|Q)     5 MByte
 Total minimum memory core needed (sum)       186 MByte
     number of direct tasks:         160
  
 ****************************************
 Memory allocated for RI-J 14003 MByte
 ****************************************
                                            

          ------------------------
          nuclear repulsion energy  :   1136.99888334    
          ------------------------

 
          -----------------
          -S integrals
          -----------------

 1e-integrals will be neglected if expon. factor < 0.851238E-15
 
          -----------------
          -T+V integrals
          -----------------

 1e-integrals will be neglected if expon. factor < 0.851238E-15
 Difference densities >>NOT<< switched on in parallel ridft!

 automatic virtual orbital shift switched on 
      shift if e(lumo)-e(homo) < 0.10000000    


 DIIS switched on: error vector is FDS-SDF
 Max. Iterations for DIIS is     :   4
 DIIS matrix (see manual) 
    Scaling factor of diagonals  :  1.200
    threshold for scaling factor :  0.000

 scf convergence criterion : increment of total energy < .1000000D-08
                  and increment of one-electron energy < .1000000D-05


 <geterg> : there is no data group $energy 

  MOs are in ASCII format !


 reading orbital data $scfmo  from file mos . 

 orbital characterization : expanded
 
 mo provided and orthogonalized by Cholesky decomposition

 DSCF restart information will be dumped onto file mos


 Starting SCF iterations


 ITERATION  ENERGY          1e-ENERGY        2e-ENERGY     RMS[dD(SAO)]   TOL
   1  -691.51485639333    -3163.1464847     1334.6327450    0.000D+00 0.849D-14
                            Exc = -99.8345269799     Coul =  1434.46727198    
                              N = 119.99940819    
                            current damping = 0.700
 
          max. resid. norm for Fia-block=  2.578D-01 for orbital     11a         
          max. resid. fock norm         =  1.435D+01 for orbital   1944a         

 ITERATION  ENERGY          1e-ENERGY        2e-ENERGY     RMS[dD(SAO)]   TOL
   2  -693.08580309004    -3182.4899385     1352.4052521    0.971D-03 0.849D-14
                            Exc = -101.470893465     Coul =  1453.87614558    
                              N = 119.99952842    
                            current damping = 0.650
 
          Norm of current diis error:  3.5100    
          max. resid. norm for Fia-block=  1.188D-01 for orbital     20a         
          max. resid. fock norm         =  1.360D-01 for orbital     20a         

 ITERATION  ENERGY          1e-ENERGY        2e-ENERGY     RMS[dD(SAO)]   TOL
   3  -693.42099873352    -3186.8425057     1356.4226236    0.438D-03 0.849D-14
                            Exc = -101.966726908     Coul =  1458.38935055    
                              N = 119.99959794    
                            current damping = 0.550
 
          Norm of current diis error:  1.7138    
          max. resid. norm for Fia-block=  5.870D-02 for orbital     20a         
          max. resid. fock norm         =  6.527D-02 for orbital     20a         

 ITERATION  ENERGY          1e-ENERGY        2e-ENERGY     RMS[dD(SAO)]   TOL
   4  -693.51684279576    -3190.6724655     1360.1567394    0.251D-03 0.849D-14
                            Exc = -102.288965195     Coul =  1462.44570456    
                              N = 119.99963916    
                            current damping = 0.450
 
          Norm of current diis error: 0.65419    
          max. resid. norm for Fia-block=  2.291D-02 for orbital     20a         
          max. resid. fock norm         =  2.587D-02 for orbital     20a         

 ITERATION  ENERGY          1e-ENERGY        2e-ENERGY     RMS[dD(SAO)]   TOL
   5  -693.53257601110    -3191.4022875     1360.8708281    0.129D-03 0.849D-14
                            Exc = -102.407638903     Coul =  1463.27846703    
                              N = 119.99965307    
                            current damping = 0.350
 
          Norm of current diis error: 0.26225    
          max. resid. norm for Fia-block=  8.017D-03 for orbital     20a         
          max. resid. fock norm         =  1.018D-02 for orbital     20a         
          mo-orthogonalization: Cholesky decomposition

 ITERATION  ENERGY          1e-ENERGY        2e-ENERGY     RMS[dD(SAO)]   TOL
   6  -693.53455988737    -3192.5124580     1361.9790148    0.551D-04 0.849D-14
                            Exc = -102.467509584     Coul =  1464.44652440    
                              N = 119.99965813    
                            current damping = 0.250
 
          Norm of current diis error: 0.14727    
          max. resid. norm for Fia-block=  3.325D-03 for orbital     59a         
          max. resid. fock norm         =  5.771D-03 for orbital   3340a         

 ITERATION  ENERGY          1e-ENERGY        2e-ENERGY     RMS[dD(SAO)]   TOL
   7  -693.53527790090    -3192.1769752     1361.6428140    0.228D-04 0.849D-14
                            Exc = -102.472795859     Coul =  1464.11560983    
                              N = 119.99965869    
                            current damping = 0.300
 
          Norm of current diis error: 0.52317E-01
          max. resid. norm for Fia-block=  1.597D-03 for orbital     57a         
          max. resid. fock norm         =  2.406D-03 for orbital   3342a         

 ITERATION  ENERGY          1e-ENERGY        2e-ENERGY     RMS[dD(SAO)]   TOL
   8  -693.53532545538    -3192.3136639     1361.7794552    0.762D-05 0.849D-14
                            Exc = -102.473556769     Coul =  1464.25301192    
                              N = 119.99965844    
                            current damping = 0.350
 
          Norm of current diis error: 0.38413E-01
          max. resid. norm for Fia-block=  6.813D-04 for orbital     57a         
          max. resid. fock norm         =  1.229D-03 for orbital   3351a         

 ITERATION  ENERGY          1e-ENERGY        2e-ENERGY     RMS[dD(SAO)]   TOL
   9  -693.53538237949    -3192.2802683     1361.7460026    0.359D-05 0.849D-14
                            Exc = -102.474590897     Coul =  1464.22059352    
                              N = 119.99965865    
                            current damping = 0.400
 
          Norm of current diis error: 0.70677E-02
          max. resid. norm for Fia-block=  2.852D-04 for orbital     60a         
          max. resid. fock norm         =  4.572D-04 for orbital     18a         

 ITERATION  ENERGY          1e-ENERGY        2e-ENERGY     RMS[dD(SAO)]   TOL
  10  -693.53538196017    -3192.3103259     1361.7760606    0.130D-05 0.849D-14
                            Exc = -102.475600772     Coul =  1464.25166135    
                              N = 119.99965865    
                            current damping = 0.450
 
          Norm of current diis error: 0.78313E-02
          max. resid. norm for Fia-block=  1.084D-04 for orbital     60a         
          max. resid. fock norm         =  1.805D-04 for orbital   3346a         
          mo-orthogonalization: Cholesky decomposition

 ITERATION  ENERGY          1e-ENERGY        2e-ENERGY     RMS[dD(SAO)]   TOL
  11  -693.53538406060    -3192.2989681     1361.7647007    0.514D-06 0.849D-14
                            Exc = -102.475406028     Coul =  1464.24010674    
                              N = 119.99965867    
                            current damping = 0.500
 
          Norm of current diis error: 0.27994E-02
          max. resid. norm for Fia-block=  4.913D-05 for orbital     58a         
          max. resid. fock norm         =  1.222D-04 for orbital     11a         

 ITERATION  ENERGY          1e-ENERGY        2e-ENERGY     RMS[dD(SAO)]   TOL
  12  -693.53538434936    -3192.2928100     1361.7585423    0.237D-06 0.849D-14
                            Exc = -102.475169549     Coul =  1464.23371186    
                              N = 119.99965865    
                            current damping = 0.350
 
          Norm of current diis error: 0.84545E-03
          max. resid. norm for Fia-block=  2.097D-05 for orbital     58a         
          max. resid. fock norm         =  3.957D-05 for orbital     10a         

 ITERATION  ENERGY          1e-ENERGY        2e-ENERGY     RMS[dD(SAO)]   TOL
  13  -693.53538436975    -3192.2931479     1361.7588802    0.103D-06 0.849D-14
                            Exc = -102.475164978     Coul =  1464.23404514    
                              N = 119.99965865    
                            current damping = 0.400
 
          Norm of current diis error: 0.44289E-03
          max. resid. norm for Fia-block=  8.405D-06 for orbital     59a         
          max. resid. fock norm         =  1.349D-05 for orbital   3339a         

 DENSITY CONVERGED !


 ITERATION  ENERGY          1e-ENERGY        2e-ENERGY     RMS[dD(SAO)]   TOL
  14  -693.53538437721    -3192.2923502     1361.7580825    0.396D-07 0.849D-14
                            Exc = -102.475146649     Coul =  1464.23322918    
                              N = 119.99965865    
                            current damping = 0.450
 
          Norm of current diis error: 0.59340E-04
          max. resid. norm for Fia-block=  1.785D-06 for orbital     60a         
          max. resid. fock norm         =  3.750D-06 for orbital   3341a         

 DENSITY CONVERGED !


 ITERATION  ENERGY          1e-ENERGY        2e-ENERGY     RMS[dD(SAO)]   TOL
  15  -693.53538437729    -3192.2923958     1361.7581280    0.830D-08 0.849D-14
                            Exc = -102.475145276     Coul =  1464.23327331    
                              N = 119.99965865    
                            current damping = 0.500
 
          Norm of current diis error: 0.44718E-04
          max. resid. norm for Fia-block=  7.108D-07 for orbital     58a         
          max. resid. fock norm         =  1.627D-06 for orbital     10a         
          mo-orthogonalization: Cholesky decomposition

 ENERGY & DENSITY CONVERGED !


 ITERATION  ENERGY          1e-ENERGY        2e-ENERGY     RMS[dD(SAO)]   TOL
  16  -693.53501173221    -3192.2924069     1361.7585119    0.311D-08 0.849D-14
                            Exc = -102.474774553     Coul =  1464.23328642    
                              N = 119.99995914    
                            current damping = 0.350
 
          Norm of current diis error: 0.10307E-04
          max. resid. norm for Fia-block=  1.780D-07 for orbital     60a         
          max. resid. fock norm         =  3.991D-07 for orbital   3340a         

 End of SCF iterations

   convergence criteria satisfied after   16 iterations


                  ------------------------------------------ 
                 |  total energy      =   -693.53501173221  |
                  ------------------------------------------ 
                 :  kinetic energy    =    689.49009551662  :
                 :  potential energy  =  -1383.02510724883  :
                 :  virial theorem    =      1.99416768275  :
                 :  wavefunction norm =      1.00000000000  :
                  .......................................... 


 <geterg> : there is no data group $energy 


 <skperg> : $end is missing 


 orbitals $scfmo  will be written to file mos

    irrep                 56a         57a         58a         59a         60a   
 eigenvalues H         -0.25880    -0.25237    -0.22148    -0.20838    -0.19045
            eV          -7.0423     -6.8675     -6.0267     -5.6702     -5.1825
 occupation              2.0000      2.0000      2.0000      2.0000      2.0000 

    irrep                 61a         62a         63a         64a         65a   
 eigenvalues H         -0.07823    -0.06454    -0.05443    -0.01543    -0.01429
            eV          -2.1288     -1.7562     -1.4811     -0.4199     -0.3890
 
 
 ! grave: sending quit signal to master process
 
 
 
 
 ==============================================================================
                           electrostatic moments
 ==============================================================================

 reference point for electrostatic moments:    0.00000   0.00000   0.00000

 
              nuc           elec       ->  total
 ------------------------------------------------------------------------------
                          charge      
 ------------------------------------------------------------------------------
         120.000000    -120.000000      -0.000000
 
 ------------------------------------------------------------------------------
                       dipole moment  
 ------------------------------------------------------------------------------
   x       1.003144      -1.003155      -0.000011
   y      -0.407646       0.407448      -0.000198
   z      -0.331349       0.331321      -0.000028
 
   | dipole moment | =     0.0002 a.u. =     0.0005 debye 
 
 ------------------------------------------------------------------------------
                     quadrupole moment
 ------------------------------------------------------------------------------
  xx     963.683356   -1033.431413     -69.748057
  yy     273.316443    -352.931433     -79.614990
  zz    3316.607179   -3385.540836     -68.933657
  xy    -103.373491      98.790310      -4.583181
  xz    -857.814307     856.328926      -1.485380
  yz    -726.196683     722.394945      -3.801739
 
     1/3  trace=     -72.765568
     anisotropy=      14.800358
 
 ==============================================================================
 

    ridft profiling
  --------------------------------------------------------------------
             module   cpu total (s)       %  wall total (s)       %

               RIDFT          4501.2  100.00          4540.8  100.00
         Ridft_b_scf           155.9    3.46           155.9    3.43
        b_scf_prelim             0.0    0.00             0.0    0.00
        b_scf_molinp             0.0    0.00             0.0    0.00
         b_scf_init0             0.0    0.00             0.0    0.00
        b_scf_auxbas             0.0    0.00             0.0    0.00
      b_scf_symmetry             0.0    0.00             0.0    0.00
         b_scf_cosmo             0.0    0.00             0.0    0.00
        b_scf_params             4.2    0.09             4.2    0.09
          b_scf_ri-j           109.2    2.43           109.1    2.40
    b_scf_ri-j_auxpq           109.1    2.42           109.1    2.40
     ri-j_auxpq_chol             6.5    0.14             6.5    0.14
         b_scf_1elec             2.1    0.05             2.0    0.05
       b_scf_moinput            40.5    0.90            40.4    0.89
     moinput_orthmos            40.2    0.89            40.2    0.89
    b_scf_dft-dstmax             0.0    0.00             0.0    0.00
           Ridft_scf          4344.3   96.52          4383.8   96.54
          Scf_b_loop             0.0    0.00             0.0    0.00
                noga             0.0    0.00             0.0    0.00
            Scf_loop          4337.6   96.37          4376.1   96.37
     scf_loop_mkdmat             9.3    0.21            13.4    0.30
       scf_loop_ri-j           694.6   15.43           698.1   15.37
      parlp1.bc.dens            10.6    0.24            10.7    0.24
        parlp1.gs.gp             5.4    0.12             5.4    0.12
        parlp2.bc.gq             0.0    0.00             0.0    0.00
        scf_loop_dft          3163.5   70.28          3164.9   69.70
      pardft.bc.dens             0.0    0.00             0.0    0.00
        dft_grid_con            59.7    1.33            59.9    1.32
          dft_xcmrhf          3051.9   67.80          3052.0   67.21
          dft_getval            92.7    2.06            92.6    2.04
          funct2 dst             2.3    0.05             2.3    0.05
      funct2 f2loop1            14.6    0.32            14.3    0.32
      funct2 f2loop2            55.1    1.23            55.4    1.22
          funct2 s+c            19.5    0.43            19.3    0.43
        funct2 cmf_2            17.0    0.38            16.8    0.37
          dft_mkdens          1644.1   36.53          1644.1   36.21
        dft_mgga-fun             3.0    0.07             3.0    0.07
          dft_mkfock          1310.7   29.12          1310.9   28.87
     pardft.red.fock           318.0    7.07           319.3    7.03
     scf_loop_energy             0.1    0.00             0.4    0.01
     scf_loop_mkfock             0.2    0.00             0.2    0.00
       scf_loop_diis           184.1    4.09           199.3    4.39
       scf_loop_diag           147.9    3.28           148.8    3.28
         diag_tritrn            51.1    1.14            51.9    1.14
          diag_rdiag            95.7    2.13            95.8    2.11
     scf_loop_modump            93.2    2.07           106.4    2.34
      scf_loop_ortho            41.9    0.93            41.9    0.92
          Scf_a_loop             6.7    0.15             7.7    0.17
         Ridft_a_scf             0.9    0.02             1.1    0.02
         a_scf_fanal             0.9    0.02             0.9    0.02
 


    ------------------------------------------------------------------------
         total  cpu-time :  1 hours 15 minutes and 11 seconds
         total wall-time :  1 hours 15 minutes and 50 seconds
    ------------------------------------------------------------------------


   ****  ridft : all done  ****


    2017-11-07 23:34:35.453 

