 operating system is UNIX !

 ridft (c-12-254.gp.local) : TURBOMOLE V7.2 ( 21454 ) 4 Oct 2017 at 12:48:15
 Copyright (C) 2017 TURBOMOLE GmbH, Karlsruhe


    2018-04-28 11:01:49.016 



                                  r i d f t

                        DFT program with RI approximation 
                                for coulomb part 




                                                 
                                 References:     
                                                 
          TURBOMOLE:                             
              R. Ahlrichs, M. Baer, M. Haeser, H. Horn, and
              C. Koelmel
              Electronic structure calculations on workstation
              computers: the program system TURBOMOLE
              Chem. Phys. Lett. 162: 165 (1989)
          Density Functional:                              
              O. Treutler and R. Ahlrichs                      
              Efficient Molecular Numerical Integration Schemes
              J. Chem. Phys. 102: 346 (1995)                   
          Parallel Version:                                
              Performance of parallel TURBOMOLE for Density    
              Functional Calculations                          
              M. v. Arnim and R. Ahlrichs                      
              J. Comp. Chem. 19: 1746 (1998)                   
          RI-J Method:                                     
              Auxiliary Basis Sets to approximate Coulomb      
              Potentials                                       
              Chem. Phys. Lett. 240: 283 (1995)                
              K. Eichkorn, O. Treutler, H. Oehm, M. Haeser     
              and R. Ahlrichs                                  
              Chem. Phys. Lett. 242: 652 (1995)                
                                                           
              Auxiliary Basis Sets for Main Row Atoms and their
              Use to approximate Coulomb Potentials            
              K. Eichkorn, F. Weigend, O. Treutler and         
              R. Ahlrichs                                      
              Theo. Chem. Acc. 97: 119 (1997)                   
                                                           
              Accurate Coulomb-fitting basis sets for H to Rn 
              F. Weigend                                        
              Phys. Chem. Chem. Phys. 8: 1057 (2006)            
                                                           
          Multipole accelerated RI-J (MARI-J):             
              Fast evaluation of the Coulomb potential for     
              electron densities using multipole accelerated   
              resolution of identity approximation             
              M. Sierka, A. Hogekamp and R. Ahlrichs           
              J. Chem. Phys. 118: 9136 (2003)                  
          RI-JK Method:                                     
              A fully direct RI-HF algorithm: Implementation,
              optimised auxiliary basis sets, demonstration of
              accuracy and efficiency                         
              F. Weigend                                      
              Phys. Chem. Chem. Phys. 4: 4285 (2002)           
          Two-component HF and DFT with spin-orbit coupling:  
              Self-consistent treatment of spin-orbit         
              interactions with efficient Hartree-Fock and    
              density functional methods                      
              M. K. Armbruster, F. Weigend, C. van Wüllen and 
              W. Klopper                                      
              Phys. Chem. Chem. Phys. 10: 1748 (2008)         
          Relativistic all-electron 2c calculations           
              An efficient implementation of two-component    
              relativistic exact-decoupling methods for large 
              molecules                                       
              D. Peng, N. Middendorf, F. Weigend, M. Reiher   
              J. Chem. Phys. 138, 184105 (2013)               
                                         




              +--------------------------------------------------+
              |      general information about current run       |
              +--------------------------------------------------+

 

 DENSITY CONVERGENCE CHECK SWITCHED ON !
 SCF CONVERGENCE IF RMS(delta[D]) <     0.1000000000E-06

 A HF calculation using the RI-JK approximation will be carried out.
 Allocatable memory for RI due to $ricore (MB):                   500


              +--------------------------------------------------+
              | Atomic coordinate, charge and isotop information |
              +--------------------------------------------------+

                    atomic coordinates            atom    charge  isotop
         -0.74080752   -0.72701305    0.14375397    o      8.000     0
         -1.72241139    0.78199143    0.33570753    h      1.000     0
          0.99192447   -0.12941732    0.17104169    h      1.000     0
          4.15306097   -4.24319765   -0.43522897    c      6.000     0
          5.38131274   -5.87046327   -0.68640265    h      1.000     0
          2.86620289   -4.09679668   -2.02990323    h      1.000     0
          2.99462692   -4.50548406    1.24097391    h      1.000     0
          5.57929790   -1.79030880   -0.18466355    c      6.000     0
          4.48946365    0.24170399    0.11124628    o      8.000     0
          8.13162461   -1.97456217   -0.30677382    n      7.000     0
          8.88931338   -3.69522202   -0.55152188    h      1.000     0
          9.77236442    0.20234651   -0.09995637    c      6.000     0
          8.56956483    1.84319655    0.15474963    h      1.000     0
         11.03014630    0.02952124    1.51782472    h      1.000     0
         10.89574183    0.44691579   -1.80497913    h      1.000     0
 
       center of nuclear mass  :    5.03170132   -1.32561363   -0.11556198
       center of nuclear charge:    5.07670766   -1.35774251   -0.12158035

              +--------------------------------------------------+
              |               basis set information              |
              +--------------------------------------------------+

              we will work with the 1s 3p 5d 7f 9g ... basis set
              ...i.e. with spherical basis functions...

   type   atoms  prim   cont   basis
   ---------------------------------------------------------------------------
    o        2     77     57   def2-QZVP   [7s4p3d2f1g|15s8p3d2f1g]
    h        9     33     30   def2-QZVP   [4s3p2d1f|7s3p2d1f]
    c        3     77     57   def2-QZVP   [7s4p3d2f1g|15s8p3d2f1g]
    n        1     77     57   def2-QZVP   [7s4p3d2f1g|15s8p3d2f1g]
   ---------------------------------------------------------------------------
   total:   15    759    612
   ---------------------------------------------------------------------------

   total number of primitive shells          :  100
   total number of contracted shells         :  192
   total number of cartesian basis functions :  747
   total number of SCF-basis functions       :  612


 integral neglect threshold       :  0.45E-13
 integral storage threshold THIZE :  0.10E-04
 integral storage threshold THIME :         5

 RI-JK AUXILIARY BASIS SET information:

              we will work with the 1s 3p 5d 7f 9g ... basis set
              ...i.e. with spherical basis functions...

   type   atoms  prim   cont   basis
   ---------------------------------------------------------------------------
    o        2     97     77   def2-QZVP   [10s8p4d2f1g|14s10p6d2f1g]
    h        9     20     18   def2-QZVP   [2s2p2d|4s2p2d]
    c        3     97     75   def2-QZVP   [10s8p5d1f1g|14s10p6d2f1g]
    n        1     97     77   def2-QZVP   [10s8p4d2f1g|14s10p6d2f1g]
   ---------------------------------------------------------------------------
   total:   15    762    618
   ---------------------------------------------------------------------------

   total number of primitive shells          :  107
   total number of contracted shells         :  204
   total number of cartesian basis functions :  726
   total number of SCF-basis functions       :  618


 symmetry group of the molecule :   c1 

 the group has the following generators :
   c1(z)

    1 symmetry operations found

 there are 1 real representations :   a   

 maximum number of shells which are related by symmetry :  1


    mo occupation :
   irrep   mo's   occupied
    a      612       25
 
 number of basis functions   :                    612
 number of occupied orbitals :                     25
 

 biggest AO integral is expected to be     6.990327543
  
           ------------------------
               RI-JK - INFORMATION
           ------------------------
 Contributions to RI integral batches: 
  neglected integral batches:                  3862
  direct contribution:                        12628
  memory contribution:                  2038
 Memory core needed for (P|Q) and Cholesky      3 MByte
 Memory core minimum needed except of (P|Q)     1 MByte
 Total minimum memory core needed (sum)         4 MByte
  
 ****************************************
 Memory allocated for RI-J    40 MByte
 ****************************************
                                            
 total memory allocated for calculation of  (Q|P)**(-1/2) :    5 MiB

  forming (P|Q)**(-1/2) 
 eigenvalues of original matrix 
 smallest =0.1621580681380E-06  largest = 29.98273153415    
  The symmetry information takes                      1  MB

          ------------------------
          nuclear repulsion energy  :   246.860742259    
          ------------------------


         -----------------
         -S,T+V- integrals
         -----------------

 1e-integrals will be neglected if expon. factor < 0.447384E-14
 
   Difference densities algorithm switched on.
   The maximal number of linear combinations of
   difference densities is                    20 .

 DIIS switched on: error vector is FDS-SDF
 Max. Iterations for DIIS is     :   5
 DIIS matrix (see manual) 
    Scaling factor of diagonals  :  1.200
    threshold for scaling factor :  0.000

 scf convergence criterion : increment of total energy < .1000000D-08
                  and increment of one-electron energy < .1000000D-05

  MOs are in ASCII format !


 automatic virtual orbital shift switched on 
      shift if e(lumo)-e(homo) < 0.10000000    


 reading orbital data $scfmo  from file mos
 orbital characterization : scfconv=9

 DSCF restart information will be dumped onto file mos


 Starting SCF iterations

 
 BLOCKING OF MOS FOR RI-K
 
 
 occupied MOs partitioned into blocks of maximum length 25
 this requires 89 MiB core memory.
 
            MULTIPLE PASS Statistics 
 ----------------------------------------------------
  pass       irrep     lambda      batch : MO  to  MO
 ----------------------------------------------------
   1       1  ->  1    1  -> 25             1  ->  25



 ENERGY & DENSITY CONVERGED !


 ITERATION  ENERGY          1e-ENERGY        2e-ENERGY     RMS[dD(SAO)]   TOL
   1  -323.12277472448    -931.43526909     361.45175210    0.000D+00 0.446D-13
                           RI-K = -41.7645608972     Coul =  403.216312999    
                            current damping = 0.700
 
          max. resid. norm for Fia-block=  2.600D-01 for orbital      2a         
          max. resid. fock norm         =  8.043D-01 for orbital    612a         

 End of SCF iterations

   convergence criteria satisfied after     1 iterations


                  ------------------------------------------ 
                 |  total energy      =   -323.12277472448  |
                  ------------------------------------------ 
                 :  kinetic energy    =    323.55137979019  :
                 :  potential energy  =   -646.67415451467  :
                 :  virial theorem    =      2.00132644648  :
                 :  wavefunction norm =      1.00000000000  :
                  .......................................... 


 orbitals $scfmo  will be written to file mos

    irrep                 21a         22a         23a         24a         25a   
 eigenvalues H         -0.50668    -0.55188    -0.40875    -0.43624    -0.46414
            eV         -13.7875    -15.0175    -11.1227    -11.8707    -12.6299
 occupation              2.0000      2.0000      2.0000      2.0000      2.0000 

    irrep                 26a         27a         28a         29a         30a   
 eigenvalues H          0.18382     0.10258     0.12961     0.14404     0.15851
            eV           5.0020      2.7913      3.5270      3.9196      4.3133
 
 
 
 
 ==============================================================================
                           electrostatic moments
 ==============================================================================

 reference point for electrostatic moments:    0.00000   0.00000   0.00000

 
              nuc           elec       ->  total
 ------------------------------------------------------------------------------
                          charge      
 ------------------------------------------------------------------------------
          50.000000     -50.000000      -0.000000
 
 ------------------------------------------------------------------------------
                       dipole moment  
 ------------------------------------------------------------------------------
   x     253.835383    -252.236768       1.598615
   y     -67.887126      67.430396      -0.456730
   z      -6.079017       5.957436      -0.121581
 
   | dipole moment | =     1.6670 a.u. =     4.2371 debye 
 
 ------------------------------------------------------------------------------
                     quadrupole moment
 ------------------------------------------------------------------------------
  xx    1934.680093   -1945.622111     -10.942018
  yy     248.919650    -273.390365     -24.470715
  zz      14.487688     -43.331570     -28.843882
  xy    -323.364397     315.661794      -7.702603
  xz     -49.911708      48.681898      -1.229810
  yz      25.118241     -24.431246       0.686996
 
     1/3  trace=     -21.418872
     anisotropy=      21.101113
 
 ==============================================================================
 


    ------------------------------------------------------------------------
         total  cpu-time :  17.67 seconds
         total wall-time :  19.46 seconds
    ------------------------------------------------------------------------

   ****  ridft : all done  ****


    2018-04-28 11:02:08.435 

