
   OpenMP run-time library returned nthreads = 28

 ricc2 (c-15-42) : TURBOMOLE V7.3 ( 22142 ) 4 Jul 2018 at 18:12:42
 Copyright (C) 2018 TURBOMOLE GmbH, Karlsruhe


    2019-04-01 21:37:22.671 



                              R I C C 2 - PROGRAM

                          the quantum chemistry groups
                             at the universities in
                           Karlsruhe, Bochum & Mainz
                                   Germany



   *-----------------------------------------------------------------------*
   |                     program will use 28 thread(s)                     |
   *-----------------------------------------------------------------------*


              +--------------------------------------------------+
              | Atomic coordinate, charge and isotop information |
              +--------------------------------------------------+

                    atomic coordinates            atom    charge  isotop
          4.37780247    0.08598414    0.13579268    o      8.000     0
          5.07318923   -0.99508548    1.41613566    h      1.000     0
          5.25653470   -0.80526723   -2.24934238    c      6.000     0
          4.44240838    0.42512153   -3.67252165    h      1.000     0
          7.30870866   -0.70928264   -2.38977157    h      1.000     0
          4.63605708   -2.73254127   -2.62555026    h      1.000     0
 
       center of nuclear mass  :    4.83142640   -0.38512225   -1.00411394
       center of nuclear charge:    4.89011063   -0.45308434   -1.09341226

              +--------------------------------------------------+
              |               basis set information              |
              +--------------------------------------------------+

              we will work with the 1s 3p 5d 7f 9g ... basis set
              ...i.e. with spherical basis functions...

   type   atoms  prim   cont   basis
   ---------------------------------------------------------------------------
    o        1     77     55   cc-pVQZ   [5s4p3d2f1g|21s6p3d2f1g]
    h        4     32     30   cc-pVQZ   [4s3p2d1f|6s3p2d1f]
    c        1     77     55   cc-pVQZ   [5s4p3d2f1g|21s6p3d2f1g]
   ---------------------------------------------------------------------------
   total:    6    282    230
   ---------------------------------------------------------------------------

   total number of primitive shells          :   78
   total number of contracted shells         :   70
   total number of cartesian basis functions :  280
   total number of SCF-basis functions       :  230


 symmetry group of the molecule :   c1 

 the group has the following generators :
   c1(z)

    1 symmetry operations found

 there are 1 real representations :   a   


   =========================================================================


     restricted closed shell calculation for the wavefunction models:
               MP2        - Second Order Moeller Plesset PT


     global parameters for ricc2 program:

        hard restart (reuse of interm.) :  disabled
        soft restart (reuse of vectors) :  disabled
        threshold for vector function   :    0.100000E-05
        convergence threshold energy    :    0.100000E-06
        linear dependence threshold     :    0.100000E-13
        global print level              :      1
        maximum number of iterations    :   300
        maximum number DIIS vectors     :    10
        max. dim. of reduced space      :   100
        core memory limit (MB)          : *****


     MP2 energy only: Energy will be calculated directly from T2 amplitudes!

     Scratch Directory : 


   =========================================================================

    der. integral neglect threshold  :  0.10E-07
    integral neglect threshold       :  0.12E-10
    integral storage threshold THIZE :  0.10E-04
    integral storage threshold THIME :         5


                  +------------------------------------------+
                  |     Auxiliary basis set information      |
                  +------------------------------------------+

              we will work with the 1s 3p 5d 7f 9g ... basis set
              ...i.e. with spherical basis functions...

   type   atoms  prim   cont   basis
   ---------------------------------------------------------------------------
    o        1    132    132   cc-pVQZ   [8s7p6d5f3g1h|8s7p6d5f3g1h]
    h        4     55     55   cc-pVQZ   [5s4p3d2f1g|5s4p3d2f1g]
    c        1    132    132   cc-pVQZ   [8s7p6d5f3g1h|8s7p6d5f3g1h]
   ---------------------------------------------------------------------------
   total:    6    484    484
   ---------------------------------------------------------------------------

   total number of primitive shells          :   75
   total number of contracted shells         :  120
   total number of cartesian basis functions :  642
   total number of SCF-basis functions       :  484


 maximum number of shells which are related by symmetry :  1


 The symmetry information takes   1 MB

*---------------------------------------------------------------------*
|               simplified C1 algorithm will be applied               |
*---------------------------------------------------------------------*
  MOs are in ASCII format !


 reading orbital data $scfmo  from file mos
 orbital characterization : scfconv=9



              +--------------------------------------------+
              | list of orbitals that will be kept frozen: |
              +--------------------------------------------+
              |   irrep   index      energy     occ/vir    |
              +--------------------------------------------+
              |   a         1      -20.5537     occupied   |
              |   a         2      -11.2688     occupied   |
              +--------------------------------------------+



   Molecular Orbital Statistic:
   ============================

   -----------------------------
   orbitals in total:
   -----------------------------
    frozen occupied :      2
    active occupied :      7
    active virtual  :    221
    frozen virtual  :      0
    all together    :    230
   -----------------------------


     time in riccmos       cpu:  2.17 sec    wall:  0.10 sec    ratio: 22.1

     total memory allocated for calculation of (Q|P)**(-1/2) : 3 MiB


     calculation of (P|Q) ...
     time in lp2sym        cpu:  1.70 sec    wall:  0.06 sec    ratio: 26.6


     calculation of the Cholesky decomposition of (P|Q)**(-1) ...
     time in invmetri      cpu:  0.93 sec    wall:  0.03 sec    ratio: 27.3

   threshold for RMS(d[D]) in SCF was     :  0.10E-06
   integral neglect threshold             :  0.12E-10
   derivative integral neglect threshold  :  0.10E-07


   =========================================================================

     Energy of reference wave function is  -115.0986459380000
     Maximum orbital residual is           0.2794005143565E-06


     Number of symmetry-nonredundant auxiliary basis functions:      484

     Block lengths for integral files:
        frozen occupied (BOI):        1 MiB
        active occupied (BJI):        1 MiB
        active virtual  (BAI):        1 MiB
        frozen virtual  (BGI):        0 MiB
               general  (BTI):        1 MiB

   =========================================================================




   **************************************************************************
   *                                                                        *
   *          OPTIMIZATION OF THE GROUND STATE CLUSTER AMPLITUDES           *
   *                                                                        *
   **************************************************************************


   Iter.   MP2 energy       Norm(Omega)   Norm(t1)  Norm(t2)     cpu    wall
   ...........................................................................
    1   -115.5582361654     ------          0.00000   0.20472    0.03    0.00
   ...........................................................................


     time in total         cpu:  1.65 sec    wall:  0.07 sec    ratio: 22.9


     **********************************************************************
     *                                                                    *
     *   RHF  energy                             :   -115.0986459380      *
     *   MP2 correlation energy (doubles)        :     -0.4595902274      *
     *                                                                    *
     *   Final MP2 energy                        :   -115.5582361654      *
     *                                                                    *
     *    E(S)   =     -0.3058203845      E(T)   =     -0.1537698429      *
     *    E(OS)  =     -0.3570769988      E(SS)  =     -0.1025132286      *
     *                                                                    *
     *   SCS-MP2 energy                          :   -115.5613094127      *
     *   (computed with  C(OS) =   1.2000  and  C(SS) =   0.3333)         *
     *                                                                    *
     *   SOS-MP2 energy                          :   -115.5628460364      *
     *   (computed with  C(OS) =   1.3000)                                *
     *                                                                    *
     *   Norm of MP1 T2 amplitudes               :      0.2047244718      *
     *                                                                    *
     **********************************************************************



    ------------------------------------------------------------------------
         total  cpu-time :  18.44 seconds
         total wall-time :   0.78 seconds
    ------------------------------------------------------------------------

   ****  ricc2 : all done  ****


    2019-04-01 21:37:23.409 

