Using Slurm to start processes with PMI2
STARTING ridft ON 10 PROCESSORS!
RUNNING PROGRAM /beegfs/modfac/apps/TURBOMOLE/7.0_intel_GA/bin/em64t-unknown-linux-gnu_mpi/ridft_mpi.
PLEASE WAIT UNTIL ridft HAS FINISHED.
Look for the output in slave1.output.
  this is node-proc. number 1 running on node c-9-332.local
  the total number of node-proc. spawned is           10
  parallel platform: MPP, or cluster with fast interconnect

 ridft (c-9-332.local) : TURBOMOLE V7.0.2( ) 15 Jan 2016 at 17:47:42
 Copyright (C) 2016 TURBOMOLE GmbH, Karlsruhe


    2017-07-17 08:36:38.859 



                                  r i d f t

                        DFT program with RI approximation 
                                for coulomb part 




                                                 
                                 References:     
                                                 
          TURBOMOLE:                             
              R. Ahlrichs, M. Baer, M. Haeser, H. Horn, and
              C. Koelmel
              Electronic structure calculations on workstation
              computers: the program system TURBOMOLE
              Chem. Phys. Lett. 162: 165 (1989)
          Density Functional:                              
              O. Treutler and R. Ahlrichs                      
              Efficient Molecular Numerical Integration Schemes
              J. Chem. Phys. 102: 346 (1995)                   
          Parallel Version:                                
              Performance of parallel TURBOMOLE for Density    
              Functional Calculations                          
              M. v. Arnim and R. Ahlrichs                      
              J. Comp. Chem. 19: 1746 (1998)                   
          RI-J Method:                                     
              Auxiliary Basis Sets to approximate Coulomb      
              Potentials                                       
              Chem. Phys. Lett. 240: 283 (1995)                
              K. Eichkorn, O. Treutler, H. Oehm, M. Haeser     
              and R. Ahlrichs                                  
              Chem. Phys. Lett. 242: 652 (1995)                
                                                           
              Auxiliary Basis Sets for Main Row Atoms and their
              Use to approximate Coulomb Potentials            
              K. Eichkorn, F. Weigend, O. Treutler and         
              R. Ahlrichs                                      
              Theo. Chem. Acc. 97: 119 (1997)                   
                                                           
              Accurate Coulomb-fitting basis sets for H to Rn 
              F. Weigend                                        
              Phys. Chem. Chem. Phys. 8: 1057 (2006)            
                                                           
          Multipole accelerated RI-J (MARI-J):             
              Fast evaluation of the Coulomb potential for     
              electron densities using multipole accelerated   
              resolution of identity approximation             
              M. Sierka, A. Hogekamp and R. Ahlrichs           
              J. Chem. Phys. 118: 9136 (2003)                  
          RI-JK Method:                                     
              A fully direct RI-HF algorithm: Implementation,
              optimised auxiliary basis sets, demonstration of
              accuracy and efficiency                         
              F. Weigend                                      
              Phys. Chem. Chem. Phys. 4: 4285 (2002)           
          Two-component HF and DFT with spin-orbit coupling:  
              Self-consistent treatment of spin-orbit         
              interactions with efficient Hartree-Fock and    
              density functional methods                      
              M. K. Armbruster, F. Weigend, C. van Wüllen and 
              W. Klopper                                      
              Phys. Chem. Chem. Phys. 10: 1748 (2008)         
          Relativistic all-electron 2c calculations           
              An efficient implementation of two-component    
              relativistic exact-decoupling methods for large 
              molecules                                       
              D. Peng, N. Middendorf, F. Weigend, M. Reiher   
              J. Chem. Phys. 138, 184105 (2013)               
                                         


 


              +--------------------------------------------------+
              |      general information about current run       |
              +--------------------------------------------------+

 

 SCF run will be profiled !


 DENSITY CONVERGENCE CHECK SWITCHED ON !
 SCF CONVERGENCE IF RMS(delta[D]) <     0.1000000000E-06

 PBE functional
 exchange:    LDA + PBE
 correlation: LDA (PW) + PBE
 A DFT calculation using the RI-J approximation will be carried out.

 !!!RI-K makes sense only with a hybrid functional.

    RI-K switched off!!!
 Allocatable memory for RI due to $ricore (MB):       45000


              +--------------------------------------------------+
              | Atomic coordinate, charge and isotop information |
              +--------------------------------------------------+

                    atomic coordinates            atom    charge  isotop
         -0.14463964    5.74559892   -3.37884922    c      6.000     0
         -0.61612631   -5.99222708    3.25881382    c      6.000     0
        -11.09118062   -1.05809546    0.43667791    c      6.000     0
        -10.77578533    0.54255927   -2.00218374    c      6.000     0
         -0.76216434    7.83531477   -5.39467678    c      6.000     0
         -1.28688460   -8.09815678    5.23771613    c      6.000     0
        -13.51191980   -2.65060546    0.28045426    c      6.000     0
        -13.09960045    2.23983569   -2.38974767    c      6.000     0
         -6.78184915   -0.24829112    4.07275666    c      6.000     0
         -5.88636462   -0.31161584   -4.81770560    c      6.000     0
        -15.83543256   -0.97237748   -0.14101136    c      6.000     0
        -15.52803081    0.66406866   -2.51222082    c      6.000     0
          8.53611971    2.91097193   -6.97325951    c      6.000     0
          7.54280406   -2.63913483    7.57060194    c      6.000     0
          6.36234884   -9.42837280   -2.41078032    c      6.000     0
          6.11112865    9.62834362    2.81748718    c      6.000     0
          3.76622418    6.50780106   -1.48398303    c      6.000     0
          3.48764076   -6.53765873    1.72462076    c      6.000     0
         -0.38104438    6.86614983   -0.80205646    c      6.000     0
         -0.55652435   -7.12989890    0.67776917    c      6.000     0
          2.13658106   -5.25547955    3.55141901    c      6.000     0
          2.65825885    5.17286073   -3.43217729    c      6.000     0
          7.88338941    5.44380966   -2.98973571    c      6.000     0
          7.39277871   -5.25670788    3.58545298    c      6.000     0
         -4.84193189   -4.15036771    1.94781631    c      6.000     0
         -4.35666911    3.64773835   -2.47476645    c      6.000     0
          4.19443612    3.97294132   -5.24880882    c      6.000     0
          3.43792206   -3.95090712    5.47245791    c      6.000     0
         -2.66432487   -3.98539462    3.56496835    c      6.000     0
         -2.03725705    3.62988044   -3.89173979    c      6.000     0
          6.13303058   -6.61593119    1.58281571    c      6.000     0
          6.37918630    6.71963936   -1.10395911    c      6.000     0
         -8.50902104    2.09323074   -1.84832223    n      7.000     0
         -8.91366809   -2.70062651    0.77537353    n      7.000     0
          6.83508273    4.12085019   -5.04214837    c      6.000     0
          6.09563290   -3.95625504    5.50668085    c      6.000     0
         -6.29875956    1.83577445   -3.01965008    c      6.000     0
         -6.88192904   -2.39721209    2.22706114    c      6.000     0
         -4.89038446   -6.01889112   -0.12791556    c      6.000     0
         -4.71206991    5.51081935   -0.42526397    c      6.000     0
         -2.58123362   -7.35545662   -0.82363714    c      6.000     0
         -2.55978523    6.97511144    0.48887215    c      6.000     0
          7.61570970    8.13283326    0.91296449    c      6.000     0
          7.60593981   -7.90298587   -0.34729387    c      6.000     0
          1.87385243   -7.76938223    0.01364382    o      8.000     0
          1.93252843    7.63967143    0.07672288    o      8.000     0
          9.91972049   -5.18964150    3.63891333    o      8.000     0
         10.40354707    5.48075381   -2.80085759    o      8.000     0
          2.17938335   -2.68046314    7.27518105    o      8.000     0
          3.17545800    2.66610122   -7.17589484    o      8.000     0
          9.97344541    8.14778099    1.07901472    o      8.000     0
          9.97227378   -7.76664213   -0.32784859    o      8.000     0
         -6.81289735   -6.34781685   -1.49607728    o      8.000     0
         -6.77519731    5.72825124    0.75080709    o      8.000     0
         -2.38846265   -2.45352592    5.35126977    o      8.000     0
         -1.52060593    2.16564505   -5.67832467    o      8.000     0
         10.78015059    6.50379484   -1.20995385    h      1.000     0
         10.48542891   -6.18724682    2.09054733    h      1.000     0
         -8.48685455    3.63105207   -0.58957566    h      1.000     0
         -8.69750232   -4.25651363   -0.44508720    h      1.000     0
          1.30644326    2.45870377   -6.82650337    h      1.000     0
          0.34653798   -2.57053777    6.74031297    h      1.000     0
        -11.24564683    0.23948499    2.03644447    h      1.000     0
        -10.61740738   -0.75401962   -3.60140227    h      1.000     0
         -2.53644711   -8.25935042   -2.66003520    h      1.000     0
         -2.75758286    7.90071819    2.30533360    h      1.000     0
        -13.21105650    3.59333314   -0.81968761    h      1.000     0
        -13.32364638   -4.00499108   -1.28161226    h      1.000     0
        -13.69913496   -3.75367640    2.02113769    h      1.000     0
        -12.84161504    3.34026102   -4.12308007    h      1.000     0
        -16.10519097    0.25360125    1.51255569    h      1.000     0
        -15.46840995   -0.55731803   -4.18984409    h      1.000     0
         -6.53108249   -0.97472074    5.98793740    h      1.000     0
         -4.15730301   -1.31740368   -4.31547308    h      1.000     0
        -17.52813585   -2.15307837   -0.29341778    h      1.000     0
        -17.15895895    1.91724055   -2.74097217    h      1.000     0
         -5.13374340    0.92995313    3.69294060    h      1.000     0
         -7.45774749   -1.63918624   -4.80918293    h      1.000     0
          6.34564366   -1.24542401    8.50682895    h      1.000     0
          7.53586877    1.41744578   -7.98492439    h      1.000     0
         -8.46449909    0.93084130    3.98575367    h      1.000     0
         -5.58969652    0.41273508   -6.72991947    h      1.000     0
          9.22791065   -1.71643825    6.81624216    h      1.000     0
         10.23267804    2.14595410   -6.07911669    h      1.000     0
          7.83231011  -10.14096963   -3.66603090    h      1.000     0
          7.42458280   10.49763654    4.14590796    h      1.000     0
          0.04990767   -9.66165949    5.05760633    h      1.000     0
          0.46156561    9.46936096   -5.08544200    h      1.000     0
          4.78062917    8.41483709    3.82909537    h      1.000     0
          5.01368909   -8.28557982   -3.48027082    h      1.000     0
         -1.14785745   -7.29793335    7.13624838    h      1.000     0
         -0.41141228    7.06561042   -7.27833689    h      1.000     0
         -2.73974384    8.41368435   -5.23573192    h      1.000     0
         -3.20641171   -8.79212091    4.91485642    h      1.000     0
          5.29350084  -11.00364850   -1.59885949    h      1.000     0
          4.98761087   11.08602167    1.87184932    h      1.000     0
          8.76190419    4.19821558   -8.52457348    h      1.000     0
          8.17506863   -4.00000220    9.00087895    h      1.000     0
          6.86066962   -0.25076666   -0.09694295    c      0.000     0
          4.86940850    1.94114558    3.23026006    c      0.000     0
          4.20879804   -0.45650114   -0.46137664    c      0.000     0
          2.95224355    0.97557112    1.62093149    c      0.000     0
          3.45118794   -1.86943047   -2.58206510    c      0.000     0
          7.77932219   -2.63093341   -3.75762593    c      0.000     0
          1.82375579    3.82709226    5.89384794    c      0.000     0
          5.22499827   -2.91924893   -4.23200388    c      0.000     0
          7.39593455    1.24124771    2.23475233    c      0.000     0
          4.35997613    3.34619476    5.36978909    c      0.000     0
          8.66123848   -1.29533168   -1.67119820    c      0.000     0
         -0.10911279    2.94814284    4.35071648    c      0.000     0
          0.43881331    1.52094608    2.20109631    c      0.000     0
          0.80439972   -2.45021890   -3.21332811    n      0.000     0
          9.60630941   -3.78408209   -5.53232443    n      0.000     0
          1.16443035    5.34758481    8.13957958    n      0.000     0
         -0.83206531   -1.89560318   -1.63960198    o      0.000     0
          0.35010956   -3.51392685   -5.23051627    o      0.000     0
         11.85262687   -3.28175509   -5.20935134    o      0.000     0
          2.92111976    6.11630650    9.46543033    o      0.000     0
          8.74843044   -5.15564532   -7.21117603    o      0.000     0
         -1.09723168    5.76691503    8.53587404    o      0.000     0
          9.46318156    1.76254756    3.09975557    o      0.000     0
         -1.08874681    0.86027892    1.03088340    h      0.000     0
          4.58712121   -3.95986442   -5.87111453    h      0.000     0
         -2.04330418    3.38253419    4.85308127    h      0.000     0
         10.66179705   -1.07774861   -1.29376320    h      0.000     0
          5.85758409    4.05157283    6.57549105    h      0.000     0
 
       center of nuclear mass  :    1.05148406    0.00013320    0.07352086
       center of nuclear charge:   -0.41934697   -0.08389102   -0.12790045

              +--------------------------------------------------+
              |               basis set information              |
              +--------------------------------------------------+

              we will work with the 1s 3p 5d 7f 9g ... basis set
              ...i.e. with spherical basis functions...

   type   atoms  prim   cont   basis
   ---------------------------------------------------------------------------
    c       55    118     91   cc-pV5Z   [6s5p4d3f2g1h|24s8p4d3f2g1h]
    n        5    118     91   cc-pV5Z   [6s5p4d3f2g1h|24s8p4d3f2g1h]
    o       19    118     91   cc-pV5Z   [6s5p4d3f2g1h|24s8p4d3f2g1h]
    h       47     58     55   cc-pV5Z   [5s4p3d2f1g|8s4p3d2f1g]
   ---------------------------------------------------------------------------
   total:  126  12048   9774
   ---------------------------------------------------------------------------

   total number of primitive shells          :  144
   total number of contracted shells         : 2364
   total number of cartesian basis functions :13244
   total number of SCF-basis functions       : 9774


 integral neglect threshold       :  0.25E-14
 integral storage threshold THIZE :  0.10E-04
 integral storage threshold THIME :         5

 RI-J AUXILIARY BASIS SET information:

              we will work with the 1s 3p 5d 7f 9g ... basis set
              ...i.e. with spherical basis functions...

   type   atoms  prim   cont   basis
   ---------------------------------------------------------------------------
    c       55     70     49   cc-pV5Z   [6s4p3d1f1g|12s5p4d2f1g]
    n        5     70     49   cc-pV5Z   [6s4p3d1f1g|12s5p4d2f1g]
    o       19     70     49   cc-pV5Z   [6s4p3d1f1g|12s5p4d2f1g]
    h       47     16     11   cc-pV5Z   [3s1p1d|5s2p1d]
   ---------------------------------------------------------------------------
   total:  126   6282   4388
   ---------------------------------------------------------------------------

   total number of primitive shells          :   80
   total number of contracted shells         : 1420
   total number of cartesian basis functions : 5383
   total number of SCF-basis functions       : 4388


 symmetry group of the molecule :   c1 

 the group has the following generators :
   c1(z)

    1 symmetry operations found

 there are 1 real representations :   a   

 maximum number of shells which are related by symmetry :  1


    mo occupation :
   irrep   mo's   occupied
    a     9774      202
 
 number of basis functions   :         9774
 number of occupied orbitals :          202
 
  
           ------------------
           density functional
           ------------------
 Dummy atoms with grid-point found.
 DFT quadrature threshold dgrenze tightened by factor 1/10.

 PBE functional
 exchange:    LDA + PBE
 correlation: LDA (PW) + PBE
 Dummy atoms with grid-point found.
 DFT quadrature threshold dgrenze tightened by factor 1/10.

 Dummy atoms with grid-point found.
 DFT quadrature threshold dgrenze tightened by factor 1/10.

 grinp -> nfun, dfgga, dfhybrid 
           6 T F
 iterations will be done with small grid
  
 spherical integration : Lebedev's spherical grid
 spherical gridsize    :           5
    i.e. gridpoints    :         590
 value for diffuse not defined
 radial integration    : Chebyshev 2nd kind (scaling 3)
 radial gridsize       :           8
 integration cells     :         126
 partition function    : becke
 partition sharpness   :           3
  
 found dummy atom(s) with basis: included in dft

 <rddim> : input of entry tasksize
           from data group '$pardft' failed !

               Default values taken

 <rddim> : input of entry memdiv
           from data group '$pardft' failed !

               Default values taken
  RIDFT: memory allocation for DFT gridpoints
  MEMORY is divided by 1 as DEFAULT
 Each node can hold at most  the            1 -th part
 of the gridpoints    

 biggest AO integral is expected to be     4.948106643
  
           ------------------------
               RI-J - INFORMATION
           ------------------------
 
 
 **************************************************
 *      MEMORY ALLOCATION FOR PARALLEL RI-DFT     *
 **************************************************
 
 
MEMORY FOR (MU NU/ ALPHA), SEQUENTIAL RUN              44833 MByte
 
            DIFFERENCE IN MEMORY NEED:       DIAG./SLAVE  
 
      TOTAL DIFFERENCE :                   4138 MByte
 
      difference in xcore:                  168 MByte
      difference in fatmat:                1175 MByte
      getcor calls skipped by slaves:      2797 MByte
 
 
           Integral memory available for diagonal.     44833 MByte
 
           Integral memory available for slave             0 MByte
 
         MEMORY FOR (MU NU/ ALPHA) ON DIAGONALIZER     44833 MByte
 
         MEMORY FOR (MU NU/ ALPHA) ON ONE SLAVE            0 MByte
 
         TOTAL MEMORY FOR (MU NU/ ALPHA),ALL NODES     44833 MByte
 
 Contributions to RI integral batches: 
  neglected integral batches:     1884605
  direct contribution:             729601
  memory contribution:      181224
 Memory core needed for (P|Q) and Cholesky    147 MByte
 Memory core minimum needed except of (P|Q)    27 MByte
 Total minimum memory core needed (sum)       174 MByte
     number of direct tasks:         200
  
 ****************************************
 Memory allocated for RI-J 45006 MByte
 ****************************************
                                            

          ------------------------
          nuclear repulsion energy  :   8191.54446353    
          ------------------------

 
          -----------------
          -S integrals
          -----------------

 1e-integrals will be neglected if expon. factor < 0.252338E-15
 
          -----------------
          -T+V integrals
          -----------------

 1e-integrals will be neglected if expon. factor < 0.252338E-15
 Difference densities >>NOT<< switched on in parallel ridft!

 automatic virtual orbital shift switched on 
      shift if e(lumo)-e(homo) < 0.10000000    


 DIIS switched on: error vector is FDS-SDF
 Max. Iterations for DIIS is     :   4
 DIIS matrix (see manual) 
    Scaling factor of diagonals  :  1.200
    threshold for scaling factor :  0.000

 scf convergence criterion : increment of total energy < .1000000D-08
                  and increment of one-electron energy < .1000000D-05


 <geterg> : there is no data group $energy 

  MOs are in ASCII format !


 reading orbital data $scfmo  from file mos . 

 orbital characterization : scfdump=1
 

 DSCF restart information will be dumped onto file mos


 Starting SCF iterations


 ITERATION  ENERGY          1e-ENERGY        2e-ENERGY     RMS[dD(SAO)]   TOL
   1  -2634.4585636485    -19887.866478     9061.8634504    0.000D+00 0.252D-14
                            Exc = -355.542914654     Coul =  9417.40636500    
                              N = 403.99989454    
                            current damping = 0.700
 
          max. resid. norm for Fia-block=  1.531D-01 for orbital      9a         
          max. resid. fock norm         =  2.575D-01 for orbital   8685a         

 ITERATION  ENERGY          1e-ENERGY        2e-ENERGY     RMS[dD(SAO)]   TOL
   2  -2635.7622652850    -19913.008128     9085.7013997    0.600D-02 0.252D-14
                            Exc = -357.216700881     Coul =  9442.91810056    
                              N = 403.99990986    
                            current damping = 0.650
 
          Norm of current diis error:  4.5117    
          max. resid. norm for Fia-block=  6.834D-02 for orbital      9a         
          max. resid. fock norm         =  1.429D-01 for orbital   9077a         

 ITERATION  ENERGY          1e-ENERGY        2e-ENERGY     RMS[dD(SAO)]   TOL
   3  -2636.0190304306    -19908.967179     9081.4036850    0.194D-02 0.252D-14
                            Exc = -357.682732175     Coul =  9439.08641717    
                              N = 403.99990358    
                            current damping = 0.600
 
          Norm of current diis error:  2.4726    
          max. resid. norm for Fia-block=  3.023D-02 for orbital    181a         
          max. resid. fock norm         =  3.412D-02 for orbital    207a         

 ITERATION  ENERGY          1e-ENERGY        2e-ENERGY     RMS[dD(SAO)]   TOL
   4  -2636.0956399360    -19915.182386     9087.5422821    0.700D-03 0.252D-14
                            Exc = -357.437108247     Coul =  9444.97939040    
                              N = 403.99989267    
                            current damping = 0.650
 
          Norm of current diis error:  1.6856    
          max. resid. norm for Fia-block=  1.926D-02 for orbital     68a         
          max. resid. fock norm         =  4.158D-02 for orbital   8922a         

 ITERATION  ENERGY          1e-ENERGY        2e-ENERGY     RMS[dD(SAO)]   TOL
   5  -2636.1372356313    -19914.962522     9087.2808227    0.398D-03 0.252D-14
                            Exc = -357.819218471     Coul =  9445.10004121    
                              N = 403.99988999    
                            current damping = 0.700
 
          Norm of current diis error: 0.43618    
          max. resid. norm for Fia-block=  5.732D-03 for orbital     58a         
          max. resid. fock norm         =  1.248D-02 for orbital   9203a         
          mo-orthogonalization: Cholesky decomposition

 ITERATION  ENERGY          1e-ENERGY        2e-ENERGY     RMS[dD(SAO)]   TOL
   6  -2636.1393532858    -19915.087779     9087.4039626    0.217D-03 0.252D-14
                            Exc = -357.846289956     Coul =  9445.25025252    
                              N = 403.99988614    
                            current damping = 0.750
 
          Norm of current diis error: 0.30207    
          max. resid. norm for Fia-block=  3.373D-03 for orbital    196a         
          max. resid. fock norm         =  8.701D-03 for orbital   9123a         

 ITERATION  ENERGY          1e-ENERGY        2e-ENERGY     RMS[dD(SAO)]   TOL
   7  -2636.1407330022    -19914.480511     9086.7953141    0.129D-03 0.252D-14
                            Exc = -357.816769849     Coul =  9444.61208393    
                              N = 403.99988387    
                            current damping = 0.800
 
          Norm of current diis error: 0.12426    
          max. resid. norm for Fia-block=  1.775D-03 for orbital    196a         
          max. resid. fock norm         =  3.988D-03 for orbital   9758a         

 ITERATION  ENERGY          1e-ENERGY        2e-ENERGY     RMS[dD(SAO)]   TOL
   8  -2636.1409035005    -19914.934798     9087.2494312    0.476D-04 0.252D-14
                            Exc = -357.833143899     Coul =  9445.08257507    
                              N = 403.99988397    
                            current damping = 0.850
 
          Norm of current diis error: 0.81088E-01
          max. resid. norm for Fia-block=  9.529D-04 for orbital    194a         
          max. resid. fock norm         =  2.657D-03 for orbital   9762a         

 ITERATION  ENERGY          1e-ENERGY        2e-ENERGY     RMS[dD(SAO)]   TOL
   9  -2636.1409640984    -19914.878981     9087.1935530    0.131D-04 0.252D-14
                            Exc = -357.853816786     Coul =  9445.04736978    
                              N = 403.99988371    
                            current damping = 0.900
 
          Norm of current diis error: 0.50319E-01
          max. resid. norm for Fia-block=  5.128D-04 for orbital    197a         
          max. resid. fock norm         =  1.192D-03 for orbital   9758a         

 ITERATION  ENERGY          1e-ENERGY        2e-ENERGY     RMS[dD(SAO)]   TOL
  10  -2636.1410014707    -19914.899473     9087.2140077    0.118D-04 0.252D-14
                            Exc = -357.845427033     Coul =  9445.05943478    
                              N = 403.99988343    
                            current damping = 0.950
 
          Norm of current diis error: 0.12722E-01
          max. resid. norm for Fia-block=  2.267D-04 for orbital    199a         
          max. resid. fock norm         =  7.547D-04 for orbital   9762a         
          mo-orthogonalization: Cholesky decomposition

 ITERATION  ENERGY          1e-ENERGY        2e-ENERGY     RMS[dD(SAO)]   TOL
  11  -2636.1410031283    -19914.841295     9087.1558287    0.771D-05 0.252D-14
                            Exc = -357.842099265     Coul =  9444.99792801    
                              N = 403.99988334    
                            current damping = 1.000
 
          Norm of current diis error: 0.80866E-02
          max. resid. norm for Fia-block=  7.684D-05 for orbital    199a         
          max. resid. fock norm         =  5.066D-04 for orbital   9762a         

 ITERATION  ENERGY          1e-ENERGY        2e-ENERGY     RMS[dD(SAO)]   TOL
  12  -2636.1410041345    -19914.843814     9087.1583459    0.252D-05 0.252D-14
                            Exc = -357.841831076     Coul =  9445.00017696    
                              N = 403.99988328    
                            current damping = 1.050
 
          Norm of current diis error: 0.26881E-02
          max. resid. norm for Fia-block=  3.719D-05 for orbital    196a         
          max. resid. fock norm         =  2.975D-04 for orbital   9762a         

 ITERATION  ENERGY          1e-ENERGY        2e-ENERGY     RMS[dD(SAO)]   TOL
  13  -2636.1410042101    -19914.847626     9087.1621579    0.838D-06 0.252D-14
                            Exc = -357.842185722     Coul =  9445.00434364    
                              N = 403.99988326    
                            current damping = 0.900
 
          Norm of current diis error: 0.15967E-02
          max. resid. norm for Fia-block=  2.199D-05 for orbital    192a         
          max. resid. fock norm         =  1.754D-04 for orbital   9762a         

 ITERATION  ENERGY          1e-ENERGY        2e-ENERGY     RMS[dD(SAO)]   TOL
  14  -2636.1410042504    -19914.853016     9087.1675478    0.665D-06 0.252D-14
                            Exc = -357.842324763     Coul =  9445.00987260    
                              N = 403.99988326    
                            current damping = 0.750
 
          Norm of current diis error: 0.68294E-03
          max. resid. norm for Fia-block=  9.861D-06 for orbital    196a         
          max. resid. fock norm         =  9.028D-05 for orbital   9762a         

 ITERATION  ENERGY          1e-ENERGY        2e-ENERGY     RMS[dD(SAO)]   TOL
  15  -2636.1410042571    -19914.851087     9087.1656197    0.415D-06 0.252D-14
                            Exc = -357.842309544     Coul =  9445.00792921    
                              N = 403.99988325    
                            current damping = 0.800
 
          Norm of current diis error: 0.32642E-03
          max. resid. norm for Fia-block=  4.269D-06 for orbital    196a         
          max. resid. fock norm         =  4.639D-05 for orbital   9762a         
          mo-orthogonalization: Cholesky decomposition

 ITERATION  ENERGY          1e-ENERGY        2e-ENERGY     RMS[dD(SAO)]   TOL
  16  -2636.1410042590    -19914.850499     9087.1650315    0.182D-06 0.252D-14
                            Exc = -357.842236073     Coul =  9445.00726754    
                              N = 403.99988325    
                            current damping = 0.650
 
          Norm of current diis error: 0.14846E-03
          max. resid. norm for Fia-block=  2.539D-06 for orbital     70a         
          max. resid. fock norm         =  2.384D-05 for orbital   9762a         

 DENSITY CONVERGED !


 ITERATION  ENERGY          1e-ENERGY        2e-ENERGY     RMS[dD(SAO)]   TOL
  17  -2636.1410042593    -19914.851133     9087.1656648    0.598D-07 0.252D-14
                            Exc = -357.842284756     Coul =  9445.00794960    
                              N = 403.99988324    
                            current damping = 0.700
 
          Norm of current diis error: 0.90964E-04
          max. resid. norm for Fia-block=  1.089D-06 for orbital    196a         
          max. resid. fock norm         =  9.986D-06 for orbital   9762a         

 DENSITY CONVERGED !


 ITERATION  ENERGY          1e-ENERGY        2e-ENERGY     RMS[dD(SAO)]   TOL
  18  -2636.1410042592    -19914.851160     9087.1656921    0.348D-07 0.252D-14
                            Exc = -357.842284287     Coul =  9445.00797639    
                              N = 403.99988324    
                            current damping = 0.550
 
          Norm of current diis error: 0.43096E-04
          max. resid. norm for Fia-block=  5.828D-07 for orbital    196a         
          max. resid. fock norm         =  4.820D-06 for orbital   9762a         

 DENSITY CONVERGED !


 ITERATION  ENERGY          1e-ENERGY        2e-ENERGY     RMS[dD(SAO)]   TOL
  19  -2636.1410042592    -19914.850999     9087.1655309    0.189D-07 0.252D-14
                            Exc = -357.842278374     Coul =  9445.00780923    
                              N = 403.99988324    
                            current damping = 0.600
 
          Norm of current diis error: 0.25078E-04
          max. resid. norm for Fia-block=  2.153D-07 for orbital    194a         
          max. resid. fock norm         =  2.253D-06 for orbital   9762a         

 ENERGY & DENSITY CONVERGED !


 ITERATION  ENERGY          1e-ENERGY        2e-ENERGY     RMS[dD(SAO)]   TOL
  20  -2636.1411035727    -19914.851004     9087.1654372    0.723D-08 0.252D-14
                            Exc = -357.842374748     Coul =  9445.00781192    
                              N = 403.99994123    
                            current damping = 0.650
 
          Norm of current diis error: 0.85001E-05
          max. resid. norm for Fia-block=  9.928D-08 for orbital    197a         
          max. resid. fock norm         =  1.161D-06 for orbital   9762a         

 End of SCF iterations

   convergence criteria satisfied after   20 iterations


                  ------------------------------------------ 
                 |  total energy      =  -2636.14110357269  |
                  ------------------------------------------ 
                 :  kinetic energy    =   2625.10311344489  :
                 :  potential energy  =  -5261.24421701758  :
                 :  virial theorem    =      1.99581282272  :
                 :  wavefunction norm =      1.00000000000  :
                  .......................................... 


 <geterg> : there is no data group $energy 


 <skperg> : $end is missing 


 orbitals $scfmo  will be written to file mos

    irrep                198a        199a        200a        201a        202a   
 eigenvalues H         -0.21777    -0.20360    -0.20314    -0.18947    -0.18877
            eV          -5.9259     -5.5404     -5.5277     -5.1557     -5.1366
 occupation              2.0000      2.0000      2.0000      2.0000      2.0000 

    irrep                203a        204a        205a        206a        207a   
 eigenvalues H         -0.10436    -0.10303    -0.09732    -0.09603    -0.08182
            eV          -2.8399     -2.8037     -2.6482     -2.6131     -2.2263
 
 
 ! grave: sending quit signal to master process
 
 
 
 
 ==============================================================================
                           electrostatic moments
 ==============================================================================

 reference point for electrostatic moments:    0.00000   0.00000   0.00000

 
              nuc           elec       ->  total
 ------------------------------------------------------------------------------
                          charge      
 ------------------------------------------------------------------------------
         404.000000    -404.000000       0.000000
 
 ------------------------------------------------------------------------------
                       dipole moment  
 ------------------------------------------------------------------------------
   x    -169.416178     163.470521      -5.945657
   y     -33.891974      33.801116      -0.090858
   z     -51.671783      51.277565      -0.394218
 
   | dipole moment | =     5.9594 a.u. =    15.1473 debye 
 
 ------------------------------------------------------------------------------
                     quadrupole moment
 ------------------------------------------------------------------------------
  xx   20865.363355  -21104.312695    -238.949341
  yy   12020.881992  -12264.020336    -243.138343
  zz    5393.055440   -5640.430039    -247.374598
  xy     689.678905    -690.284089      -0.605183
  xz     850.619306    -847.965351       2.653955
  yz   -3070.493500    3067.330365      -3.163135
 
     1/3  trace=    -243.154094
     anisotropy=      10.270576
 
 ==============================================================================
 

    ridft profiling
  --------------------------------------------------------------------
             module   cpu total (s)       %  wall total (s)       %

               RIDFT         27325.6  100.00         27520.4  100.00
         Ridft_b_scf           822.7    3.01           822.5    2.99
        b_scf_prelim             0.0    0.00             0.0    0.00
        b_scf_molinp             0.0    0.00             0.0    0.00
         b_scf_init0             0.0    0.00             0.0    0.00
        b_scf_auxbas             0.0    0.00             0.0    0.00
      b_scf_symmetry             0.0    0.00             0.0    0.00
         b_scf_cosmo             0.0    0.00             0.0    0.00
        b_scf_params           185.3    0.68           185.3    0.67
          b_scf_ri-j           170.0    0.62           169.9    0.62
    b_scf_ri-j_auxpq           169.6    0.62           169.5    0.62
     ri-j_auxpq_chol             3.9    0.01             3.9    0.01
         b_scf_1elec            36.8    0.13            36.8    0.13
       b_scf_moinput           430.6    1.58           430.4    1.56
     moinput_orthmos           374.0    1.37           373.9    1.36
    b_scf_dft-dstmax             0.0    0.00             0.0    0.00
           Ridft_scf         26495.3   96.96         26690.2   96.98
          Scf_b_loop             0.0    0.00             0.0    0.00
                noga             0.0    0.00             0.0    0.00
            Scf_loop         26460.1   96.83         26645.0   96.82
     scf_loop_mkdmat           148.2    0.54           148.2    0.54
       scf_loop_ri-j          4797.0   17.56          4795.3   17.42
      parlp1.bc.dens             8.4    0.03             8.4    0.03
        parlp1.gs.gp             0.0    0.00             0.0    0.00
        parlp2.bc.gq             0.0    0.00             0.0    0.00
        scf_loop_dft         12748.6   46.65         12748.3   46.32
      pardft.bc.dens             0.0    0.00             0.0    0.00
        dft_grid_con            14.7    0.05            14.7    0.05
           dft_xcrhf         11620.4   42.53         11620.5   42.23
          dft_getval           244.5    0.89           244.8    0.89
          funct2 dst             1.8    0.01             1.8    0.01
      funct2 f2loop1            42.1    0.15            42.1    0.15
      funct2 f2loop2           121.3    0.44           121.6    0.44
          funct2 s+c            74.4    0.27            74.6    0.27
        funct2 cmf_2            69.1    0.25            69.3    0.25
          dft_mkdens          4773.3   17.47          4773.0   17.34
         dft_gga-fun             0.7    0.00             0.7    0.00
          dft_mkfock          6600.0   24.15          6600.0   23.98
     pardft.red.fock          1756.0    6.43          1755.7    6.38
     scf_loop_energy             1.5    0.01             1.5    0.01
     scf_loop_mkfock             2.9    0.01             2.9    0.01
       scf_loop_diis          4269.5   15.62          4267.9   15.51
       scf_loop_diag          3062.2   11.21          3062.6   11.13
         diag_tritrn           773.4    2.83           773.5    2.81
          diag_rdiag          2284.5    8.36          2284.8    8.30
     scf_loop_modump           603.3    2.21           791.7    2.88
      scf_loop_ortho           794.0    2.91           793.8    2.88
          Scf_a_loop            35.3    0.13            45.2    0.16
         Ridft_a_scf             7.6    0.03             7.7    0.03
         a_scf_fanal             7.4    0.03             7.5    0.03
 


    ------------------------------------------------------------------------
         total  cpu-time :  7 hours 36 minutes and  5 seconds
         total wall-time :  7 hours 39 minutes and 20 seconds
    ------------------------------------------------------------------------


   ****  ridft : all done  ****


    2017-07-17 16:15:58.891 

