           Doing BLAS/Lapack in the master proc. with  8 CPUs.
           SMPCPUS    set: Shared-memory Parallelization with   8 CPUs.

           SMP Parallelization Reference:
           C. van Wullen, J. Comput. Chem. 32 (2011) 1195--1201
 operating system is UNIX !

 ridft (c-18-131.gp.local) : TURBOMOLE V7.2 ( 21454 ) 4 Oct 2017 at 12:48:15
 Copyright (C) 2017 TURBOMOLE GmbH, Karlsruhe


    2018-04-28 21:08:04.917 



                                  r i d f t

                        DFT program with RI approximation 
                                for coulomb part 




                                                 
                                 References:     
                                                 
          TURBOMOLE:                             
              R. Ahlrichs, M. Baer, M. Haeser, H. Horn, and
              C. Koelmel
              Electronic structure calculations on workstation
              computers: the program system TURBOMOLE
              Chem. Phys. Lett. 162: 165 (1989)
          Density Functional:                              
              O. Treutler and R. Ahlrichs                      
              Efficient Molecular Numerical Integration Schemes
              J. Chem. Phys. 102: 346 (1995)                   
          Parallel Version:                                
              Performance of parallel TURBOMOLE for Density    
              Functional Calculations                          
              M. v. Arnim and R. Ahlrichs                      
              J. Comp. Chem. 19: 1746 (1998)                   
          RI-J Method:                                     
              Auxiliary Basis Sets to approximate Coulomb      
              Potentials                                       
              Chem. Phys. Lett. 240: 283 (1995)                
              K. Eichkorn, O. Treutler, H. Oehm, M. Haeser     
              and R. Ahlrichs                                  
              Chem. Phys. Lett. 242: 652 (1995)                
                                                           
              Auxiliary Basis Sets for Main Row Atoms and their
              Use to approximate Coulomb Potentials            
              K. Eichkorn, F. Weigend, O. Treutler and         
              R. Ahlrichs                                      
              Theo. Chem. Acc. 97: 119 (1997)                   
                                                           
              Accurate Coulomb-fitting basis sets for H to Rn 
              F. Weigend                                        
              Phys. Chem. Chem. Phys. 8: 1057 (2006)            
                                                           
          Multipole accelerated RI-J (MARI-J):             
              Fast evaluation of the Coulomb potential for     
              electron densities using multipole accelerated   
              resolution of identity approximation             
              M. Sierka, A. Hogekamp and R. Ahlrichs           
              J. Chem. Phys. 118: 9136 (2003)                  
          RI-JK Method:                                     
              A fully direct RI-HF algorithm: Implementation,
              optimised auxiliary basis sets, demonstration of
              accuracy and efficiency                         
              F. Weigend                                      
              Phys. Chem. Chem. Phys. 4: 4285 (2002)           
          Two-component HF and DFT with spin-orbit coupling:  
              Self-consistent treatment of spin-orbit         
              interactions with efficient Hartree-Fock and    
              density functional methods                      
              M. K. Armbruster, F. Weigend, C. van Wüllen and 
              W. Klopper                                      
              Phys. Chem. Chem. Phys. 10: 1748 (2008)         
          Relativistic all-electron 2c calculations           
              An efficient implementation of two-component    
              relativistic exact-decoupling methods for large 
              molecules                                       
              D. Peng, N. Middendorf, F. Weigend, M. Reiher   
              J. Chem. Phys. 138, 184105 (2013)               
                                         




              +--------------------------------------------------+
              |      general information about current run       |
              +--------------------------------------------------+

 

 DENSITY CONVERGENCE CHECK SWITCHED ON !
 SCF CONVERGENCE IF RMS(delta[D]) <     0.1000000000E-06

 TPSS meta-GGA functional
 exchange:    LDA + TPSS
 correlation: LDA (PW) + TPSS
 A DFT calculation using the RI-J approximation will be carried out.
 Allocatable memory for RI due to $ricore (MB):                  5000


              +--------------------------------------------------+
              | Atomic coordinate, charge and isotop information |
              +--------------------------------------------------+

                    atomic coordinates            atom    charge  isotop
         -1.77863148    1.49296180    0.02214552    n      0.000     0
         -1.74375469   -1.04384341    0.06685615    c      0.000     0
          0.10816889   -1.91918319    0.09704672    h      0.000     0
         -3.92405235   -2.51903919    0.07424801    c      0.000     0
         -3.77289293   -4.55534684    0.11126179    h      0.000     0
         -6.26692322   -1.32911912    0.03325738    c      0.000     0
         -7.99651765   -2.41711901    0.03740480    h      0.000     0
         -6.32849493    1.29827739   -0.01339052    c      0.000     0
         -8.09831579    2.31700180   -0.04659875    h      0.000     0
         -4.04987930    2.61279878   -0.01679976    c      0.000     0
         -4.04042296    4.65940812   -0.05250221    h      0.000     0
          4.78707557   -1.79529520    0.08034717    n      7.000     0
          7.05810840   -2.91623583    0.08427750    c      6.000     0
          7.04823675   -4.96273828    0.12564203    h      1.000     0
          9.33699762   -1.60295448    0.03892146    c      6.000     0
         11.10660960   -2.62252821    0.04476829    h      1.000     0
          9.27592619    1.02434018   -0.01351222    c      6.000     0
         11.00573413    2.11140713   -0.04976002    h      1.000     0
          6.93326988    2.21540835   -0.01819327    c      6.000     0
          6.78252126    4.25169896   -0.05804488    h      1.000     0
          4.75268925    0.74140379    0.02941586    c      6.000     0
          2.90092695    1.61759909    0.02627354    h      1.000     0
 
       center of nuclear mass  :    1.50436021   -0.15177249    0.03069996
       center of nuclear charge:    7.05941680   -0.36666323    0.03278012

              +--------------------------------------------------+
              |               basis set information              |
              +--------------------------------------------------+

              we will work with the 1s 3p 5d 7f 9g ... basis set
              ...i.e. with spherical basis functions...

   type   atoms  prim   cont   basis
   ---------------------------------------------------------------------------
    n        2     50     30   cc-pVTZ   [4s3p2d1f|18s5p2d1f]
    c       10     50     30   cc-pVTZ   [4s3p2d1f|18s5p2d1f]
    h       10     16     14   cc-pVTZ   [3s2p1d|5s2p1d]
   ---------------------------------------------------------------------------
   total:   22    760    500
   ---------------------------------------------------------------------------

   total number of primitive shells          :   60
   total number of contracted shells         :  180
   total number of cartesian basis functions :  570
   total number of SCF-basis functions       :  500


 integral neglect threshold       :  0.58E-13
 integral storage threshold THIZE :  0.10E-04
 integral storage threshold THIME :         5

 RI-J AUXILIARY BASIS SET information:

              we will work with the 1s 3p 5d 7f 9g ... basis set
              ...i.e. with spherical basis functions...

   type   atoms  prim   cont   basis
   ---------------------------------------------------------------------------
    n        2     70     49   cc-pVTZ   [6s4p3d1f1g|12s5p4d2f1g]
    c       10     70     49   cc-pVTZ   [6s4p3d1f1g|12s5p4d2f1g]
    h       10     16     11   cc-pVTZ   [3s1p1d|5s2p1d]
   ---------------------------------------------------------------------------
   total:   22   1000    698
   ---------------------------------------------------------------------------

   total number of primitive shells          :   56
   total number of contracted shells         :  230
   total number of cartesian basis functions :  852
   total number of SCF-basis functions       :  698


 symmetry group of the molecule :   c1 

 the group has the following generators :
   c1(z)

    1 symmetry operations found

 there are 1 real representations :   a   

 maximum number of shells which are related by symmetry :  1


    mo occupation :
   irrep   mo's   occupied
    a      500       21
 
 number of basis functions   :                    500
 number of occupied orbitals :                     21
 
  
           ------------------
           density functional
           ------------------
 Dummy atoms with grid-point found.
 DFT quadrature threshold dgrenze tightened by factor 1/10.

 TPSS meta-GGA functional
 exchange:    LDA + TPSS
 correlation: LDA (PW) + TPSS
 Dummy atoms with grid-point found.
 DFT quadrature threshold dgrenze tightened by factor 1/10.

 Dummy atoms with grid-point found.
 DFT quadrature threshold dgrenze tightened by factor 1/10.


 iterations will be done with small grid
  
 spherical integration : Lebedev's spherical grid
 spherical gridsize    :                     5
    i.e. gridpoints    :                   590
 value for diffuse not defined
 radial integration    : Chebyshev 2nd kind (scaling 3)
 radial gridsize       :                     8
 integration cells     :                    22
 partition function    : becke
 partition sharpness   :                     3
  
 found dummy atom(s) with basis: included in dft

 biggest AO integral is expected to be     4.229423036
  
           ------------------------
               RI-J - INFORMATION
           ------------------------
 Contributions to RI integral batches: 
  neglected integral batches:                  4729
  direct contribution:                            0
  memory contribution:                 11561
 Memory core needed for (P|Q) and Cholesky      4 MByte
 Memory core minimum needed except of (P|Q)     1 MByte
 Total minimum memory core needed (sum)         5 MByte
  
 ****************************************
 Memory allocated for RI-J   711 MByte
 ****************************************
                                            

          ------------------------
          nuclear repulsion energy  :   206.168600036    
          ------------------------


         -----------------
         -S,T+V- integrals
         -----------------

 1e-integrals will be neglected if expon. factor < 0.586309E-14
 Difference densities >>NOT<< switched on in parallel ridft!

 DIIS switched on: error vector is FDS-SDF
 Max. Iterations for DIIS is     :   4
 DIIS matrix (see manual) 
    Scaling factor of diagonals  :  1.200
    threshold for scaling factor :  0.000

 scf convergence criterion : increment of total energy < .1000000D-08
                  and increment of one-electron energy < .1000000D-05

  MOs are in ASCII format !


 automatic virtual orbital shift switched on 
      shift if e(lumo)-e(homo) < 0.10000000    


 reading orbital data $scfmo  from file mos
 orbital characterization : expanded
 mo provided and orthogonalized by Cholesky decomposition

 DSCF restart information will be dumped onto file mos


 Starting SCF iterations

          Overall gridpoints after grid construction =        133674

 ITERATION  ENERGY          1e-ENERGY        2e-ENERGY     RMS[dD(SAO)]   TOL
   1  -247.44869423463    -732.82514325     279.20784898    0.000D+00 0.585D-13
                            Exc = -35.1441320385     Coul =  314.351981016    
                              N = 42.000029531    
                            current damping = 0.700
 
          max. resid. norm for Fia-block=  2.810D-01 for orbital     15a         
          max. resid. fock norm         =  1.443D+01 for orbital    492a         

 ITERATION  ENERGY          1e-ENERGY        2e-ENERGY     RMS[dD(SAO)]   TOL
   2  -248.22282243530    -739.07184674     284.68042427    0.226D-02 0.585D-13
                            Exc = -35.6305182368     Coul =  320.310942507    
                              N = 42.000033172    
                            current damping = 0.650
 
          Norm of current diis error:  2.0578    
          max. resid. norm for Fia-block=  1.350D-01 for orbital      1a         
          max. resid. fock norm         =  2.228D-01 for orbital    492a         

 ITERATION  ENERGY          1e-ENERGY        2e-ENERGY     RMS[dD(SAO)]   TOL
   3  -248.36083556601    -740.73773646     286.20830086    0.117D-02 0.585D-13
                            Exc = -35.8373961736     Coul =  322.045697031    
                              N = 42.000031082    
                            current damping = 0.550
 
          Norm of current diis error:  1.0200    
          max. resid. norm for Fia-block=  5.465D-02 for orbital     21a         
          max. resid. fock norm         =  6.046D-02 for orbital      7a         

 ITERATION  ENERGY          1e-ENERGY        2e-ENERGY     RMS[dD(SAO)]   TOL
   4  -248.40545263660    -741.42344222     286.84938955    0.851D-03 0.585D-13
                            Exc = -35.9059985296     Coul =  322.755388075    
                              N = 42.000032058    
                            current damping = 0.450
 
          Norm of current diis error: 0.40403    
          max. resid. norm for Fia-block=  2.725D-02 for orbital      7a         
          max. resid. fock norm         =  4.249D-02 for orbital    491a         

 ITERATION  ENERGY          1e-ENERGY        2e-ENERGY     RMS[dD(SAO)]   TOL
   5  -248.41138362040    -742.13113713     287.55115348    0.387D-03 0.585D-13
                            Exc = -35.9829711524     Coul =  323.534124629    
                              N = 42.000031711    
                            current damping = 0.350
 
          Norm of current diis error: 0.23054    
          max. resid. norm for Fia-block=  1.362D-02 for orbital     21a         
          max. resid. fock norm         =  1.457D-02 for orbital     21a         
          mo-orthogonalization: Cholesky decomposition

 ITERATION  ENERGY          1e-ENERGY        2e-ENERGY     RMS[dD(SAO)]   TOL
   6  -248.41373510516    -742.00068301     287.41834786    0.326D-03 0.585D-13
                            Exc = -35.9734763910     Coul =  323.391824255    
                              N = 42.000031802    
                            current damping = 0.400
 
          Norm of current diis error: 0.10315    
          max. resid. norm for Fia-block=  3.275D-03 for orbital     19a         
          max. resid. fock norm         =  7.482D-03 for orbital    492a         

 ITERATION  ENERGY          1e-ENERGY        2e-ENERGY     RMS[dD(SAO)]   TOL
   7  -248.41415163904    -742.05392387     287.47117220    0.660D-04 0.585D-13
                            Exc = -35.9795210781     Coul =  323.450693278    
                              N = 42.000031704    
                            current damping = 0.450
 
          Norm of current diis error: 0.32017E-01
          max. resid. norm for Fia-block=  1.479D-03 for orbital     13a         
          max. resid. fock norm         =  2.189D-03 for orbital    197a         

 ITERATION  ENERGY          1e-ENERGY        2e-ENERGY     RMS[dD(SAO)]   TOL
   8  -248.41418624929    -742.09369179     287.51090550    0.211D-04 0.585D-13
                            Exc = -35.9833891678     Coul =  323.494294669    
                              N = 42.000031704    
                            current damping = 0.300
 
          Norm of current diis error: 0.11805E-01
          max. resid. norm for Fia-block=  3.589D-04 for orbital     17a         
          max. resid. fock norm         =  5.837D-04 for orbital    197a         

 ITERATION  ENERGY          1e-ENERGY        2e-ENERGY     RMS[dD(SAO)]   TOL
   9  -248.41419198638    -742.09602338     287.51323135    0.876D-05 0.585D-13
                            Exc = -35.9834858395     Coul =  323.496717193    
                              N = 42.000031702    
                            current damping = 0.150
 
          Norm of current diis error: 0.19380E-02
          max. resid. norm for Fia-block=  1.060D-04 for orbital     20a         
          max. resid. fock norm         =  1.541D-04 for orbital     55a         

 ITERATION  ENERGY          1e-ENERGY        2e-ENERGY     RMS[dD(SAO)]   TOL
  10  -248.41419202341    -742.08829385     287.50550180    0.286D-05 0.585D-13
                            Exc = -35.9830311871     Coul =  323.488532982    
                              N = 42.000031690    
                            current damping = 0.200
 
          Norm of current diis error: 0.17454E-02
          max. resid. norm for Fia-block=  5.830D-05 for orbital     20a         
          max. resid. fock norm         =  7.823D-05 for orbital    490a         
          mo-orthogonalization: Cholesky decomposition

 ITERATION  ENERGY          1e-ENERGY        2e-ENERGY     RMS[dD(SAO)]   TOL
  11  -248.41419212876    -742.09120738     287.50841522    0.113D-05 0.585D-13
                            Exc = -35.9832129018     Coul =  323.491628117    
                              N = 42.000031693    
                            current damping = 0.250
 
          Norm of current diis error: 0.63500E-03
          max. resid. norm for Fia-block=  2.663D-05 for orbital     19a         
          max. resid. fock norm         =  4.195D-05 for orbital    492a         

 ITERATION  ENERGY          1e-ENERGY        2e-ENERGY     RMS[dD(SAO)]   TOL
  12  -248.41419214023    -742.09172137     287.50892919    0.571D-06 0.585D-13
                            Exc = -35.9832324424     Coul =  323.492161637    
                              N = 42.000031695    
                            current damping = 0.100
 
          Norm of current diis error: 0.36518E-03
          max. resid. norm for Fia-block=  1.313D-05 for orbital     19a         
          max. resid. fock norm         =  1.997D-05 for orbital    492a         

 ITERATION  ENERGY          1e-ENERGY        2e-ENERGY     RMS[dD(SAO)]   TOL
  13  -248.41419214499    -742.09201243     287.50922025    0.293D-06 0.585D-13
                            Exc = -35.9832650961     Coul =  323.492485344    
                              N = 42.000031694    
                            current damping = 0.050
 
          Norm of current diis error: 0.14534E-03
          max. resid. norm for Fia-block=  5.870D-06 for orbital     21a         
          max. resid. fock norm         =  7.688D-06 for orbital    492a         

 ITERATION  ENERGY          1e-ENERGY        2e-ENERGY     RMS[dD(SAO)]   TOL
  14  -248.41419214568    -742.09166162     287.50886943    0.146D-06 0.585D-13
                            Exc = -35.9832352679     Coul =  323.492104703    
                              N = 42.000031694    
                            current damping = 0.100
 
          Norm of current diis error: 0.70846E-04
          max. resid. norm for Fia-block=  2.041D-06 for orbital     13a         
          max. resid. fock norm         =  3.034D-06 for orbital    490a         

 DENSITY CONVERGED !


 ITERATION  ENERGY          1e-ENERGY        2e-ENERGY     RMS[dD(SAO)]   TOL
  15  -248.41419214588    -742.09173919     287.50894701    0.455D-07 0.585D-13
                            Exc = -35.9832423851     Coul =  323.492189394    
                              N = 42.000031694    
                            current damping = 0.150
 
          Norm of current diis error: 0.20327E-04
          max. resid. norm for Fia-block=  9.435D-07 for orbital     20a         
          max. resid. fock norm         =  1.468D-06 for orbital    493a         
          mo-orthogonalization: Cholesky decomposition

 DENSITY CONVERGED !


 ITERATION  ENERGY          1e-ENERGY        2e-ENERGY     RMS[dD(SAO)]   TOL
  16  -248.41419214589    -742.09177597     287.50898379    0.173D-07 0.585D-13
                            Exc = -35.9832444811     Coul =  323.492228268    
                              N = 42.000031694    
                            current damping = 0.050
 
          Norm of current diis error: 0.14333E-04
          max. resid. norm for Fia-block=  4.314D-07 for orbital     20a         
          max. resid. fock norm         =  7.357D-07 for orbital    493a         

 ENERGY & DENSITY CONVERGED !

          Overall gridpoints after grid construction =        350735

 ITERATION  ENERGY          1e-ENERGY        2e-ENERGY     RMS[dD(SAO)]   TOL
  17  -248.41404734736    -742.09176286     287.50911548    0.912D-08 0.585D-13
                            Exc = -35.9830990398     Coul =  323.492214519    
                              N = 41.999999257    
                            current damping = 0.100
 
          Norm of current diis error: 0.59622E-05
          max. resid. norm for Fia-block=  1.890D-07 for orbital     20a         
          max. resid. fock norm         =  2.883D-07 for orbital    493a         

 End of SCF iterations

   convergence criteria satisfied after    17 iterations


                  ------------------------------------------ 
                 |  total energy      =   -248.41404734736  |
                  ------------------------------------------ 
                 :  kinetic energy    =    247.01784913037  :
                 :  potential energy  =   -495.43189647773  :
                 :  virial theorem    =      1.99437955207  :
                 :  wavefunction norm =      1.00000000000  :
                  .......................................... 


 <geterg> : there is no data group $energy 


 <skperg> : $end is missing 


 orbitals $scfmo  will be written to file mos

    irrep                 17a         18a         19a         20a         21a   
 eigenvalues H         -0.36425    -0.32794    -0.26554    -0.24341    -0.21953
            eV          -9.9119     -8.9237     -7.2258     -6.6237     -5.9739
 occupation              2.0000      2.0000      2.0000      2.0000      2.0000 

    irrep                 22a         23a         24a         25a         26a   
 eigenvalues H         -0.05931    -0.04515     0.02791     0.04900     0.06258
            eV          -1.6140     -1.2285      0.7595      1.3333      1.7028
 
 
 
 
 ==============================================================================
                           electrostatic moments
 ==============================================================================

 reference point for electrostatic moments:    0.00000   0.00000   0.00000

 
              nuc           elec       ->  total
 ------------------------------------------------------------------------------
                          charge      
 ------------------------------------------------------------------------------
          42.000000     -42.000000      -0.000000
 
 ------------------------------------------------------------------------------
                       dipole moment  
 ------------------------------------------------------------------------------
   x     296.495506    -295.752628       0.742877
   y     -15.399856      15.863068       0.463213
   z       1.376765      -1.392254      -0.015489
 
   | dipole moment | =     0.8756 a.u. =     2.2255 debye 
 
 ------------------------------------------------------------------------------
                     quadrupole moment
 ------------------------------------------------------------------------------
  xx    2271.176291   -2286.327129     -15.150838
  yy     184.704917    -208.449409     -23.744493
  zz       0.129494     -27.864726     -27.735232
  xy    -110.485093     111.156450       0.671356
  xz       8.289515      -8.344952      -0.055437
  yz      -4.103016       4.055234      -0.047782
 
     1/3  trace=     -22.210188
     anisotropy=      11.200008
 
 ==============================================================================
 


    ------------------------------------------------------------------------
         total  cpu-time :  7 minutes and 21 seconds
         total wall-time :  1 minutes and  1 seconds
    ------------------------------------------------------------------------

   ****  ridft : all done  ****


    2018-04-28 21:09:06.336 

