
 eiger (gplogin3.local) : TURBOMOLE V7.2 ( 21285 ) 30 Jun 2017 at 11:51:10
 Copyright (C) 2017 TURBOMOLE GmbH, Karlsruhe


    2017-11-13 07:49:38.197 

                                                                                
  
 HOMO-LUMO Separation
   HOMO:   233.   233 a     -0.19440779 H =     -5.29011 eV
   LUMO:   234.   234 a     -0.15488980 H =     -4.21477 eV
   Gap :                    +0.03951799 H =     +1.07534 eV
 
Number of MOs=   4725, Electrons=    466.00, Symmetry: c1   
 
   Nr.   Orbital    Occupation       Energy
  250.   250 a                     -0.044202 H =        -1.203 eV
  249.   249 a                     -0.049541 H =        -1.348 eV
  248.   248 a                     -0.050933 H =        -1.386 eV
  247.   247 a                     -0.059994 H =        -1.633 eV
  246.   246 a                     -0.063808 H =        -1.736 eV
  245.   245 a                     -0.067290 H =        -1.831 eV
  244.   244 a                     -0.069148 H =        -1.882 eV
  243.   243 a                     -0.074757 H =        -2.034 eV
  242.   242 a                     -0.075809 H =        -2.063 eV
  241.   241 a                     -0.093465 H =        -2.543 eV
  240.   240 a                     -0.108504 H =        -2.953 eV
  239.   239 a                     -0.110731 H =        -3.013 eV
  238.   238 a                     -0.111248 H =        -3.027 eV
  237.   237 a                     -0.122408 H =        -3.331 eV
  236.   236 a                     -0.129731 H =        -3.530 eV
  235.   235 a                     -0.145207 H =        -3.951 eV
  234.   234 a                     -0.154890 H =        -4.215 eV
  233.   233 a        2.000        -0.194408 H =        -5.290 eV
  232.   232 a        2.000        -0.196281 H =        -5.341 eV
  231.   231 a        2.000        -0.218843 H =        -5.955 eV
  230.   230 a        2.000        -0.224908 H =        -6.120 eV
  229.   229 a        2.000        -0.230271 H =        -6.266 eV
  228.   228 a        2.000        -0.233386 H =        -6.351 eV
  227.   227 a        2.000        -0.234764 H =        -6.388 eV
  226.   226 a        2.000        -0.235801 H =        -6.416 eV
  225.   225 a        2.000        -0.238214 H =        -6.482 eV
  224.   224 a        2.000        -0.239398 H =        -6.514 eV
  223.   223 a        2.000        -0.244145 H =        -6.644 eV
  222.   222 a        2.000        -0.246255 H =        -6.701 eV
  221.   221 a        2.000        -0.248607 H =        -6.765 eV
  220.   220 a        2.000        -0.249755 H =        -6.796 eV
  219.   219 a        2.000        -0.259343 H =        -7.057 eV
  218.   218 a        2.000        -0.260750 H =        -7.095 eV


    ------------------------------------------------------------------------
         total  cpu-time :  10.26 seconds
         total wall-time :  10.41 seconds
    ------------------------------------------------------------------------

   ****  eiger : all done  ****


    2017-11-13 07:49:48.580 

