           Doing BLAS/Lapack in the master proc. with  8 CPUs.
           SMPCPUS    set: Shared-memory Parallelization with   8 CPUs.

           SMP Parallelization Reference:
           C. van Wullen, J. Comput. Chem. 32 (2011) 1195--1201
 operating system is UNIX !

 ridft (c-18-133.gp.local) : TURBOMOLE V7.2 ( 21454 ) 4 Oct 2017 at 12:48:15
 Copyright (C) 2017 TURBOMOLE GmbH, Karlsruhe


    2018-04-28 20:59:33.571 



                                  r i d f t

                        DFT program with RI approximation 
                                for coulomb part 




                                                 
                                 References:     
                                                 
          TURBOMOLE:                             
              R. Ahlrichs, M. Baer, M. Haeser, H. Horn, and
              C. Koelmel
              Electronic structure calculations on workstation
              computers: the program system TURBOMOLE
              Chem. Phys. Lett. 162: 165 (1989)
          Density Functional:                              
              O. Treutler and R. Ahlrichs                      
              Efficient Molecular Numerical Integration Schemes
              J. Chem. Phys. 102: 346 (1995)                   
          Parallel Version:                                
              Performance of parallel TURBOMOLE for Density    
              Functional Calculations                          
              M. v. Arnim and R. Ahlrichs                      
              J. Comp. Chem. 19: 1746 (1998)                   
          RI-J Method:                                     
              Auxiliary Basis Sets to approximate Coulomb      
              Potentials                                       
              Chem. Phys. Lett. 240: 283 (1995)                
              K. Eichkorn, O. Treutler, H. Oehm, M. Haeser     
              and R. Ahlrichs                                  
              Chem. Phys. Lett. 242: 652 (1995)                
                                                           
              Auxiliary Basis Sets for Main Row Atoms and their
              Use to approximate Coulomb Potentials            
              K. Eichkorn, F. Weigend, O. Treutler and         
              R. Ahlrichs                                      
              Theo. Chem. Acc. 97: 119 (1997)                   
                                                           
              Accurate Coulomb-fitting basis sets for H to Rn 
              F. Weigend                                        
              Phys. Chem. Chem. Phys. 8: 1057 (2006)            
                                                           
          Multipole accelerated RI-J (MARI-J):             
              Fast evaluation of the Coulomb potential for     
              electron densities using multipole accelerated   
              resolution of identity approximation             
              M. Sierka, A. Hogekamp and R. Ahlrichs           
              J. Chem. Phys. 118: 9136 (2003)                  
          RI-JK Method:                                     
              A fully direct RI-HF algorithm: Implementation,
              optimised auxiliary basis sets, demonstration of
              accuracy and efficiency                         
              F. Weigend                                      
              Phys. Chem. Chem. Phys. 4: 4285 (2002)           
          Two-component HF and DFT with spin-orbit coupling:  
              Self-consistent treatment of spin-orbit         
              interactions with efficient Hartree-Fock and    
              density functional methods                      
              M. K. Armbruster, F. Weigend, C. van Wüllen and 
              W. Klopper                                      
              Phys. Chem. Chem. Phys. 10: 1748 (2008)         
          Relativistic all-electron 2c calculations           
              An efficient implementation of two-component    
              relativistic exact-decoupling methods for large 
              molecules                                       
              D. Peng, N. Middendorf, F. Weigend, M. Reiher   
              J. Chem. Phys. 138, 184105 (2013)               
                                         




              +--------------------------------------------------+
              |      general information about current run       |
              +--------------------------------------------------+

 

 DENSITY CONVERGENCE CHECK SWITCHED ON !
 SCF CONVERGENCE IF RMS(delta[D]) <     0.1000000000E-06

 TPSS meta-GGA functional
 exchange:    LDA + TPSS
 correlation: LDA (PW) + TPSS
 A DFT calculation using the RI-J approximation will be carried out.
 Allocatable memory for RI due to $ricore (MB):                  5000


              +--------------------------------------------------+
              | Atomic coordinate, charge and isotop information |
              +--------------------------------------------------+

                    atomic coordinates            atom    charge  isotop
         -1.32695823   -0.10593853    0.01878815    o      8.000     0
         -1.93166525    1.60017432   -0.02171052    h      1.000     0
          0.48664428    0.07959809    0.00986248    h      1.000     0
          4.19683809    0.05048742    0.00117253    o      0.000     0
          4.90854980   -0.77793085    1.44893780    h      0.000     0
          4.90031570   -0.84942468   -1.40743406    h      0.000     0
 
       center of nuclear mass  :    1.50834956   -0.02315665    0.00969316
       center of nuclear charge:   -1.20606868    0.08322642    0.01384572

              +--------------------------------------------------+
              |               basis set information              |
              +--------------------------------------------------+

              we will work with the 1s 3p 5d 7f 9g ... basis set
              ...i.e. with spherical basis functions...

   type   atoms  prim   cont   basis
   ---------------------------------------------------------------------------
    o        2     50     30   cc-pVTZ   [4s3p2d1f|18s5p2d1f]
    h        4     16     14   cc-pVTZ   [3s2p1d|5s2p1d]
   ---------------------------------------------------------------------------
   total:    6    164    116
   ---------------------------------------------------------------------------

   total number of primitive shells          :   34
   total number of contracted shells         :   44
   total number of cartesian basis functions :  130
   total number of SCF-basis functions       :  116


 integral neglect threshold       :  0.26E-12
 integral storage threshold THIZE :  0.10E-04
 integral storage threshold THIME :         5

 RI-J AUXILIARY BASIS SET information:

              we will work with the 1s 3p 5d 7f 9g ... basis set
              ...i.e. with spherical basis functions...

   type   atoms  prim   cont   basis
   ---------------------------------------------------------------------------
    o        2     70     49   cc-pVTZ   [6s4p3d1f1g|12s5p4d2f1g]
    h        4     16     11   cc-pVTZ   [3s1p1d|5s2p1d]
   ---------------------------------------------------------------------------
   total:    6    204    142
   ---------------------------------------------------------------------------

   total number of primitive shells          :   32
   total number of contracted shells         :   50
   total number of cartesian basis functions :  170
   total number of SCF-basis functions       :  142


 symmetry group of the molecule :   c1 

 the group has the following generators :
   c1(z)

    1 symmetry operations found

 there are 1 real representations :   a   

 maximum number of shells which are related by symmetry :  1


    mo occupation :
   irrep   mo's   occupied
    a      116        5
 
 number of basis functions   :                    116
 number of occupied orbitals :                      5
 
  
           ------------------
           density functional
           ------------------
 Dummy atoms with grid-point found.
 DFT quadrature threshold dgrenze tightened by factor 1/10.

 TPSS meta-GGA functional
 exchange:    LDA + TPSS
 correlation: LDA (PW) + TPSS
 Dummy atoms with grid-point found.
 DFT quadrature threshold dgrenze tightened by factor 1/10.

 Dummy atoms with grid-point found.
 DFT quadrature threshold dgrenze tightened by factor 1/10.


 iterations will be done with small grid
  
 spherical integration : Lebedev's spherical grid
 spherical gridsize    :                     5
    i.e. gridpoints    :                   590
 value for diffuse not defined
 radial integration    : Chebyshev 2nd kind (scaling 3)
 radial gridsize       :                     8
 integration cells     :                     6
 partition function    : becke
 partition sharpness   :                     3
  
 found dummy atom(s) with basis: included in dft

 biggest AO integral is expected to be     4.866064444
  
           ------------------------
               RI-J - INFORMATION
           ------------------------
 Contributions to RI integral batches: 
  neglected integral batches:                    50
  direct contribution:                            0
  memory contribution:                   940
 Memory core needed for (P|Q) and Cholesky      1 MByte
 Memory core minimum needed except of (P|Q)     1 MByte
 Total minimum memory core needed (sum)         1 MByte
  
 ****************************************
 Memory allocated for RI-J    11 MByte
 ****************************************
                                            

          ------------------------
          nuclear repulsion energy  :   9.15671409308    
          ------------------------


         -----------------
         -S,T+V- integrals
         -----------------

 1e-integrals will be neglected if expon. factor < 0.257074E-13
 Difference densities >>NOT<< switched on in parallel ridft!

 DIIS switched on: error vector is FDS-SDF
 Max. Iterations for DIIS is     :   4
 DIIS matrix (see manual) 
    Scaling factor of diagonals  :  1.200
    threshold for scaling factor :  0.000

 scf convergence criterion : increment of total energy < .1000000D-08
                  and increment of one-electron energy < .1000000D-05

  MOs are in ASCII format !


 automatic virtual orbital shift switched on 
      shift if e(lumo)-e(homo) < 0.10000000    


 reading orbital data $scfmo  from file mos
 orbital characterization : expanded
 mo provided and orthogonalized by Cholesky decomposition

 DSCF restart information will be dumped onto file mos


 Starting SCF iterations

          Overall gridpoints after grid construction =         31636

 ITERATION  ENERGY          1e-ENERGY        2e-ENERGY     RMS[dD(SAO)]   TOL
   1  -76.217215271843    -124.36105887     38.987129505    0.000D+00 0.256D-12
                            Exc = -9.51822341529     Coul =  48.5053529207    
                              N = 10.000004265    
                            current damping = 0.700
 
          max. resid. norm for Fia-block=  3.044D-01 for orbital      4a         
          max. resid. fock norm         =  1.566D+01 for orbital    111a         

 ITERATION  ENERGY          1e-ENERGY        2e-ENERGY     RMS[dD(SAO)]   TOL
   2  -76.416521948609    -123.17249749     37.599261452    0.296D-02 0.256D-12
                            Exc = -9.33560814698     Coul =  46.9348695987    
                              N = 10.000004446    
                            current damping = 0.650
 
          Norm of current diis error: 0.87742    
          max. resid. norm for Fia-block=  1.334D-01 for orbital      1a         
          max. resid. fock norm         =  1.356D-01 for orbital      1a         

 ITERATION  ENERGY          1e-ENERGY        2e-ENERGY     RMS[dD(SAO)]   TOL
   3  -76.450558457283    -123.30132564     37.694053089    0.157D-02 0.256D-12
                            Exc = -9.36720047293     Coul =  47.0612535617    
                              N = 10.000004259    
                            current damping = 0.600
 
          Norm of current diis error: 0.39573    
          max. resid. norm for Fia-block=  5.467D-02 for orbital      1a         
          max. resid. fock norm         =  5.628D-02 for orbital      1a         

 ITERATION  ENERGY          1e-ENERGY        2e-ENERGY     RMS[dD(SAO)]   TOL
   4  -76.459291170111    -123.03863602     37.422630753    0.996D-03 0.256D-12
                            Exc = -9.33894213748     Coul =  46.7615728900    
                              N = 10.000004207    
                            current damping = 0.650
 
          Norm of current diis error: 0.14608    
          max. resid. norm for Fia-block=  2.039D-02 for orbital      1a         
          max. resid. fock norm         =  2.277D-02 for orbital     54a         

 ITERATION  ENERGY          1e-ENERGY        2e-ENERGY     RMS[dD(SAO)]   TOL
   5  -76.460588275521    -123.10768191     37.490379541    0.428D-03 0.256D-12
                            Exc = -9.35214195527     Coul =  46.8425214967    
                              N = 10.000004154    
                            current damping = 0.700
 
          Norm of current diis error: 0.60502E-01
          max. resid. norm for Fia-block=  8.224D-03 for orbital      1a         
          max. resid. fock norm         =  8.482D-03 for orbital      1a         
          mo-orthogonalization: Cholesky decomposition

 ITERATION  ENERGY          1e-ENERGY        2e-ENERGY     RMS[dD(SAO)]   TOL
   6  -76.460841967545    -123.06979919     37.452243127    0.197D-03 0.256D-12
                            Exc = -9.34838838732     Coul =  46.8006315140    
                              N = 10.000004145    
                            current damping = 0.750
 
          Norm of current diis error: 0.24110E-01
          max. resid. norm for Fia-block=  3.367D-03 for orbital      1a         
          max. resid. fock norm         =  3.777D-03 for orbital     61a         

 ITERATION  ENERGY          1e-ENERGY        2e-ENERGY     RMS[dD(SAO)]   TOL
   7  -76.460881176873    -123.07534407     37.457748798    0.774D-04 0.256D-12
                            Exc = -9.34974939931     Coul =  46.8074981972    
                              N = 10.000004138    
                            current damping = 0.800
 
          Norm of current diis error: 0.10370E-01
          max. resid. norm for Fia-block=  1.442D-03 for orbital      1a         
          max. resid. fock norm         =  1.491D-03 for orbital      6a         

 ITERATION  ENERGY          1e-ENERGY        2e-ENERGY     RMS[dD(SAO)]   TOL
   8  -76.460888861555    -123.07268038     37.455077420    0.348D-04 0.256D-12
                            Exc = -9.34963883427     Coul =  46.8047162547    
                              N = 10.000004136    
                            current damping = 0.850
 
          Norm of current diis error: 0.46048E-02
          max. resid. norm for Fia-block=  6.409D-04 for orbital      1a         
          max. resid. fock norm         =  7.329D-04 for orbital     61a         

 ITERATION  ENERGY          1e-ENERGY        2e-ENERGY     RMS[dD(SAO)]   TOL
   9  -76.460890293636    -123.07358893     37.455984543    0.146D-04 0.256D-12
                            Exc = -9.34987284158     Coul =  46.8058573846    
                              N = 10.000004134    
                            current damping = 0.900
 
          Norm of current diis error: 0.21230E-02
          max. resid. norm for Fia-block=  2.963D-04 for orbital      1a         
          max. resid. fock norm         =  3.065D-04 for orbital      6a         

 ITERATION  ENERGY          1e-ENERGY        2e-ENERGY     RMS[dD(SAO)]   TOL
  10  -76.460890612285    -123.07256949     37.454964781    0.704D-05 0.256D-12
                            Exc = -9.34978247166     Coul =  46.8047472531    
                              N = 10.000004134    
                            current damping = 0.950
 
          Norm of current diis error: 0.10343E-02
          max. resid. norm for Fia-block=  1.412D-04 for orbital      2a         
          max. resid. fock norm         =  1.858D-04 for orbital     61a         
          mo-orthogonalization: Cholesky decomposition

 ITERATION  ENERGY          1e-ENERGY        2e-ENERGY     RMS[dD(SAO)]   TOL
  11  -76.460890677289    -123.07310192     37.455497154    0.295D-05 0.256D-12
                            Exc = -9.34987730072     Coul =  46.8053744550    
                              N = 10.000004133    
                            current damping = 1.000
 
          Norm of current diis error: 0.49410E-03
          max. resid. norm for Fia-block=  6.839D-05 for orbital      1a         
          max. resid. fock norm         =  7.131D-05 for orbital      6a         

 ITERATION  ENERGY          1e-ENERGY        2e-ENERGY     RMS[dD(SAO)]   TOL
  12  -76.460890694262    -123.07285790     37.455253113    0.156D-05 0.256D-12
                            Exc = -9.34985453298     Coul =  46.8051076461    
                              N = 10.000004133    
                            current damping = 1.050
 
          Norm of current diis error: 0.24377E-03
          max. resid. norm for Fia-block=  3.412D-05 for orbital      1a         
          max. resid. fock norm         =  4.098D-05 for orbital     61a         

 ITERATION  ENERGY          1e-ENERGY        2e-ENERGY     RMS[dD(SAO)]   TOL
  13  -76.460890698018    -123.07290433     37.455299535    0.693D-06 0.256D-12
                            Exc = -9.34986590705     Coul =  46.8051654421    
                              N = 10.000004133    
                            current damping = 1.100
 
          Norm of current diis error: 0.12278E-03
          max. resid. norm for Fia-block=  1.751D-05 for orbital      1a         
          max. resid. fock norm         =  1.865D-05 for orbital      6a         

 ITERATION  ENERGY          1e-ENERGY        2e-ENERGY     RMS[dD(SAO)]   TOL
  14  -76.460890699013    -123.07288511     37.455280319    0.360D-06 0.256D-12
                            Exc = -9.34986579783     Coul =  46.8051461173    
                              N = 10.000004133    
                            current damping = 1.150
 
          Norm of current diis error: 0.64808E-04
          max. resid. norm for Fia-block=  9.166D-06 for orbital      1a         
          max. resid. fock norm         =  1.116D-05 for orbital     61a         

 ITERATION  ENERGY          1e-ENERGY        2e-ENERGY     RMS[dD(SAO)]   TOL
  15  -76.460890699273    -123.07289729     37.455292494    0.177D-06 0.256D-12
                            Exc = -9.34986873070     Coul =  46.8051612252    
                              N = 10.000004133    
                            current damping = 1.200
 
          Norm of current diis error: 0.34349E-04
          max. resid. norm for Fia-block=  4.919D-06 for orbital      1a         
          max. resid. fock norm         =  5.211D-06 for orbital      6a         
          mo-orthogonalization: Cholesky decomposition

 DENSITY CONVERGED !


 ITERATION  ENERGY          1e-ENERGY        2e-ENERGY     RMS[dD(SAO)]   TOL
  16  -76.460890699350    -123.07288478     37.455279990    0.992D-07 0.256D-12
                            Exc = -9.34986768969     Coul =  46.8051476795    
                              N = 10.000004133    
                            current damping = 1.250
 
          Norm of current diis error: 0.19318E-04
          max. resid. norm for Fia-block=  2.679D-06 for orbital      1a         
          max. resid. fock norm         =  3.559D-06 for orbital     61a         

 DENSITY CONVERGED !


 ITERATION  ENERGY          1e-ENERGY        2e-ENERGY     RMS[dD(SAO)]   TOL
  17  -76.460890699371    -123.07289170     37.455286907    0.483D-07 0.256D-12
                            Exc = -9.34986897977     Coul =  46.8051558865    
                              N = 10.000004133    
                            current damping = 1.300
 
          Norm of current diis error: 0.10372E-04
          max. resid. norm for Fia-block=  1.492D-06 for orbital      1a         
          max. resid. fock norm         =  1.595D-06 for orbital      6a         

 ENERGY & DENSITY CONVERGED !

          Overall gridpoints after grid construction =         91952

 ITERATION  ENERGY          1e-ENERGY        2e-ENERGY     RMS[dD(SAO)]   TOL
  18  -76.460875782291    -123.07288869     37.455298814    0.283D-07 0.256D-12
                            Exc = -9.34985384109     Coul =  46.8051526546    
                              N = 9.9999999755    
                            current damping = 1.350
 
          Norm of current diis error: 0.59381E-05
          max. resid. norm for Fia-block=  8.412D-07 for orbital      1a         
          max. resid. fock norm         =  9.772D-07 for orbital     61a         

 End of SCF iterations

   convergence criteria satisfied after    18 iterations


                  ------------------------------------------ 
                 |  total energy      =    -76.46087578229  |
                  ------------------------------------------ 
                 :  kinetic energy    =     76.14351674862  :
                 :  potential energy  =   -152.60439253092  :
                 :  virial theorem    =      1.99584939316  :
                 :  wavefunction norm =      1.00000000000  :
                  .......................................... 


 <geterg> : there is no data group $energy 


 <skperg> : $end is missing 


 orbitals $scfmo  will be written to file mos

    irrep                  1a          2a          3a          4a          5a   
 eigenvalues H        -18.87514    -0.94023    -0.47625    -0.33529    -0.25510
            eV        -513.6227    -25.5851    -12.9596     -9.1237     -6.9416
 occupation              2.0000      2.0000      2.0000      2.0000      2.0000 

    irrep                  6a          7a          8a          9a         10a   
 eigenvalues H          0.00533     0.06733     0.15917     0.16829     0.32606
            eV           0.1451      1.8321      4.3313      4.5795      8.8725
 
 
 
 
 ==============================================================================
                           electrostatic moments
 ==============================================================================

 reference point for electrostatic moments:    0.00000   0.00000   0.00000

 
              nuc           elec       ->  total
 ------------------------------------------------------------------------------
                          charge      
 ------------------------------------------------------------------------------
          10.000000     -10.000000      -0.000000
 
 ------------------------------------------------------------------------------
                       dipole moment  
 ------------------------------------------------------------------------------
   x     -12.060687      12.449062       0.388376
   y       0.832264      -0.205056       0.627208
   z       0.138457      -0.154815      -0.016358
 
   | dipole moment | =     0.7379 a.u. =     1.8755 debye 
 
 ------------------------------------------------------------------------------
                     quadrupole moment
 ------------------------------------------------------------------------------
  xx      18.054699     -22.666040      -4.611341
  yy       2.656678      -6.755911      -4.099233
  zz       0.003393      -5.470501      -5.467108
  xy      -1.927657       0.610720      -1.316937
  xz      -0.152712       0.188089       0.035377
  yz      -0.049879       0.027552      -0.022327
 
     1/3  trace=      -4.725894
     anisotropy=       2.577024
 
 ==============================================================================
 


    ------------------------------------------------------------------------
         total  cpu-time :  39.08 seconds
         total wall-time :   3.25 seconds
    ------------------------------------------------------------------------

   ****  ridft : all done  ****


    2018-04-28 20:59:36.810 

