
   OpenMP run-time library returned nthreads = 10

 data group $actual step is not empty 
 due to the abend of ricc2


 ricc2 (c-13-32.gp.local) : TURBOMOLE V7.2 ( 21471 ) 11 Oct 2017 at 17:04:51
 Copyright (C) 2017 TURBOMOLE GmbH, Karlsruhe


    2018-04-11 12:02:39.637 



                              R I C C 2 - PROGRAM

                          the quantum chemistry groups
                             at the universities in
                           Karlsruhe, Bochum & Mainz
                                   Germany



   *-----------------------------------------------------------------------*
   |                     program will use 10 thread(s)                     |
   *-----------------------------------------------------------------------*


              +--------------------------------------------------+
              | Atomic coordinate, charge and isotop information |
              +--------------------------------------------------+

                    atomic coordinates            atom    charge  isotop
         -3.27416980    5.67930690   -2.27969354    c      6.000     0
         -3.27416980   -5.67930690   -2.27969354    c      6.000     0
         -3.27416980    5.67930690    2.27969354    c      6.000     0
         -3.27416980   -5.67930690    2.27969354    c      6.000     0
          5.98707185   -2.67014708    2.27969354    c      6.000     0
          5.98707185    2.67014708    2.27969354    c      6.000     0
          5.98707185    2.67014708   -2.27969354    c      6.000     0
          5.98707185   -2.67014708   -2.27969354    c      6.000     0
         -0.68935383    6.51916452    2.27969354    c      6.000     0
         -0.68935383   -6.51916452    2.27969354    c      6.000     0
         -0.68935383    6.51916452   -2.27969354    c      6.000     0
         -0.68935383   -6.51916452   -2.27969354    c      6.000     0
          4.38956772   -4.86892287    2.27969354    c      6.000     0
          4.38956772    4.86892287   -2.27969354    c      6.000     0
          4.38956772   -4.86892287   -2.27969354    c      6.000     0
          4.38956772    4.86892287    2.27969354    c      6.000     0
         -6.41311595   -1.35891818   -2.27969354    c      6.000     0
         -6.41311595    1.35891818   -2.27969354    c      6.000     0
         -6.41311595    1.35891818    2.27969354    c      6.000     0
         -6.41311595   -1.35891818    2.27969354    c      6.000     0
         -3.71941222    4.32736487   -4.61290060    c      6.000     0
         -3.71941222   -4.32736487   -4.61290060    c      6.000     0
         -3.71941222    4.32736487    4.61290060    c      6.000     0
         -3.71941222   -4.32736487    4.61290060    c      6.000     0
          2.96620698   -4.87460051   -4.61290060    c      6.000     0
          2.96620698   -4.87460051    4.61290060    c      6.000     0
          2.96620698    4.87460051   -4.61290060    c      6.000     0
          2.96620698    4.87460051    4.61290060    c      6.000     0
          5.55262894   -1.31469607   -4.61290060    c      6.000     0
          5.55262894   -1.31469607    4.61290060    c      6.000     0
          5.55262894    1.31469607   -4.61290060    c      6.000     0
          5.55262894    1.31469607    4.61290060    c      6.000     0
          0.46550644   -5.68712737    4.61290060    c      6.000     0
          0.46550644   -5.68712737   -4.61290060    c      6.000     0
          0.46550644    5.68712737    4.61290060    c      6.000     0
          0.46550644    5.68712737   -4.61290060    c      6.000     0
         -5.26493014   -2.20014194    4.61290060    c      6.000     0
         -5.26493014    2.20014194   -4.61290060    c      6.000     0
         -5.26493014    2.20014194    4.61290060    c      6.000     0
         -5.26493014   -2.20014194   -4.61290060    c      6.000     0
         -1.41140559    4.34385973   -6.08396922    c      6.000     0
         -1.41140559   -4.34385973   -6.08396922    c      6.000     0
         -1.41140559   -4.34385973    6.08396922    c      6.000     0
         -1.41140559    4.34385973    6.08396922    c      6.000     0
         -4.56740442    0.00000000    6.08396922    c      6.000     0
         -4.56740442    0.00000000   -6.08396922    c      6.000     0
          3.69510779    2.68465296    6.08396922    c      6.000     0
          3.69510779    2.68465296   -6.08396922    c      6.000     0
          3.69510779   -2.68465296   -6.08396922    c      6.000     0
          3.69510779   -2.68465296    6.08396922    c      6.000     0
         -2.33356460    0.00000000    7.49342187    c      6.000     0
         -2.33356460    0.00000000   -7.49342187    c      6.000     0
          1.88789342    1.37163485    7.49342187    c      6.000     0
          1.88789342   -1.37163485    7.49342187    c      6.000     0
          1.88789342    1.37163485   -7.49342187    c      6.000     0
          1.88789342   -1.37163485   -7.49342187    c      6.000     0
         -0.72111112   -2.21935182    7.49342187    c      6.000     0
         -0.72111112    2.21935182    7.49342187    c      6.000     0
         -0.72111112   -2.21935182   -7.49342187    c      6.000     0
         -0.72111112    2.21935182   -7.49342187    c      6.000     0
          6.58736779   -1.38697353    0.00000000    c      6.000     0
          6.58736779    1.38697353    0.00000000    c      6.000     0
         -6.14453508    2.74987248    0.00000000    c      6.000     0
         -6.14453508   -2.74987248    0.00000000    c      6.000     0
         -4.51404991   -4.99404280    0.00000000    c      6.000     0
         -4.51404991    4.99404280    0.00000000    c      6.000     0
          3.35469881   -5.83636067    0.00000000    c      6.000     0
          3.35469881    5.83636067    0.00000000    c      6.000     0
          0.71651838   -6.69355746    0.00000000    c      6.000     0
          0.71651838    6.69355746    0.00000000    c      6.000     0
 
       center of nuclear mass  :   -0.00000000    0.00000000    0.00000000
       center of nuclear charge:   -0.00000000    0.00000000    0.00000000

              +--------------------------------------------------+
              |               basis set information              |
              +--------------------------------------------------+

              we will work with the 1s 3p 5d 7f 9g ... basis set
              ...i.e. with spherical basis functions...

   type   atoms  prim   cont   basis
   ---------------------------------------------------------------------------
    c       70     50     30   cc-pVTZ   [4s3p2d1f|18s5p2d1f]
   ---------------------------------------------------------------------------
   total:   70   3500   2100
   ---------------------------------------------------------------------------

   total number of primitive shells          :   26
   total number of contracted shells         :  700
   total number of cartesian basis functions : 2450
   total number of SCF-basis functions       : 2100


 symmetry group of the molecule :   c1 

 the group has the following generators :
   c1(z)

    1 symmetry operations found

 there are 1 real representations :   a   


   =========================================================================


     restricted closed shell calculation for the wavefunction models:
               MP2        - Second Order Moeller Plesset PT


     global parameters for ricc2 program:

        hard restart (reuse of interm.) :  enabled 
        soft restart (reuse of vectors) :  disabled
        threshold for vector function   :    0.100000E-05
        convergence threshold energy    :    0.100000E-06
        linear dependence threshold     :    0.100000E-13
        global print level              :      1
        maximum number of iterations    :   300
        maximum number DIIS vectors     :    10
        max. dim. of reduced space      :   100
        core memory limit (MB)          : 47683


     MP2 energy only: Energy will be calculated directly from T2 amplitudes!

     Scratch Directory : 


   =========================================================================

    der. integral neglect threshold  :  0.10E-07
    integral neglect threshold       :  0.14E-11
    integral storage threshold THIZE :  0.10E-04
    integral storage threshold THIME :         5


                  +------------------------------------------+
                  |     Auxiliary basis set information      |
                  +------------------------------------------+

              we will work with the 1s 3p 5d 7f 9g ... basis set
              ...i.e. with spherical basis functions...

   type   atoms  prim   cont   basis
   ---------------------------------------------------------------------------
    c       70     81     81   cc-pVTZ   [8s6p5d3f1g|8s6p5d3f1g]
   ---------------------------------------------------------------------------
   total:   70   5670   5670
   ---------------------------------------------------------------------------

   total number of primitive shells          :   23
   total number of contracted shells         : 1610
   total number of cartesian basis functions : 7070
   total number of SCF-basis functions       : 5670


 maximum number of shells which are related by symmetry :  1



     restored sucessfully symmetry projectors
     skipped calculation of symmetry projectors

 The symmetry information takes   1 MB

*---------------------------------------------------------------------*
|               simplified C1 algorithm will be applied               |
*---------------------------------------------------------------------*
  MOs are in ASCII format !


 reading orbital data $scfmo  from file mos
 orbital characterization : scfconv=9



              +--------------------------------------------+
              | list of orbitals that will be kept frozen: |
              +--------------------------------------------+
              |   irrep   index      energy     occ/vir    |
              +--------------------------------------------+
              |   a         1      -11.2971     occupied   |
              |   a         2      -11.2971     occupied   |
              |   a         3      -11.2971     occupied   |
              |   a         4      -11.2971     occupied   |
              |   a         5      -11.2971     occupied   |
              |   a         6      -11.2963     occupied   |
              |   a         7      -11.2963     occupied   |
              |   a         8      -11.2963     occupied   |
              |   a         9      -11.2963     occupied   |
              |   a        10      -11.2963     occupied   |
              |   a        11      -11.2939     occupied   |
              |   a        12      -11.2939     occupied   |
              |   a        13      -11.2934     occupied   |
              |   a        14      -11.2934     occupied   |
              |   a        15      -11.2934     occupied   |
              |   a        16      -11.2934     occupied   |
              |   a        17      -11.2923     occupied   |
              |   a        18      -11.2923     occupied   |
              |   a        19      -11.2923     occupied   |
              |   a        20      -11.2923     occupied   |
              |   a        21      -11.2882     occupied   |
              |   a        22      -11.2881     occupied   |
              |   a        23      -11.2881     occupied   |
              |   a        24      -11.2881     occupied   |
              |   a        25      -11.2881     occupied   |
              |   a        26      -11.2881     occupied   |
              |   a        27      -11.2880     occupied   |
              |   a        28      -11.2880     occupied   |
              |   a        29      -11.2879     occupied   |
              |   a        30      -11.2879     occupied   |
              |   a        31      -11.2877     occupied   |
              |   a        32      -11.2877     occupied   |
              |   a        33      -11.2877     occupied   |
              |   a        34      -11.2877     occupied   |
              |   a        35      -11.2875     occupied   |
              |   a        36      -11.2875     occupied   |
              |   a        37      -11.2874     occupied   |
              |   a        38      -11.2874     occupied   |
              |   a        39      -11.2873     occupied   |
              |   a        40      -11.2873     occupied   |
              |   a        41      -11.2871     occupied   |
              |   a        42      -11.2870     occupied   |
              |   a        43      -11.2869     occupied   |
              |   a        44      -11.2869     occupied   |
              |   a        45      -11.2869     occupied   |
              |   a        46      -11.2869     occupied   |
              |   a        47      -11.2867     occupied   |
              |   a        48      -11.2867     occupied   |
              |   a        49      -11.2866     occupied   |
              |   a        50      -11.2866     occupied   |
              |   a        51      -11.2864     occupied   |
              |   a        52      -11.2864     occupied   |
              |   a        53      -11.2864     occupied   |
              |   a        54      -11.2864     occupied   |
              |   a        55      -11.2861     occupied   |
              |   a        56      -11.2861     occupied   |
              |   a        57      -11.2861     occupied   |
              |   a        58      -11.2861     occupied   |
              |   a        59      -11.2860     occupied   |
              |   a        60      -11.2860     occupied   |
              |   a        61      -11.2850     occupied   |
              |   a        62      -11.2850     occupied   |
              |   a        63      -11.2850     occupied   |
              |   a        64      -11.2850     occupied   |
              |   a        65      -11.2850     occupied   |
              |   a        66      -11.2850     occupied   |
              |   a        67      -11.2849     occupied   |
              |   a        68      -11.2849     occupied   |
              |   a        69      -11.2849     occupied   |
              |   a        70      -11.2849     occupied   |
              +--------------------------------------------+



   Molecular Orbital Statistic:
   ============================

   -----------------------------
   orbitals in total:
   -----------------------------
    frozen occupied :     70
    active occupied :    140
    active virtual  :   1890
    frozen virtual  :      0
    all together    :   2100
   -----------------------------


     time in riccmos       cpu: 15.44 sec    wall: 24.54 sec    ratio:  0.6

     total memory allocated for calculation of (Q|P)**(-1/2) : 369 MiB


     calculation of (P|Q) ...
     time in lp2sym        cpu: 15.56 sec    wall:  1.59 sec    ratio:  9.8


     calculation of the Cholesky decomposition of (P|Q)**(-1) ...

  ----------------------------------------------------------------------------
  hard_restart flag is disabled because the check sum for the
  (P|Q)**(-1/2) "$chkCCVPQ_ISQR" differs from the reference value:
  reference value:     16886.2112053981    
  computed value :     16886.2112047340    
  relative error :    0.393250550711216E-10
  tolerance      :    0.100000000000000E-11
  the calculation will proceed...
  ----------------------------------------------------------------------------
     time in invmetri      cpu:  1 min 45 s  wall:  0 min 12 s  ratio:  8.4

   threshold for RMS(d[D]) in SCF was     :  0.10E-06
   integral neglect threshold             :  0.14E-11
   derivative integral neglect threshold  :  0.10E-07


   =========================================================================

     Energy of reference wave function is -2651.2395570970002
     Maximum orbital residual is           0.1994086981313E-06


     Number of symmetry-nonredundant auxiliary basis functions:     5670

     Block lengths for integral files:
        frozen occupied (BOI):        4 MiB
        active occupied (BJI):        7 MiB
        active virtual  (BAI):       82 MiB
        frozen virtual  (BGI):        0 MiB
               general  (BTI):       91 MiB

   =========================================================================




   **************************************************************************
   *                                                                        *
   *          OPTIMIZATION OF THE GROUND STATE CLUSTER AMPLITUDES           *
   *                                                                        *
   **************************************************************************


   Iter.   MP2 energy       Norm(Omega)    Norm(t1)  Norm(t2)     cpu    wall
   ...........................................................................
    1  -2662.0427009380     ------          0.00000   1.17756  582.27   69.14
   ...........................................................................


     time in total         cpu:  9 h 42 min  wall:  1 h  9 min  ratio:  8.4


     **********************************************************************
     *                                                                    *
     *   RHF  energy                             :  -2651.2395570970      *
     *   MP2 correlation energy (doubles)        :    -10.8031438410      *
     *                                                                    *
     *   Final MP2 energy                        :  -2662.0427009380      *
     *                                                                    *
     *    E(S)   =     -6.0802874042      E(T)   =     -4.7228564368      *
     *    E(OS)  =     -7.6545728831      E(SS)  =     -3.1485709579      *
     *                                                                    *
     *   SCS-MP2 energy                          :  -2661.4745682094      *
     *   (computed with  C(OS) =   1.2000  and  C(SS) =   0.3333)         *
     *                                                                    *
     *   SOS-MP2 energy                          :  -2661.1905018451      *
     *   (computed with  C(OS) =   1.3000)                                *
     *                                                                    *
     *   Norm of MP1 T2 amplitudes               :      1.1775560030      *
     *                                                                    *
     **********************************************************************



    ------------------------------------------------------------------------
         total  cpu-time : 10 hours 38 minutes and 32 seconds
         total wall-time :  1 hours 17 minutes and 39 seconds
    ------------------------------------------------------------------------

   ****  ricc2 : all done  ****


    2018-04-11 13:20:18.813 

