
   OpenMP run-time library returned nthreads =  8
 operating system is UNIX !

 dscf (c-13-222) : TURBOMOLE V7.3 ( 22142 ) 4 Jul 2018 at 18:12:42
 Copyright (C) 2018 TURBOMOLE GmbH, Karlsruhe


    2019-04-02 13:16:13.853 



                             d s c f - program

                   idea & directorship : reinhart ahlrichs
                   program development : marco haeser
                                         michael baer
                           dft version : oliver treutler


                          quantum chemistry group
                          universitaet  karlsruhe
                                  germany




                          References             
                                                 
          TURBOMOLE:                             
              R. Ahlrichs, M. Baer, M. Haeser, H. Horn, and
              C. Koelmel
              Electronic structure calculations on workstation
              computers: the program system TURBOMOLE
              Chem. Phys. Lett. 162: 165 (1989)
          Density Functional:                              
              O. Treutler and R. Ahlrichs                      
              Efficient Molecular Numerical Integration Schemes
              J. Chem. Phys. 102: 346 (1995)                   
          Parallel Version:                                
              Performance of parallel TURBOMOLE for Density    
              Functional Calculations                          
              M. v. Arnim and R. Ahlrichs                      
              J. Comp. Chem. 19: 1746 (1998)                   
                                         




              +--------------------------------------------------+
              | Atomic coordinate, charge and isotop information |
              +--------------------------------------------------+

                    atomic coordinates            atom    charge  isotop
          4.46735224    0.18259041    0.00027741    n      7.000     0
          5.78242520    0.11839492    2.16353733    c      6.000     0
          4.67755420    0.16301313    3.88482845    h      1.000     0
          8.40729938   -0.00478203    2.25801620    c      6.000     0
          9.36332389   -0.05174958    4.06143688    h      1.000     0
          9.75120296   -0.06738072   -0.00003862    c      6.000     0
         11.79180474   -0.16521855   -0.00019060    h      1.000     0
          8.40702508   -0.00490799   -2.25788585    c      6.000     0
          9.36284279   -0.05191120   -4.06143783    h      1.000     0
          5.78213876    0.11829269   -2.16312315    c      6.000     0
          4.67708572    0.16289146   -3.88427164    h      1.000     0
 
       center of nuclear mass  :    7.08891531    0.05729481    0.00013060
       center of nuclear charge:    7.14106251    0.05459189    0.00012721

              +--------------------------------------------------+
              |               basis set information              |
              +--------------------------------------------------+

              we will work with the 1s 3p 5d 7f 9g ... basis set
              ...i.e. with spherical basis functions...

   type   atoms  prim   cont   basis
   ---------------------------------------------------------------------------
    n        1     77     57   def2-QZVP   [7s4p3d2f1g|15s8p3d2f1g]
    c        5     77     57   def2-QZVP   [7s4p3d2f1g|15s8p3d2f1g]
    h        5     33     30   def2-QZVP   [4s3p2d1f|7s3p2d1f]
   ---------------------------------------------------------------------------
   total:   11    627    492
   ---------------------------------------------------------------------------

   total number of primitive shells          :   71
   total number of contracted shells         :  152
   total number of cartesian basis functions :  607
   total number of SCF-basis functions       :  492


 integral neglect threshold       :  0.55E-13
 integral storage threshold THIZE :  0.10E-04
 integral storage threshold THIME :         5


 DENSITY CONVERGENCE CHECK SWITCHED ON !
 SCF CONVERGENCE IF RMS(delta[D]) <     0.1000000000E-06


 symmetry group of the molecule :   c1 

 the group has the following generators :
   c1(z)

    1 symmetry operations found

 there are 1 real representations :   a   

 maximum number of shells which are related by symmetry :  1


    mo occupation :
   irrep   mo's   occupied
    a      492       21
 
 number of basis functions   :                    492
 number of occupied orbitals :                     21
 

 automatic virtual orbital shift switched on 
      shift if e(lumo)-e(homo) < 0.10000000    


          ------------------------
          nuclear repulsion energy  :   206.285463432    
          ------------------------


         -----------------
         -S,T+V- integrals
         -----------------

 1e-integrals will be neglected if expon. factor < 0.550570E-14
 
   Difference densities algorithm switched on.
   The maximal number of linear combinations of
   difference densities is                    20 .

 DIIS switched on: error vector is FDS-SDF
 Max. Iterations for DIIS is     :   5
 DIIS matrix (see manual) 
    Scaling factor of diagonals  :  1.200
    threshold for scaling factor :  0.000

 scf convergence criterion : increment of total energy < .1000000D-08
                  and increment of one-electron energy < .1000000D-05

  MOs are in ASCII format !


 reading orbital data $scfmo  from file mos
 orbital characterization : scfconv=9

 DSCF restart information will be dumped onto file mos

 
                                              current damping :  0.700
 ITERATION  ENERGY          1e-ENERGY        2e-ENERGY     RMS[dD(SAO)]   TOL
   1  -246.73788316883    -742.26604503     289.24269843    0.000D+00 0.549D-13
          max. resid. norm for Fia-block=  2.293D-01 for orbital      1a         
          max. resid. fock norm         =  7.070D-01 for orbital    492a         
          Delta Eig. =    54.6039444227 eV 
 
                                              current damping :  0.650
 ITERATION  ENERGY          1e-ENERGY        2e-ENERGY     RMS[dD(SAO)]   TOL
   2  -246.78326585984    -741.41228472     288.34355543    0.926D-03 0.363D-13
          Norm of current diis error: 0.69071    
          max. resid. norm for Fia-block=  1.009D-01 for orbital      1a         
          max. resid. fock norm         =  2.901D-01 for orbital    492a         
          Delta Eig. =    22.6410596365 eV 
 
                                              current damping :  0.600
 ITERATION  ENERGY          1e-ENERGY        2e-ENERGY     RMS[dD(SAO)]   TOL
   3  -246.79241775593    -741.50551689     288.42763570    0.453D-03 0.268D-13
          Norm of current diis error: 0.29706    
          max. resid. norm for Fia-block=  4.115D-02 for orbital      1a         
          max. resid. fock norm         =  1.147D-01 for orbital    492a         
          Delta Eig. =     9.2386611102 eV 
 
                                              current damping :  0.650
 ITERATION  ENERGY          1e-ENERGY        2e-ENERGY     RMS[dD(SAO)]   TOL
   4  -246.79430878419    -741.43280804     288.35303582    0.198D-03 0.232D-13
          Norm of current diis error: 0.11910    
          max. resid. norm for Fia-block=  1.540D-02 for orbital      1a         
          max. resid. fock norm         =  4.336D-02 for orbital    492a         
          Delta Eig. =     3.4483841253 eV 
 
                                              current damping :  0.500
 ITERATION  ENERGY          1e-ENERGY        2e-ENERGY     RMS[dD(SAO)]   TOL
   5  -246.79463302187    -741.41739825     288.33730180    0.755D-04 0.214D-13
          Norm of current diis error: 0.50761E-01
          max. resid. norm for Fia-block=  6.086D-03 for orbital      1a         
          max. resid. fock norm         =  1.701D-02 for orbital    492a         
 mo-orthogonalization: Cholesky decomposition
          Delta Eig. =     1.4683923606 eV 
 
                                              current damping :  0.350
 ITERATION  ENERGY          1e-ENERGY        2e-ENERGY     RMS[dD(SAO)]   TOL
   6  -246.79470361965    -741.41099421     288.33082716    0.366D-04 0.199D-13
          Norm of current diis error: 0.19788E-01
          max. resid. norm for Fia-block=  1.998D-03 for orbital      1a         
          max. resid. fock norm         =  5.695D-03 for orbital    492a         
          Delta Eig. =     0.5595228719 eV 
 
                                              current damping :  0.200
 ITERATION  ENERGY          1e-ENERGY        2e-ENERGY     RMS[dD(SAO)]   TOL
   7  -246.79471830471    -741.40776231     288.32758058    0.155D-04 0.186D-13
          Norm of current diis error: 0.77397E-02
          max. resid. norm for Fia-block=  5.871D-04 for orbital     21a         
          max. resid. fock norm         =  1.460D-03 for orbital    492a         
          Delta Eig. =     0.1595443139 eV 
 
                                              current damping :  0.050
 ITERATION  ENERGY          1e-ENERGY        2e-ENERGY     RMS[dD(SAO)]   TOL
   8  -246.79472201446    -741.40732462     288.32713918    0.657D-05 0.173D-13
          Norm of current diis error: 0.37349E-02
          max. resid. norm for Fia-block=  3.812D-04 for orbital     21a         
          max. resid. fock norm         =  3.812D-04 for orbital     21a         
          Delta Eig. =     0.0370555276 eV 
 
                                              current damping :  0.050
 ITERATION  ENERGY          1e-ENERGY        2e-ENERGY     RMS[dD(SAO)]   TOL
   9  -246.79472338141    -741.40700802     288.32682121    0.321D-05 0.158D-13
          Norm of current diis error: 0.19219E-02
          max. resid. norm for Fia-block=  2.531D-04 for orbital     20a         
          max. resid. fock norm         =  2.567D-04 for orbital     20a         
          Delta Eig. =     0.0033071800 eV 
 
                                              current damping :  0.100
 ITERATION  ENERGY          1e-ENERGY        2e-ENERGY     RMS[dD(SAO)]   TOL
  10  -246.79472383105    -741.40730282     288.32711555    0.198D-05 0.145D-13
          Norm of current diis error: 0.85882E-03
          max. resid. norm for Fia-block=  1.245D-04 for orbital     21a         
          max. resid. fock norm         =  1.245D-04 for orbital     21a         
 mo-orthogonalization: Cholesky decomposition
          Delta Eig. =     0.0053679246 eV 
 
                                              current damping :  0.150
 ITERATION  ENERGY          1e-ENERGY        2e-ENERGY     RMS[dD(SAO)]   TOL
  11  -246.79472390972    -741.40713494     288.32694760    0.988D-06 0.137D-13
          Norm of current diis error: 0.38125E-03
          max. resid. norm for Fia-block=  5.301D-05 for orbital     20a         
          max. resid. fock norm         =  5.724D-05 for orbital     20a         
          Delta Eig. =     0.0019549366 eV 
 
                                              current damping :  0.200
 ITERATION  ENERGY          1e-ENERGY        2e-ENERGY     RMS[dD(SAO)]   TOL
  12  -246.79472392118    -741.40726014     288.32707279    0.324D-06 0.134D-13
          Norm of current diis error: 0.13476E-03
          max. resid. norm for Fia-block=  1.638D-05 for orbital     20a         
          max. resid. fock norm         =  1.651D-05 for orbital     20a         
          Delta Eig. =     0.0005617398 eV 
 
                                              current damping :  0.250
 ITERATION  ENERGY          1e-ENERGY        2e-ENERGY     RMS[dD(SAO)]   TOL
  13  -246.79472392283    -741.40725134     288.32706398    0.181D-06 0.131D-13
          Norm of current diis error: 0.47261E-04
          max. resid. norm for Fia-block=  7.096D-06 for orbital     20a         
          max. resid. fock norm         =  7.146D-06 for orbital     20a         
          Delta Eig. =     0.0000754777 eV 

 DENSITY CONVERGED !

 
                                              current damping :  0.300
 ITERATION  ENERGY          1e-ENERGY        2e-ENERGY     RMS[dD(SAO)]   TOL
  14  -246.79472392306    -741.40725388     288.32706652    0.742D-07 0.156D-13
          Norm of current diis error: 0.20352E-04
          max. resid. norm for Fia-block=  2.841D-06 for orbital     19a         
          max. resid. fock norm         =  3.007D-06 for orbital     19a         
          Delta Eig. =     0.0000335669 eV 

 ENERGY & DENSITY CONVERGED !

 
                                              current damping :  0.150
 ITERATION  ENERGY          1e-ENERGY        2e-ENERGY     RMS[dD(SAO)]   TOL
  15  -246.79472392311    -741.40725506     288.32706770    0.323D-07 0.157D-13
          max. resid. norm for Fia-block=  6.771D-07 for orbital     19a         
          max. resid. fock norm         =  7.324D-07 for orbital     19a         

 convergence criteria satisfied after    15 iterations


                  ------------------------------------------ 
                 |  total energy      =   -246.79472392311  |
                  ------------------------------------------ 
                 :  kinetic energy    =    246.44269853177  :
                 :  potential energy  =   -493.23742245488  :
                 :  virial theorem    =      1.99857361055  :
                 :  wavefunction norm =      1.00000000000  :
                  .......................................... 


 orbitals $scfmo  will be written to file mos

    irrep                 17a         18a         19a         20a         21a   
 eigenvalues H         -0.54138    -0.52093    -0.41861    -0.38377    -0.34847
            eV         -14.7319    -14.1755    -11.3909    -10.4431     -9.4824
 occupation              2.0000      2.0000      2.0000      2.0000      2.0000 

    irrep                 22a         23a         24a         25a         26a   
 eigenvalues H          0.09722     0.10676     0.11359     0.12198     0.13214
            eV           2.6455      2.9050      3.0908      3.3192      3.5957
 
 
 
 
 ==============================================================================
                           electrostatic moments
 ==============================================================================

 reference point for electrostatic moments:    0.00000   0.00000   0.00000

 
              nuc           elec       ->  total
 ------------------------------------------------------------------------------
                          charge      
 ------------------------------------------------------------------------------
          42.000000     -42.000000       0.000000
 
 ------------------------------------------------------------------------------
                       dipole moment  
 ------------------------------------------------------------------------------
   x     299.924625    -299.014804       0.909821
   y       2.292859      -2.338931      -0.046072
   z       0.005343      -0.005413      -0.000070
 
   | dipole moment | =     0.9110 a.u. =     2.3155 debye 
 
 ------------------------------------------------------------------------------
                     quadrupole moment
 ------------------------------------------------------------------------------
  xx    2317.734310   -2331.907360     -14.173049
  yy       0.514737     -29.358231     -28.843494
  zz     180.510093    -202.280626     -21.770533
  xy       8.095936      -8.448136      -0.352200
  xz       0.038916      -0.038916       0.000001
  yz       0.004945      -0.004868       0.000077
 
     1/3  trace=     -21.595692
     anisotropy=      12.722318
 
 ==============================================================================
 


    ------------------------------------------------------------------------
         total  cpu-time : 59 minutes and 29 seconds
         total wall-time :  7 minutes and 33 seconds
    ------------------------------------------------------------------------

   ****  dscf : all done  ****


    2019-04-02 13:23:46.858 

