
   OpenMP run-time library returned nthreads = 24

 rirpa (c-9-29) : TURBOMOLE V7.3 ( 22142 ) 4 Jul 2018 at 18:12:42
 Copyright (C) 2018 TURBOMOLE GmbH, Karlsruhe


    2019-02-24 20:57:08.026 

 
 
    *************************************************************************
    *************************** PROGRAM RIRPA *******************************
    ******                                                             ******
    ******              H. Eshuis, J. E. Bates and F. Furche           ******
    ******                                                             ******
    ****** Nov 2011                                                    ******
    ****** Copyright TURBOMOLE GmbH                                    ******
    *************************************************************************
    
    
                                References:                                  
    
                   RIRPA:                                                    
                     H. Eshuis, J. Yarkony and F. Furche                     
                     Fast computation of molecular random phase              
                     approximation correlation energies using resolution     
                     of the identity imaginary frequency integration         
                     J. Chem. Phys. 132: 234114 (2010)                       
    
                     H. Eshuis, J. E. Bates and F. Furche                    
                     Electron correlation methods based on                   
                     the random phase approximation                          
                     Theor. Chem. Acc.  131: 1084 (2012)                     
    
                   TWO-COMPONENT RIRPA:                                      
                     M. Kuehn                                                
                     Correlation energies from the                           
                     two-component random-phase approximation                
                     J. Chem. Theory Comput. 10: 623 (2014)                  
    
                   RIRPA GRADIENTS:                                          
                     Asbjoern M. Burow, Jefferson E. Bates, Filipp Furche*,  
                     and Henk Eshuis                                         
                     Analytical First-Order Molecular Properties and Forces  
                     within the Adiabatic Connection Random Phase            
                     Approximation                                           
                     J. Chem. Theory Comput. 10: 180 (2014)                  
    
    
    
      ... OpenMP parallelization enabled, threads:   24

   *-----------------------------------------------------------------------*
   |                     program will use 24 thread(s)                     |
   *-----------------------------------------------------------------------*
 
                FOUND RI-J FLAG
 
  HF exact exchange energy will be computed using RI-J.
 
  The HXX energy will NOT be computed due to nohxx option. 
 


              +--------------------------------------------------+
              | Atomic coordinate, charge and isotop information |
              +--------------------------------------------------+

                    atomic coordinates            atom    charge  isotop
         -1.51338642    6.31022453    0.00492784    n      7.000     0
          0.50967728    4.32748456    0.00163934    c      6.000     0
         -0.63733111    1.68570941    0.00059810    c      6.000     0
          1.39240067   -0.37959156    0.00306740    c      6.000     0
          0.24920385   -3.03569026    0.00701447    c      6.000     0
         -2.68770891    6.13649180    1.55901272    h      1.000     0
         -0.74185924    8.15287323    0.00631981    h      1.000     0
         -2.68445669    6.13752283   -1.55146497    h      1.000     0
          1.73115128   -4.47498260    0.00824072    h      1.000     0
         -0.93424281   -3.33558848   -1.66422001    h      1.000     0
         -0.93259515   -3.33113798    1.68014020    h      1.000     0
          2.60727782   -0.13738366    1.66494680    h      1.000     0
          2.60777690   -0.14186628   -1.65908317    h      1.000     0
         -1.85164588    1.44926952    1.66715854    h      1.000     0
         -1.85002299    1.44847281   -1.66693479    h      1.000     0
          1.66661354    4.65522354    1.67470969    h      1.000     0
          1.66343937    4.65895008   -1.67297606    h      1.000     0
          0.43503083   11.82714051    0.00441157    cl    17.000     0
 
       center of nuclear mass  :    0.10029573    5.11208216    0.00382856
       center of nuclear charge:    0.07465418    4.70063797    0.00382095
              +-------------------------------------------------+
              |        Rotational Constants Section             |
              +-------------------------------------------------+
                                   Center of Mass [a.u]:
               0.10029573487472         5.11208215897523         0.00382856069154
                     Principal Moments of Inertia [a.u.]
             142.60129476790144      3285.57363367950848      3373.50963354139094
                       Rotational constants A,B,C [a.u.]
               0.00350627952442         0.00015218042745         0.00014821359780
                     Rotational constants A,B,C [cm**-1]
               0.42215385627762         0.01832242804707         0.01784482424414
                        Rotational constants A,B,C [MHz]
           12655.85422276470490       549.29257407600176       534.97437227280318

   * BASIS SET information:

              +--------------------------------------------------+
              |               basis set information              |
              +--------------------------------------------------+

              we will work with the 1s 3p 5d 7f 9g ... basis set
              ...i.e. with spherical basis functions...

   type   atoms  prim   cont   basis
   ---------------------------------------------------------------------------
    n        1     50     30   cc-pVTZ   [4s3p2d1f|18s5p2d1f]
    c        4     50     30   cc-pVTZ   [4s3p2d1f|18s5p2d1f]
    h       12     16     14   cc-pVTZ   [3s2p1d|5s2p1d]
    cl       1    106     34   cc-pVTZ   [5s4p2d1f|41s16p2d1f]
   ---------------------------------------------------------------------------
   total:   18    548    352
   ---------------------------------------------------------------------------

   total number of primitive shells          :  120
   total number of contracted shells         :  134
   total number of cartesian basis functions :  394
   total number of SCF-basis functions       :  352


   * AUXILIARY BASIS SET information:

              +--------------------------------------------------+
              |               basis set information              |
              +--------------------------------------------------+

              we will work with the 1s 3p 5d 7f 9g ... basis set
              ...i.e. with spherical basis functions...

   type   atoms  prim   cont   basis
   ---------------------------------------------------------------------------
    n        1     81     81   cc-pVTZ   [8s6p5d3f1g|8s6p5d3f1g]
    c        4     81     81   cc-pVTZ   [8s6p5d3f1g|8s6p5d3f1g]
    h       12     30     30   cc-pVTZ   [4s3p2d1f|4s3p2d1f]
    cl       1    122    122   cc-pVTZ   [10s8p7d5f2g|10s8p7d5f2g]
   ---------------------------------------------------------------------------
   total:   18    887    887
   ---------------------------------------------------------------------------

   total number of primitive shells          :   88
   total number of contracted shells         :  267
   total number of cartesian basis functions : 1081
   total number of SCF-basis functions       :  887


   * RIJ AUXILIARY BASIS SET information:

              +--------------------------------------------------+
              |               basis set information              |
              +--------------------------------------------------+

              we will work with the 1s 3p 5d 7f 9g ... basis set
              ...i.e. with spherical basis functions...

   type   atoms  prim   cont   basis
   ---------------------------------------------------------------------------
    n        1     70     49   cc-pVTZ   [6s4p3d1f1g|12s5p4d2f1g]
    c        4     70     49   cc-pVTZ   [6s4p3d1f1g|12s5p4d2f1g]
    h       12     16     11   cc-pVTZ   [3s1p1d|5s2p1d]
    cl       1     77     51   cc-pVTZ   [8s4p3d1f1g|14s5p5d2f1g]
   ---------------------------------------------------------------------------
   total:   18    619    428
   ---------------------------------------------------------------------------

   total number of primitive shells          :   83
   total number of contracted shells         :  152
   total number of cartesian basis functions :  512
   total number of SCF-basis functions       :  428

  No keyword $dft found! - HARTREE FOCK CALCULATION

 reading orbital data $scfmo  from file mos
 orbital characterization : scfconv=7

 integral neglect threshold       :  0.27E+02

 scfconv                     7

 MAXIMUM CORE MEMORY WHICH CAN BE ALLOCATED DYNAMICALLY = 72000 MiB
              ( or 9437184000 double words per process)


 there are 1 real representations :   a   

 maximum number of shells which are related by symmetry :  1

 entered riccmos at 2019-02-24 20:57:08.289
  MOs are in ASCII format !


 reading orbital data $scfmo  from file mos
 orbital characterization : scfconv=7
 time elapsed for calculating density matrices :   0.269 sec



              +--------------------------------------------+
              | list of orbitals that will be kept frozen: |
              +--------------------------------------------+
              |   irrep   index      energy     occ/vir    |
              +--------------------------------------------+
              |   a         1     -104.6654     occupied   |
              |   a         2      -15.7056     occupied   |
              |   a         3      -11.3299     occupied   |
              |   a         4      -11.2813     occupied   |
              |   a         5      -11.2652     occupied   |
              |   a         6      -11.2479     occupied   |
              |   a         7      -10.3913     occupied   |
              |   a         8       -7.8575     occupied   |
              |   a         9       -7.8573     occupied   |
              |   a        10       -7.8573     occupied   |
              +--------------------------------------------+



   Molecular Orbital Statistic:
   ============================

   -----------------------------
   orbitals in total:
   -----------------------------
    frozen occupied :     10
    active occupied :     20
    active virtual  :    322
    frozen virtual  :      0
    all together    :    352
   -----------------------------


     time in riccmoinp     cpu:  3.35 sec    wall:  0.16 sec    ratio: 21.5
     time in scfdens       cpu:  0.27 sec    wall:  0.01 sec    ratio: 20.9
     time in mkiao         cpu:  0.00 sec    wall:  0.00 sec    ratio:  0.0
     time in rir12loc      cpu:  0.00 sec    wall:  0.00 sec    ratio:  0.0
     time in riccmos       cpu:  4.43 sec    wall:  0.20 sec    ratio: 21.6
 leave riccmos at 2019-02-24 20:57:08.494

     total memory allocated for calculation of (Q|P)**(-1/2) : 10 MiB


     calculation of (P|Q) ...
     time in lp2sym        cpu:  1.62 sec    wall:  0.07 sec    ratio: 22.1


     calculation of the Cholesky decomposition of (P|Q)**(-1) ...
     time in invmetri      cpu:  2.79 sec    wall:  0.13 sec    ratio: 21.8

   threshold for RMS(d[D]) in SCF was     :  0.10E-06
   integral neglect threshold             :  0.31E-11
   derivative integral neglect threshold  :  0.10E-06


 setting up bound for integral derivative estimation

 increment for numerical differentiation : 0.00050000
 total memory allocated for calculation of (Q|P)**(-1/2) : 10 MiB
 Dividing biap into                  16519  block chunks,
 using                     2 MiB per block
 Reserved                  35995 MiB for BLAS routines
 Estimated total memory usage:                  71998 MiB
 number of passes for ispin    1
 =    1
 
 Number of eigenvalues < 6e-3:                      0
 
 
            -----------------------------
            Complex frequency integration
            -----------------------------
 
 Number of Clenshaw-Curtis nodes:                    100
 Optimized scaling parameter    :    1.00000000000000     
 Sensitivity measure            :  -9.264533584740775E-013
 
 Done with rirpa frequency point #                     1
 Done with rirpa frequency point #                     2
 Done with rirpa frequency point #                     3
 Done with rirpa frequency point #                     4
 Done with rirpa frequency point #                     5
 Done with rirpa frequency point #                     6
 Done with rirpa frequency point #                     7
 Done with rirpa frequency point #                     8
 Done with rirpa frequency point #                     9
 Done with rirpa frequency point #                    10
 Done with rirpa frequency point #                    11
 Done with rirpa frequency point #                    12
 Done with rirpa frequency point #                    13
 Done with rirpa frequency point #                    14
 Done with rirpa frequency point #                    15
 Done with rirpa frequency point #                    16
 Done with rirpa frequency point #                    17
 Done with rirpa frequency point #                    18
 Done with rirpa frequency point #                    19
 Done with rirpa frequency point #                    20
 Done with rirpa frequency point #                    21
 Done with rirpa frequency point #                    22
 Done with rirpa frequency point #                    23
 Done with rirpa frequency point #                    24
 Done with rirpa frequency point #                    25
 Done with rirpa frequency point #                    26
 Done with rirpa frequency point #                    27
 Done with rirpa frequency point #                    28
 Done with rirpa frequency point #                    29
 Done with rirpa frequency point #                    30
 Done with rirpa frequency point #                    31
 Done with rirpa frequency point #                    32
 Done with rirpa frequency point #                    33
 Done with rirpa frequency point #                    34
 Done with rirpa frequency point #                    35
 Done with rirpa frequency point #                    36
 Done with rirpa frequency point #                    37
 Done with rirpa frequency point #                    38
 Done with rirpa frequency point #                    39
 Done with rirpa frequency point #                    40
 Done with rirpa frequency point #                    41
 Done with rirpa frequency point #                    42
 Done with rirpa frequency point #                    43
 Done with rirpa frequency point #                    44
 Done with rirpa frequency point #                    45
 Done with rirpa frequency point #                    46
 Done with rirpa frequency point #                    47
 Done with rirpa frequency point #                    48
 Done with rirpa frequency point #                    49
 Done with rirpa frequency point #                    50
 Done with rirpa frequency point #                    51
 Done with rirpa frequency point #                    52
 Done with rirpa frequency point #                    53
 Done with rirpa frequency point #                    54
 Done with rirpa frequency point #                    55
 Done with rirpa frequency point #                    56
 Done with rirpa frequency point #                    57
 Done with rirpa frequency point #                    58
 Done with rirpa frequency point #                    59
 Done with rirpa frequency point #                    60
 Done with rirpa frequency point #                    61
 Done with rirpa frequency point #                    62
 Done with rirpa frequency point #                    63
 Done with rirpa frequency point #                    64
 Done with rirpa frequency point #                    65
 Done with rirpa frequency point #                    66
 Done with rirpa frequency point #                    67
 Done with rirpa frequency point #                    68
 Done with rirpa frequency point #                    69
 Done with rirpa frequency point #                    70
 Done with rirpa frequency point #                    71
 Done with rirpa frequency point #                    72
 Done with rirpa frequency point #                    73
 Done with rirpa frequency point #                    74
 Done with rirpa frequency point #                    75
 Done with rirpa frequency point #                    76
 Done with rirpa frequency point #                    77
 Done with rirpa frequency point #                    78
 Done with rirpa frequency point #                    79
 Done with rirpa frequency point #                    80
 Done with rirpa frequency point #                    81
 Done with rirpa frequency point #                    82
 Done with rirpa frequency point #                    83
 Done with rirpa frequency point #                    84
 Done with rirpa frequency point #                    85
 Done with rirpa frequency point #                    86
 Done with rirpa frequency point #                    87
 Done with rirpa frequency point #                    88
 Done with rirpa frequency point #                    89
 Done with rirpa frequency point #                    90
 Done with rirpa frequency point #                    91
 Done with rirpa frequency point #                    92
 Done with rirpa frequency point #                    93
 Done with rirpa frequency point #                    94
 Done with rirpa frequency point #                    95
 Done with rirpa frequency point #                    96
 Done with rirpa frequency point #                    97
 Done with rirpa frequency point #                    98
 Done with rirpa frequency point #                    99
 Done with rirpa frequency point #                   100
 


 RI-RPA correlation energy: -0.1386298266671203E+01
 
 
 HXX Energy calculation skipped due to nohxx option
 

                  --------------------------------------------------- 
                 |  HXX+RIRPA total energy     =     -1.38629826667  |
                  ---------------------------------------------------- 
                 :  RIRPA correlation energy   =     -1.38629826667  :
                 :  HXX total energy           =      0.00000000000  :
                 :  Hartree energy             =      0.00000000000  :
                 :  Exact Exchange energy      =      0.00000000000  :
                  .................................................... 


    ------------------------------------------------------------------------
    Rirpa profiling                cpu                    wall         ratio
    ------------------------------------------------------------------------
    module                         sec     %               sec     %
    ------------------------------------------------------------------------
    RIRPA                      1642.3  100.00           92.0  100.00  17.9
    STARTUP                       3.6    0.22            0.2    0.27  14.5
    riccmos                       4.4    0.27            0.2    0.22  21.6
    riccaux                       4.5    0.27            0.2    0.22  21.9
    riccbound                     4.9    0.30            1.0    1.05   5.1
    ccmkbaoi                     21.9    1.33            1.0    1.04  22.8
    ecrpa                      1600.4   97.45           89.3   97.06  17.9
    tread                       388.1   23.63           38.6   41.95  10.1
    tqbuild                    1054.2   64.19           44.1   47.92  23.9
    trpaln                       80.4    4.90            3.4    3.65  23.9
    ------------------------------------------------------------------------
    sum                        4806.3  292.65          269.9  293.46  17.8
    ------------------------------------------------------------------------


    ------------------------------------------------------------------------
         total  cpu-time : 27 minutes and 23 seconds
         total wall-time :  1 minutes and 32 seconds
    ------------------------------------------------------------------------

   ****  rirpa : all done  ****


    2019-02-24 20:58:40.007 

