
   OpenMP run-time library returned nthreads = 28
 operating system is UNIX !

 dscf (c-19-414) : TURBOMOLE V7.3 ( 22142 ) 4 Jul 2018 at 18:12:42
 Copyright (C) 2018 TURBOMOLE GmbH, Karlsruhe


    2019-04-02 16:29:25.481 



                             d s c f - program

                   idea & directorship : reinhart ahlrichs
                   program development : marco haeser
                                         michael baer
                           dft version : oliver treutler


                          quantum chemistry group
                          universitaet  karlsruhe
                                  germany




                          References             
                                                 
          TURBOMOLE:                             
              R. Ahlrichs, M. Baer, M. Haeser, H. Horn, and
              C. Koelmel
              Electronic structure calculations on workstation
              computers: the program system TURBOMOLE
              Chem. Phys. Lett. 162: 165 (1989)
          Density Functional:                              
              O. Treutler and R. Ahlrichs                      
              Efficient Molecular Numerical Integration Schemes
              J. Chem. Phys. 102: 346 (1995)                   
          Parallel Version:                                
              Performance of parallel TURBOMOLE for Density    
              Functional Calculations                          
              M. v. Arnim and R. Ahlrichs                      
              J. Comp. Chem. 19: 1746 (1998)                   
                                         




              +--------------------------------------------------+
              | Atomic coordinate, charge and isotop information |
              +--------------------------------------------------+

                    atomic coordinates            atom    charge  isotop
         -2.32951643    2.28966581   -0.26763069    c      6.000     0
         -1.07955646    4.23679572    0.04840871    o      8.000     0
         -1.26721351    0.00734873   -0.59390591    n      7.000     0
          0.64977656   -0.17113380   -0.58265296    h      1.000     0
         -2.35122321   -1.52373097   -0.84410799    h      1.000     0
         -5.17453305    2.39382506   -0.29458293    c      6.000     0
         -5.81653043    3.11163270    1.52028768    h      1.000     0
         -6.05112046    0.57233283   -0.65424419    h      1.000     0
         -5.76364103    3.73313601   -1.73589745    h      1.000     0
          7.92780344    2.11163411   -0.22590150    n      7.000     0
          8.85382489    0.45631493   -0.44877291    h      1.000     0
          9.44643651    4.27129806    0.05846769    c      6.000     0
         11.74351584    4.09059805    0.02977262    o      8.000     0
          7.98644889    6.56791337    0.36676505    c      6.000     0
          8.97243805    8.33139231    0.59926774    h      1.000     0
          5.43690463    6.45136351    0.35603754    c      6.000     0
          4.26451088    8.10744464    0.57841465    h      1.000     0
          4.14228707    4.23607251    0.06395057    n      7.000     0
          2.19059592    4.21894958    0.06236827    h      1.000     0
          5.33449633    1.95995503   -0.24267646    c      6.000     0
          4.20597318   -0.05055477   -0.51065378    o      8.000     0
 
       center of nuclear mass  :    3.75587701    3.13141367   -0.11280522
       center of nuclear charge:    3.59699613    3.12378403   -0.11553148

              +--------------------------------------------------+
              |               basis set information              |
              +--------------------------------------------------+

              we will work with the 1s 3p 5d 7f 9g ... basis set
              ...i.e. with spherical basis functions...

   type   atoms  prim   cont   basis
   ---------------------------------------------------------------------------
    c        6     77     55   cc-pVQZ   [5s4p3d2f1g|21s6p3d2f1g]
    o        3     77     55   cc-pVQZ   [5s4p3d2f1g|21s6p3d2f1g]
    n        3     77     55   cc-pVQZ   [5s4p3d2f1g|21s6p3d2f1g]
    h        9     32     30   cc-pVQZ   [4s3p2d1f|6s3p2d1f]
   ---------------------------------------------------------------------------
   total:   21   1212    930
   ---------------------------------------------------------------------------

   total number of primitive shells          :  111
   total number of contracted shells         :  270
   total number of cartesian basis functions : 1155
   total number of SCF-basis functions       :  930


 integral neglect threshold       :  0.29E-13
 integral storage threshold THIZE :  0.10E-04
 integral storage threshold THIME :         5


 DENSITY CONVERGENCE CHECK SWITCHED ON !
 SCF CONVERGENCE IF RMS(delta[D]) <     0.1000000000E-06


 symmetry group of the molecule :   c1 

 the group has the following generators :
   c1(z)

    1 symmetry operations found

 there are 1 real representations :   a   

 maximum number of shells which are related by symmetry :  1


    mo occupation :
   irrep   mo's   occupied
    a      930       45
 
 number of basis functions   :                    930
 number of occupied orbitals :                     45
 

 automatic virtual orbital shift switched on 
      shift if e(lumo)-e(homo) < 0.10000000    


          ------------------------
          nuclear repulsion energy  :   682.464506840    
          ------------------------


         -----------------
         -S,T+V- integrals
         -----------------

 1e-integrals will be neglected if expon. factor < 0.289347E-14
 
   Difference densities algorithm switched on.
   The maximal number of linear combinations of
   difference densities is                    20 .

 DIIS switched on: error vector is FDS-SDF
 Max. Iterations for DIIS is     :   5
 DIIS matrix (see manual) 
    Scaling factor of diagonals  :  1.200
    threshold for scaling factor :  0.000

 scf convergence criterion : increment of total energy < .1000000D-08
                  and increment of one-electron energy < .1000000D-05

  MOs are in ASCII format !


 reading orbital data $scfmo  from file mos
 orbital characterization : scfconv=9

 DSCF restart information will be dumped onto file mos

 
                                              current damping :  0.700
 ITERATION  ENERGY          1e-ENERGY        2e-ENERGY     RMS[dD(SAO)]   TOL
   1  -620.59533753196    -2204.1696752     901.10983088    0.000D+00 0.289D-13
          max. resid. norm for Fia-block=  1.160D-01 for orbital      1a         
          max. resid. fock norm         =  2.540D-01 for orbital    924a         
          Delta Eig. =    29.7546268825 eV 
 
                                              current damping :  0.650
 ITERATION  ENERGY          1e-ENERGY        2e-ENERGY     RMS[dD(SAO)]   TOL
   2  -620.71267478182    -2202.5920277     899.41484603    0.964D-03 0.188D-13
          Norm of current diis error: 0.93721    
          max. resid. norm for Fia-block=  5.172D-02 for orbital      3a         
          max. resid. fock norm         =  9.879D-02 for orbital    930a         
          Delta Eig. =    13.0424376401 eV 
 
                                              current damping :  0.600
 ITERATION  ENERGY          1e-ENERGY        2e-ENERGY     RMS[dD(SAO)]   TOL
   3  -620.73673936227    -2202.7475697     899.54632349    0.421D-03 0.143D-13
          Norm of current diis error: 0.42385    
          max. resid. norm for Fia-block=  2.439D-02 for orbital      3a         
          max. resid. fock norm         =  3.799D-02 for orbital    924a         
          Delta Eig. =     5.7137189333 eV 
 
                                              current damping :  0.650
 ITERATION  ENERGY          1e-ENERGY        2e-ENERGY     RMS[dD(SAO)]   TOL
   4  -620.74271307842    -2202.7045728     899.49735290    0.235D-03 0.125D-13
          Norm of current diis error: 0.18247    
          max. resid. norm for Fia-block=  9.227D-03 for orbital     37a         
          max. resid. fock norm         =  1.515D-02 for orbital    824a         
          Delta Eig. =     2.0244851179 eV 
 
                                              current damping :  0.500
 ITERATION  ENERGY          1e-ENERGY        2e-ENERGY     RMS[dD(SAO)]   TOL
   5  -620.74390416717    -2202.6695832     899.46117223    0.803D-04 0.116D-13
          Norm of current diis error: 0.82540E-01
          max. resid. norm for Fia-block=  4.858D-03 for orbital     37a         
          max. resid. fock norm         =  5.521D-03 for orbital    926a         
 mo-orthogonalization: Cholesky decomposition
          Delta Eig. =     0.8241940921 eV 
 
                                              current damping :  0.350
 ITERATION  ENERGY          1e-ENERGY        2e-ENERGY     RMS[dD(SAO)]   TOL
   6  -620.74420843088    -2202.6611180     899.45240272    0.435D-04 0.108D-13
          Norm of current diis error: 0.35608E-01
          max. resid. norm for Fia-block=  2.334D-03 for orbital     30a         
          max. resid. fock norm         =  2.595D-03 for orbital     53a         
          Delta Eig. =     0.3067939974 eV 
 
                                              current damping :  0.200
 ITERATION  ENERGY          1e-ENERGY        2e-ENERGY     RMS[dD(SAO)]   TOL
   7  -620.74428070121    -2202.6598928     899.45110528    0.191D-04 0.101D-13
          Norm of current diis error: 0.14497E-01
          max. resid. norm for Fia-block=  1.076D-03 for orbital     30a         
          max. resid. fock norm         =  1.213D-03 for orbital     53a         
          Delta Eig. =     0.0920066482 eV 
 
                                              current damping :  0.050
 ITERATION  ENERGY          1e-ENERGY        2e-ENERGY     RMS[dD(SAO)]   TOL
   8  -620.74429599027    -2202.6588852     899.45008234    0.818D-05 0.946D-14
          Norm of current diis error: 0.53717E-02
          max. resid. norm for Fia-block=  4.521D-04 for orbital     45a         
          max. resid. fock norm         =  4.923D-04 for orbital     53a         
          Delta Eig. =     0.0217923718 eV 
 
                                              current damping :  0.100
 ITERATION  ENERGY          1e-ENERGY        2e-ENERGY     RMS[dD(SAO)]   TOL
   9  -620.74429853094    -2202.6596684     899.45086305    0.298D-05 0.897D-14
          Norm of current diis error: 0.17761E-02
          max. resid. norm for Fia-block=  1.309D-04 for orbital     45a         
          max. resid. fock norm         =  1.688D-04 for orbital    871a         
          Delta Eig. =     0.0093050553 eV 
 
                                              current damping :  0.150
 ITERATION  ENERGY          1e-ENERGY        2e-ENERGY     RMS[dD(SAO)]   TOL
  10  -620.74429874573    -2202.6593329     899.45052728    0.964D-06 0.871D-14
          Norm of current diis error: 0.77619E-03
          max. resid. norm for Fia-block=  5.662D-05 for orbital     45a         
          max. resid. fock norm         =  7.660D-05 for orbital    827a         
 mo-orthogonalization: Cholesky decomposition
          Delta Eig. =     0.0044341226 eV 
 
                                              current damping :  0.200
 ITERATION  ENERGY          1e-ENERGY        2e-ENERGY     RMS[dD(SAO)]   TOL
  11  -620.74429877823    -2202.6596055     899.45079984    0.275D-06 0.857D-14
          Norm of current diis error: 0.31990E-03
          max. resid. norm for Fia-block=  2.217D-05 for orbital     45a         
          max. resid. fock norm         =  2.389D-05 for orbital    871a         
          Delta Eig. =     0.0010610838 eV 
 
                                              current damping :  0.250
 ITERATION  ENERGY          1e-ENERGY        2e-ENERGY     RMS[dD(SAO)]   TOL
  12  -620.74429878440    -2202.6595912     899.45078553    0.149D-06 0.841D-14
          Norm of current diis error: 0.11261E-03
          max. resid. norm for Fia-block=  9.992D-06 for orbital     45a         
          max. resid. fock norm         =  1.055D-05 for orbital     53a         
          Delta Eig. =     0.0001455894 eV 

 DENSITY CONVERGED !

 
                                              current damping :  0.100
 ITERATION  ENERGY          1e-ENERGY        2e-ENERGY     RMS[dD(SAO)]   TOL
  13  -620.74429878554    -2202.6595864     899.45078078    0.666D-07 0.823D-14
          Norm of current diis error: 0.53382E-04
          max. resid. norm for Fia-block=  4.875D-06 for orbital     43a         
          max. resid. fock norm         =  5.510D-06 for orbital     53a         
          Delta Eig. =     0.0001193036 eV 

 DENSITY CONVERGED !

 
                                              current damping :  0.150
 ITERATION  ENERGY          1e-ENERGY        2e-ENERGY     RMS[dD(SAO)]   TOL
  14  -620.74429878582    -2202.6595938     899.45078821    0.442D-07 0.822D-14
          Norm of current diis error: 0.19509E-04
          max. resid. norm for Fia-block=  1.857D-06 for orbital     43a         
          max. resid. fock norm         =  2.142D-06 for orbital     53a         
          Delta Eig. =     0.0000838397 eV 

 DENSITY CONVERGED !

 
                                              current damping :  0.200
 ITERATION  ENERGY          1e-ENERGY        2e-ENERGY     RMS[dD(SAO)]   TOL
  15  -620.74429878586    -2202.6595892     899.45078358    0.179D-07 0.823D-14
          Norm of current diis error: 0.89340E-05
          max. resid. norm for Fia-block=  6.856D-07 for orbital     37a         
          max. resid. fock norm         =  8.106D-07 for orbital    896a         
 mo-orthogonalization: Cholesky decomposition
          Delta Eig. =     0.0000486266 eV 

 ENERGY & DENSITY CONVERGED !

 
                                              current damping :  0.250
 ITERATION  ENERGY          1e-ENERGY        2e-ENERGY     RMS[dD(SAO)]   TOL
  16  -620.74429878588    -2202.6595911     899.45078549    0.795D-08 0.822D-14
          max. resid. norm for Fia-block=  2.381D-07 for orbital     37a         
          max. resid. fock norm         =  2.540D-07 for orbital    909a         

 convergence criteria satisfied after    16 iterations


                  ------------------------------------------ 
                 |  total energy      =   -620.74429878588  |
                  ------------------------------------------ 
                 :  kinetic energy    =    619.98001050809  :
                 :  potential energy  =  -1240.72430929397  :
                 :  virial theorem    =      1.99876875506  :
                 :  wavefunction norm =      1.00000000000  :
                  .......................................... 


 orbitals $scfmo  will be written to file mos

    irrep                 41a         42a         43a         44a         45a   
 eigenvalues H         -0.44750    -0.43863    -0.43303    -0.42852    -0.35348
            eV         -12.1771    -11.9359    -11.7834    -11.6607     -9.6187
 occupation              2.0000      2.0000      2.0000      2.0000      2.0000 

    irrep                 46a         47a         48a         49a         50a   
 eigenvalues H          0.09765     0.10025     0.12401     0.13722     0.14485
            eV           2.6572      2.7279      3.3744      3.7339      3.9415
 
 
 
 
 ==============================================================================
                           electrostatic moments
 ==============================================================================

 reference point for electrostatic moments:    0.00000   0.00000   0.00000

 
              nuc           elec       ->  total
 ------------------------------------------------------------------------------
                          charge      
 ------------------------------------------------------------------------------
          90.000000     -90.000000       0.000000
 
 ------------------------------------------------------------------------------
                       dipole moment  
 ------------------------------------------------------------------------------
   x     323.729652    -326.177828      -2.448176
   y     281.140563    -281.330337      -0.189774
   z     -10.397833      10.337684      -0.060150
 
   | dipole moment | =     2.4563 a.u. =     6.2432 debye 
 
 ------------------------------------------------------------------------------
                     quadrupole moment
 ------------------------------------------------------------------------------
  xx    3576.351842   -3650.709296     -74.357454
  yy    1320.654852   -1368.943573     -48.288721
  zz      15.562489     -68.511400     -52.948911
  xy    1392.640171   -1396.643759      -4.003588
  xz      28.139532     -27.268423       0.871108
  yz      29.322100     -28.569817       0.752283
 
     1/3  trace=     -58.531695
     anisotropy=      25.137053
 
 ==============================================================================
 


    ------------------------------------------------------------------------
         total  cpu-time :  3 hours 13 minutes and 49 seconds
         total wall-time : 10 minutes and 47 seconds
    ------------------------------------------------------------------------

   ****  dscf : all done  ****


    2019-04-02 16:40:12.285 

