
   OpenMP run-time library returned nthreads = 28
 operating system is UNIX !

 dscf (c-19-412) : TURBOMOLE V7.3 ( 22142 ) 4 Jul 2018 at 18:12:42
 Copyright (C) 2018 TURBOMOLE GmbH, Karlsruhe


    2019-03-25 11:14:17.087 



                             d s c f - program

                   idea & directorship : reinhart ahlrichs
                   program development : marco haeser
                                         michael baer
                           dft version : oliver treutler


                          quantum chemistry group
                          universitaet  karlsruhe
                                  germany




                          References             
                                                 
          TURBOMOLE:                             
              R. Ahlrichs, M. Baer, M. Haeser, H. Horn, and
              C. Koelmel
              Electronic structure calculations on workstation
              computers: the program system TURBOMOLE
              Chem. Phys. Lett. 162: 165 (1989)
          Density Functional:                              
              O. Treutler and R. Ahlrichs                      
              Efficient Molecular Numerical Integration Schemes
              J. Chem. Phys. 102: 346 (1995)                   
          Parallel Version:                                
              Performance of parallel TURBOMOLE for Density    
              Functional Calculations                          
              M. v. Arnim and R. Ahlrichs                      
              J. Comp. Chem. 19: 1746 (1998)                   
                                         




              +--------------------------------------------------+
              | Atomic coordinate, charge and isotop information |
              +--------------------------------------------------+

                    atomic coordinates            atom    charge  isotop
         12.07912944   15.52410018   67.70888734    n      7.000     0
         13.54177747   13.46240897   67.12118251    c      6.000     0
         13.13737608   11.49709379   68.53280794    n      7.000     0
         11.23253213   12.26054315   70.17875940    c      6.000     0
         10.08735810   11.00198555   72.19509718    c      6.000     0
         10.37837592    8.85903611   72.95665681    o      8.000     0
          8.30534635   12.58746577   73.45554451    n      7.000     0
          7.71008262   15.03844057   72.86594996    c      6.000     0
          6.03956472   16.29699817   74.30781100    n      7.000     0
          8.75321145   16.23652693   70.91386286    n      7.000     0
         10.54656155   14.74553301   69.69687923    c      6.000     0
         12.01865821   17.22485370   66.83961332    h      1.000     0
          7.37938055   11.71819175   74.95220761    h      1.000     0
         14.91749809   13.54933637   65.60940161    h      1.000     0
          5.66539895   18.09601745   73.80325412    h      1.000     0
          5.23265166   15.52032073   75.88951177    h      1.000     0
         12.59502468   16.72974545   76.63406387    n      7.000     0
         14.42805902   15.56756388   75.36038845    c      6.000     0
         14.75309192   13.19406786   76.02746178    n      7.000     0
         12.97296990   12.78588702   77.90018038    c      6.000     0
         12.41739042   10.60514306   79.29857771    c      6.000     0
         13.42272472    8.47542171   79.17385579    o      8.000     0
         10.43506771   11.07190541   81.03523603    n      7.000     0
          9.27288613   13.39437883   81.39995317    c      6.000     0
          7.68551618   13.56067473   83.24810533    n      7.000     0
          9.73397931   15.39748853   80.03746063    n      7.000     0
         11.63882325   14.95340289   78.33103793    c      6.000     0
         11.89015683   18.48530103   76.36383303    h      1.000     0
          9.94940809    9.57902177   82.19363815    h      1.000     0
         15.49953374   16.50297832   73.89207125    h      1.000     0
          7.29812233   12.11881369   84.47264787    h      1.000     0
          6.75766065   15.21418510   83.45219575    h      1.000     0
         12.86336579   15.26142825   86.55512606    n      7.000     0
         14.55278095   15.34268647   84.64272322    c      6.000     0
         15.43906251   13.15249388   84.13438689    n      7.000     0
         14.35624943   11.53299859   85.85214794    c      6.000     0
         14.70395904    8.81557241   86.24332125    c      6.000     0
         16.07401049    7.31324013   84.91673351    o      8.000     0
         13.30745143    7.93684976   88.31257137    n      7.000     0
         11.72197120    9.45429984   89.73175569    c      6.000     0
         10.56923826    8.28266964   91.65927635    n      7.000     0
         11.37615132   11.91094382   89.28200087    n      7.000     0
         12.76321030   12.79344592   87.35448022    c      6.000     0
         11.85047258   16.70328929   87.29589871    h      1.000     0
         13.35469458    6.00365992   88.64516317    h      1.000     0
         14.97607960   17.06989616   83.63360946    h      1.000     0
         10.68451156    6.37026679   91.96163253    h      1.000     0
          9.28989367    9.30690120   92.63437503    h      1.000     0
 
       center of nuclear mass  :   11.73728514   12.53882133   79.06923679
       center of nuclear charge:   11.69637914   12.57116890   79.10240961

              +--------------------------------------------------+
              |               basis set information              |
              +--------------------------------------------------+

              we will work with the 1s 3p 5d 7f 9g ... basis set
              ...i.e. with spherical basis functions...

   type   atoms  prim   cont   basis
   ---------------------------------------------------------------------------
    n       15     50     30   cc-pVTZ   [4s3p2d1f|18s5p2d1f]
    c       15     50     30   cc-pVTZ   [4s3p2d1f|18s5p2d1f]
    o        3     50     30   cc-pVTZ   [4s3p2d1f|18s5p2d1f]
    h       15     16     14   cc-pVTZ   [3s2p1d|5s2p1d]
   ---------------------------------------------------------------------------
   total:   48   1890   1200
   ---------------------------------------------------------------------------

   total number of primitive shells          :   86
   total number of contracted shells         :  420
   total number of cartesian basis functions : 1380
   total number of SCF-basis functions       : 1200


 integral neglect threshold       :  0.24E-13
 integral storage threshold THIZE :  0.10E-04
 integral storage threshold THIME :         5


 DENSITY CONVERGENCE CHECK SWITCHED ON !
 SCF CONVERGENCE IF RMS(delta[D]) <     0.1000000000E-06


 symmetry group of the molecule :   c1 

 the group has the following generators :
   c1(z)

    1 symmetry operations found

 there are 1 real representations :   a   

 maximum number of shells which are related by symmetry :  1


    mo occupation :
   irrep   mo's   occupied
    a     1200      117
 
 number of basis functions   :                   1200
 number of occupied orbitals :                    117
 

 automatic virtual orbital shift switched on 
      shift if e(lumo)-e(homo) < 0.10000000    


          ------------------------
          nuclear repulsion energy  :   3453.64487574    
          ------------------------


         -----------------
         -S,T+V- integrals
         -----------------

 1e-integrals will be neglected if expon. factor < 0.242171E-14
 
   Difference densities algorithm switched on.
   The maximal number of linear combinations of
   difference densities is                    20 .

 DIIS switched on: error vector is FDS-SDF
 Max. Iterations for DIIS is     :   5
 DIIS matrix (see manual) 
    Scaling factor of diagonals  :  1.200
    threshold for scaling factor :  0.000

 scf convergence criterion : increment of total energy < .1000000D-08
                  and increment of one-electron energy < .1000000D-05

  MOs are in ASCII format !


 reading orbital data $scfmo  from file mos
 orbital characterization : scfconv=9

 DSCF restart information will be dumped onto file mos

 
                                              current damping :  0.700
 ITERATION  ENERGY          1e-ENERGY        2e-ENERGY     RMS[dD(SAO)]   TOL
   1  -1618.3281062036    -9091.5039009     4019.5309189    0.000D+00 0.242D-13
          max. resid. norm for Fia-block=  1.038D-01 for orbital      1a         
          max. resid. fock norm         =  1.618D-01 for orbital   1200a         
          Delta Eig. =    28.7460948228 eV 
 
                                              current damping :  0.650
 ITERATION  ENERGY          1e-ENERGY        2e-ENERGY     RMS[dD(SAO)]   TOL
   2  -1618.6122356681    -9086.2377956     4013.9806842    0.820D-03 0.154D-13
          Norm of current diis error:  1.0549    
          max. resid. norm for Fia-block=  4.657D-02 for orbital      1a         
          max. resid. fock norm         =  7.858D-02 for orbital   1174a         
          Delta Eig. =    11.6765592377 eV 
 
                                              current damping :  0.600
 ITERATION  ENERGY          1e-ENERGY        2e-ENERGY     RMS[dD(SAO)]   TOL
   3  -1618.6706936236    -9087.1910845     4014.8755151    0.397D-03 0.119D-13
          Norm of current diis error: 0.48572    
          max. resid. norm for Fia-block=  2.398D-02 for orbital      1a         
          max. resid. fock norm         =  2.662D-02 for orbital      1a         
          Delta Eig. =     5.9782942924 eV 
 
                                              current damping :  0.650
 ITERATION  ENERGY          1e-ENERGY        2e-ENERGY     RMS[dD(SAO)]   TOL
   4  -1618.6853770628    -9086.7564925     4014.4262397    0.246D-03 0.105D-13
          Norm of current diis error: 0.21089    
          max. resid. norm for Fia-block=  8.967D-03 for orbital    115a         
          max. resid. fock norm         =  1.339D-02 for orbital    882a         
          Delta Eig. =     1.6872717743 eV 
 
                                              current damping :  0.500
 ITERATION  ENERGY          1e-ENERGY        2e-ENERGY     RMS[dD(SAO)]   TOL
   5  -1618.6883872031    -9086.7175731     4014.3843101    0.844D-04 0.978D-14
          Norm of current diis error: 0.95922E-01
          max. resid. norm for Fia-block=  4.658D-03 for orbital     94a         
          max. resid. fock norm         =  4.877D-03 for orbital    127a         
 mo-orthogonalization: Cholesky decomposition
          Delta Eig. =     0.8292429489 eV 
 
                                              current damping :  0.350
 ITERATION  ENERGY          1e-ENERGY        2e-ENERGY     RMS[dD(SAO)]   TOL
   6  -1618.6891936314    -9086.6829685     4014.3488991    0.500D-04 0.912D-14
          Norm of current diis error: 0.42828E-01
          max. resid. norm for Fia-block=  2.264D-03 for orbital    117a         
          max. resid. fock norm         =  2.532D-03 for orbital    127a         
          Delta Eig. =     0.2898042055 eV 
 
                                              current damping :  0.200
 ITERATION  ENERGY          1e-ENERGY        2e-ENERGY     RMS[dD(SAO)]   TOL
   7  -1618.6894080648    -9086.6776295     4014.3433457    0.249D-04 0.846D-14
          Norm of current diis error: 0.18783E-01
          max. resid. norm for Fia-block=  1.191D-03 for orbital    117a         
          max. resid. fock norm         =  1.294D-03 for orbital    127a         
          Delta Eig. =     0.0902584953 eV 
 
                                              current damping :  0.050
 ITERATION  ENERGY          1e-ENERGY        2e-ENERGY     RMS[dD(SAO)]   TOL
   8  -1618.6894633579    -9086.6737660     4014.3394269    0.129D-04 0.783D-14
          Norm of current diis error: 0.78701E-02
          max. resid. norm for Fia-block=  6.256D-04 for orbital    115a         
          max. resid. fock norm         =  6.374D-04 for orbital    115a         
          Delta Eig. =     0.0183958533 eV 
 
                                              current damping :  0.100
 ITERATION  ENERGY          1e-ENERGY        2e-ENERGY     RMS[dD(SAO)]   TOL
   9  -1618.6894756020    -9086.6772138     4014.3428624    0.654D-05 0.730D-14
          Norm of current diis error: 0.29940E-02
          max. resid. norm for Fia-block=  2.371D-04 for orbital    117a         
          max. resid. fock norm         =  2.457D-04 for orbital    115a         
          Delta Eig. =     0.0150506113 eV 
 
                                              current damping :  0.150
 ITERATION  ENERGY          1e-ENERGY        2e-ENERGY     RMS[dD(SAO)]   TOL
  10  -1618.6894771595    -9086.6741988     4014.3398459    0.247D-05 0.702D-14
          Norm of current diis error: 0.16127E-02
          max. resid. norm for Fia-block=  1.037D-04 for orbital    115a         
          max. resid. fock norm         =  1.632D-04 for orbital   1174a         
 mo-orthogonalization: Cholesky decomposition
          Delta Eig. =     0.0095672891 eV 
 
                                              current damping :  0.200
 ITERATION  ENERGY          1e-ENERGY        2e-ENERGY     RMS[dD(SAO)]   TOL
  11  -1618.6894774797    -9086.6763154     4014.3419622    0.112D-05 0.685D-14
          Norm of current diis error: 0.73824E-03
          max. resid. norm for Fia-block=  6.697D-05 for orbital    116a         
          max. resid. fock norm         =  6.782D-05 for orbital    116a         
          Delta Eig. =     0.0022124035 eV 
 
                                              current damping :  0.250
 ITERATION  ENERGY          1e-ENERGY        2e-ENERGY     RMS[dD(SAO)]   TOL
  12  -1618.6894775772    -9086.6758318     4014.3414785    0.604D-06 0.669D-14
          Norm of current diis error: 0.33583E-03
          max. resid. norm for Fia-block=  3.814D-05 for orbital    116a         
          max. resid. fock norm         =  3.857D-05 for orbital    116a         
          Delta Eig. =     0.0004441409 eV 
 
                                              current damping :  0.300
 ITERATION  ENERGY          1e-ENERGY        2e-ENERGY     RMS[dD(SAO)]   TOL
  13  -1618.6894776021    -9086.6758883     4014.3415350    0.341D-06 0.654D-14
          Norm of current diis error: 0.15491E-03
          max. resid. norm for Fia-block=  1.935D-05 for orbital    116a         
          max. resid. fock norm         =  1.953D-05 for orbital    116a         
          Delta Eig. =     0.0002088586 eV 
 
                                              current damping :  0.350
 ITERATION  ENERGY          1e-ENERGY        2e-ENERGY     RMS[dD(SAO)]   TOL
  14  -1618.6894776073    -9086.6758536     4014.3415003    0.159D-06 0.641D-14
          Norm of current diis error: 0.68216E-04
          max. resid. norm for Fia-block=  8.754D-06 for orbital    116a         
          max. resid. fock norm         =  8.827D-06 for orbital    116a         
          Delta Eig. =     0.0001584743 eV 

 DENSITY CONVERGED !

 
                                              current damping :  0.400
 ITERATION  ENERGY          1e-ENERGY        2e-ENERGY     RMS[dD(SAO)]   TOL
  15  -1618.6894776082    -9086.6758655     4014.3415122    0.683D-07 0.631D-14
          Norm of current diis error: 0.30764E-04
          max. resid. norm for Fia-block=  3.695D-06 for orbital    116a         
          max. resid. fock norm         =  3.717D-06 for orbital    116a         
 mo-orthogonalization: Cholesky decomposition
          Delta Eig. =     0.0000425442 eV 

 DENSITY CONVERGED !

 
                                              current damping :  0.450
 ITERATION  ENERGY          1e-ENERGY        2e-ENERGY     RMS[dD(SAO)]   TOL
  16  -1618.6894776084    -9086.6758477     4014.3414944    0.277D-07 0.689D-14
          Norm of current diis error: 0.15087E-04
          max. resid. norm for Fia-block=  1.676D-06 for orbital    116a         
          max. resid. fock norm         =  1.689D-06 for orbital    116a         
          Delta Eig. =     0.0000294761 eV 

 ENERGY & DENSITY CONVERGED !

 
                                              current damping :  0.500
 ITERATION  ENERGY          1e-ENERGY        2e-ENERGY     RMS[dD(SAO)]   TOL
  17  -1618.6894776085    -9086.6758503     4014.3414970    0.129D-07 0.690D-14
          max. resid. norm for Fia-block=  4.179D-07 for orbital    116a         
          max. resid. fock norm         =  4.220D-07 for orbital    116a         

 convergence criteria satisfied after    17 iterations


                  ------------------------------------------ 
                 |  total energy      =  -1618.68947760847  |
                  ------------------------------------------ 
                 :  kinetic energy    =   1615.93263563938  :
                 :  potential energy  =  -3234.62211324786  :
                 :  virial theorem    =      1.99829686792  :
                 :  wavefunction norm =      1.00000000000  :
                  .......................................... 


 orbitals $scfmo  will be written to file mos

    irrep                113a        114a        115a        116a        117a   
 eigenvalues H         -0.39036    -0.38418    -0.30062    -0.28609    -0.27671
            eV         -10.6224    -10.4542     -8.1802     -7.7851     -7.5297
 occupation              2.0000      2.0000      2.0000      2.0000      2.0000 

    irrep                118a        119a        120a        121a        122a   
 eigenvalues H          0.09103     0.10031     0.11632     0.12606     0.13255
            eV           2.4771      2.7297      3.1652      3.4302      3.6070
 
 
 
 
 ==============================================================================
                           electrostatic moments
 ==============================================================================

 reference point for electrostatic moments:    0.00000   0.00000   0.00000

 
              nuc           elec       ->  total
 ------------------------------------------------------------------------------
                          charge      
 ------------------------------------------------------------------------------
         234.000000    -234.000000      -0.000000
 
 ------------------------------------------------------------------------------
                       dipole moment  
 ------------------------------------------------------------------------------
   x    2736.952719   -2741.671261      -4.718542
   y    2941.653523   -2937.521996       4.131527
   z   18509.963848  -18505.958330       4.005517
 
   | dipole moment | =     7.4417 a.u. =    18.9148 debye 
 
 ------------------------------------------------------------------------------
                     quadrupole moment
 ------------------------------------------------------------------------------
  xx   33516.173949  -33765.262583    -249.088634
  yy   38898.322729  -38922.962952     -24.640223
  zz 1475924.783884-1475381.705262     543.078622
  xy   33915.426199  -33912.708601       2.717599
  xz  217466.298030 -217810.822274    -344.524244
  yz  230673.834116 -230335.310095     338.524021
 
     1/3  trace=      89.783255
     anisotropy=    1095.451473
 
 ==============================================================================
 


    ------------------------------------------------------------------------
         total  cpu-time :  4 hours 54 minutes and 54 seconds
         total wall-time : 11 minutes and  5 seconds
    ------------------------------------------------------------------------

   ****  dscf : all done  ****


    2019-03-25 11:25:21.757 

