
   OpenMP run-time library returned nthreads = 28

 ricc2 (c-19-414) : TURBOMOLE V7.3 ( 22142 ) 4 Jul 2018 at 18:12:42
 Copyright (C) 2018 TURBOMOLE GmbH, Karlsruhe


    2019-04-02 15:50:16.593 



                              R I C C 2 - PROGRAM

                          the quantum chemistry groups
                             at the universities in
                           Karlsruhe, Bochum & Mainz
                                   Germany



   *-----------------------------------------------------------------------*
   |                     program will use 28 thread(s)                     |
   *-----------------------------------------------------------------------*


              +--------------------------------------------------+
              | Atomic coordinate, charge and isotop information |
              +--------------------------------------------------+

                    atomic coordinates            atom    charge  isotop
         -1.00810080   -0.52835517    0.20219268    n      7.000     0
         -1.18892380   -2.35918050    0.72347913    h      1.000     0
         -2.12141343   -0.31399584   -1.33748032    h      1.000     0
         -1.92168032    1.11207757    2.24381065    c      6.000     0
         -1.72486581    3.07184761    1.66205412    h      1.000     0
         -3.88289071    0.78439155    2.79396688    h      1.000     0
         -0.72758874    0.84811078    3.89399648    h      1.000     0
          3.95570402    1.73346725    0.40080572    o      8.000     0
          2.41082001    0.79564817    0.07359415    h      1.000     0
          5.05533840    1.24497707   -0.95175838    h      1.000     0
 
       center of nuclear mass  :    0.48683024    0.77018879    0.87844484
       center of nuclear charge:    0.38854716    0.74691129    0.89080394

              +--------------------------------------------------+
              |               basis set information              |
              +--------------------------------------------------+

              we will work with the 1s 3p 5d 7f 9g ... basis set
              ...i.e. with spherical basis functions...

   type   atoms  prim   cont   basis
   ---------------------------------------------------------------------------
    n        1     77     55   cc-pVQZ   [5s4p3d2f1g|21s6p3d2f1g]
    h        7     32     30   cc-pVQZ   [4s3p2d1f|6s3p2d1f]
    c        1     77     55   cc-pVQZ   [5s4p3d2f1g|21s6p3d2f1g]
    o        1     77     55   cc-pVQZ   [5s4p3d2f1g|21s6p3d2f1g]
   ---------------------------------------------------------------------------
   total:   10    455    375
   ---------------------------------------------------------------------------

   total number of primitive shells          :  111
   total number of contracted shells         :  115
   total number of cartesian basis functions :  455
   total number of SCF-basis functions       :  375


 symmetry group of the molecule :   c1 

 the group has the following generators :
   c1(z)

    1 symmetry operations found

 there are 1 real representations :   a   


   =========================================================================


     restricted closed shell calculation for the wavefunction models:
               MP2        - Second Order Moeller Plesset PT


     global parameters for ricc2 program:

        hard restart (reuse of interm.) :  disabled
        soft restart (reuse of vectors) :  disabled
        threshold for vector function   :    0.100000E-05
        convergence threshold energy    :    0.100000E-06
        linear dependence threshold     :    0.100000E-13
        global print level              :      1
        maximum number of iterations    :   300
        maximum number DIIS vectors     :    10
        max. dim. of reduced space      :   100
        core memory limit (MB)          : 84000


     MP2 energy only: Energy will be calculated directly from T2 amplitudes!

     Scratch Directory : 


   =========================================================================

    der. integral neglect threshold  :  0.10E-07
    integral neglect threshold       :  0.73E-11
    integral storage threshold THIZE :  0.10E-04
    integral storage threshold THIME :         5


                  +------------------------------------------+
                  |     Auxiliary basis set information      |
                  +------------------------------------------+

              we will work with the 1s 3p 5d 7f 9g ... basis set
              ...i.e. with spherical basis functions...

   type   atoms  prim   cont   basis
   ---------------------------------------------------------------------------
    n        1    132    132   cc-pVQZ   [8s7p6d5f3g1h|8s7p6d5f3g1h]
    h        7     55     55   cc-pVQZ   [5s4p3d2f1g|5s4p3d2f1g]
    c        1    132    132   cc-pVQZ   [8s7p6d5f3g1h|8s7p6d5f3g1h]
    o        1    132    132   cc-pVQZ   [8s7p6d5f3g1h|8s7p6d5f3g1h]
   ---------------------------------------------------------------------------
   total:   10    781    781
   ---------------------------------------------------------------------------

   total number of primitive shells          :  105
   total number of contracted shells         :  195
   total number of cartesian basis functions : 1033
   total number of SCF-basis functions       :  781


 maximum number of shells which are related by symmetry :  1


 The symmetry information takes   1 MB

*---------------------------------------------------------------------*
|               simplified C1 algorithm will be applied               |
*---------------------------------------------------------------------*
  MOs are in ASCII format !


 reading orbital data $scfmo  from file mos
 orbital characterization : scfconv=9



              +--------------------------------------------+
              | list of orbitals that will be kept frozen: |
              +--------------------------------------------+
              |   irrep   index      energy     occ/vir    |
              +--------------------------------------------+
              |   a         1      -20.5179     occupied   |
              |   a         2      -15.5580     occupied   |
              |   a         3      -11.2479     occupied   |
              +--------------------------------------------+



   Molecular Orbital Statistic:
   ============================

   -----------------------------
   orbitals in total:
   -----------------------------
    frozen occupied :      3
    active occupied :     11
    active virtual  :    361
    frozen virtual  :      0
    all together    :    375
   -----------------------------


     time in riccmos       cpu:  2.60 sec    wall:  0.09 sec    ratio: 28.0

     total memory allocated for calculation of (Q|P)**(-1/2) : 7 MiB


     calculation of (P|Q) ...
     time in lp2sym        cpu:  0.45 sec    wall:  0.02 sec    ratio: 27.9


     calculation of the Cholesky decomposition of (P|Q)**(-1) ...
     time in invmetri      cpu:  1.24 sec    wall:  0.05 sec    ratio: 25.8

   threshold for RMS(d[D]) in SCF was     :  0.10E-06
   integral neglect threshold             :  0.73E-11
   derivative integral neglect threshold  :  0.10E-07


   =========================================================================

     Energy of reference wave function is  -171.3323983551000
     Maximum orbital residual is           0.1233199302663E-06


     Number of symmetry-nonredundant auxiliary basis functions:      781

     Block lengths for integral files:
        frozen occupied (BOI):        1 MiB
        active occupied (BJI):        1 MiB
        active virtual  (BAI):        3 MiB
        frozen virtual  (BGI):        0 MiB
               general  (BTI):        3 MiB

   =========================================================================




   **************************************************************************
   *                                                                        *
   *          OPTIMIZATION OF THE GROUND STATE CLUSTER AMPLITUDES           *
   *                                                                        *
   **************************************************************************


   Iter.   MP2 energy       Norm(Omega)   Norm(t1)  Norm(t2)     cpu    wall
   ...........................................................................
    1   -172.0518799160     ------          0.00000   0.25981    0.03    0.00
   ...........................................................................


     time in total         cpu:  2.03 sec    wall:  0.08 sec    ratio: 24.7


     **********************************************************************
     *                                                                    *
     *   RHF  energy                             :   -171.3323983551      *
     *   MP2 correlation energy (doubles)        :     -0.7194815609      *
     *                                                                    *
     *   Final MP2 energy                        :   -172.0518799160      *
     *                                                                    *
     *    E(S)   =     -0.4776154114      E(T)   =     -0.2418661494      *
     *    E(OS)  =     -0.5582374613      E(SS)  =     -0.1612440996      *
     *                                                                    *
     *   SCS-MP2 energy                          :   -172.0560313418      *
     *   (computed with  C(OS) =   1.2000  and  C(SS) =   0.3333)         *
     *                                                                    *
     *   SOS-MP2 energy                          :   -172.0581070547      *
     *   (computed with  C(OS) =   1.3000)                                *
     *                                                                    *
     *   Norm of MP1 T2 amplitudes               :      0.2598094672      *
     *                                                                    *
     **********************************************************************



    ------------------------------------------------------------------------
         total  cpu-time :  17.63 seconds
         total wall-time :   0.68 seconds
    ------------------------------------------------------------------------

   ****  ricc2 : all done  ****


    2019-04-02 15:50:17.250 

