Using Slurm to start processes with PMI2
STARTING ridft ON 8 PROCESSORS!
RUNNING PROGRAM /beegfs/modfac/apps/TURBOMOLE/7.0_intel_GA/bin/em64t-unknown-linux-gnu_mpi/ridft_mpi.
PLEASE WAIT UNTIL ridft HAS FINISHED.
Look for the output in slave1.output.
  this is node-proc. number 1 running on node c-6-30.local
  the total number of node-proc. spawned is            8
  parallel platform: MPP, or cluster with fast interconnect

 ridft (c-6-30.local) : TURBOMOLE V7.0.2( ) 15 Jan 2016 at 17:47:42
 Copyright (C) 2016 TURBOMOLE GmbH, Karlsruhe


    2016-06-10 11:47:34.182 



                                  r i d f t

                        DFT program with RI approximation 
                                for coulomb part 




                                                 
                                 References:     
                                                 
          TURBOMOLE:                             
              R. Ahlrichs, M. Baer, M. Haeser, H. Horn, and
              C. Koelmel
              Electronic structure calculations on workstation
              computers: the program system TURBOMOLE
              Chem. Phys. Lett. 162: 165 (1989)
          Density Functional:                              
              O. Treutler and R. Ahlrichs                      
              Efficient Molecular Numerical Integration Schemes
              J. Chem. Phys. 102: 346 (1995)                   
          Parallel Version:                                
              Performance of parallel TURBOMOLE for Density    
              Functional Calculations                          
              M. v. Arnim and R. Ahlrichs                      
              J. Comp. Chem. 19: 1746 (1998)                   
          RI-J Method:                                     
              Auxiliary Basis Sets to approximate Coulomb      
              Potentials                                       
              Chem. Phys. Lett. 240: 283 (1995)                
              K. Eichkorn, O. Treutler, H. Oehm, M. Haeser     
              and R. Ahlrichs                                  
              Chem. Phys. Lett. 242: 652 (1995)                
                                                           
              Auxiliary Basis Sets for Main Row Atoms and their
              Use to approximate Coulomb Potentials            
              K. Eichkorn, F. Weigend, O. Treutler and         
              R. Ahlrichs                                      
              Theo. Chem. Acc. 97: 119 (1997)                   
                                                           
              Accurate Coulomb-fitting basis sets for H to Rn 
              F. Weigend                                        
              Phys. Chem. Chem. Phys. 8: 1057 (2006)            
                                                           
          Multipole accelerated RI-J (MARI-J):             
              Fast evaluation of the Coulomb potential for     
              electron densities using multipole accelerated   
              resolution of identity approximation             
              M. Sierka, A. Hogekamp and R. Ahlrichs           
              J. Chem. Phys. 118: 9136 (2003)                  
          RI-JK Method:                                     
              A fully direct RI-HF algorithm: Implementation,
              optimised auxiliary basis sets, demonstration of
              accuracy and efficiency                         
              F. Weigend                                      
              Phys. Chem. Chem. Phys. 4: 4285 (2002)           
          Two-component HF and DFT with spin-orbit coupling:  
              Self-consistent treatment of spin-orbit         
              interactions with efficient Hartree-Fock and    
              density functional methods                      
              M. K. Armbruster, F. Weigend, C. van Wüllen and 
              W. Klopper                                      
              Phys. Chem. Chem. Phys. 10: 1748 (2008)         
          Relativistic all-electron 2c calculations           
              An efficient implementation of two-component    
              relativistic exact-decoupling methods for large 
              molecules                                       
              D. Peng, N. Middendorf, F. Weigend, M. Reiher   
              J. Chem. Phys. 138, 184105 (2013)               
                                         


 


              +--------------------------------------------------+
              |      general information about current run       |
              +--------------------------------------------------+

 

 SCF run will be profiled !


 DENSITY CONVERGENCE CHECK SWITCHED ON !
 SCF CONVERGENCE IF RMS(delta[D]) <     0.1000000000E-06

 TPSS meta-GGA functional
 exchange:    LDA + TPSS
 correlation: LDA (PW) + TPSS
 A DFT calculation using the RI-J approximation will be carried out.
 Allocatable memory for RI due to $ricore (MB):       10000


              +--------------------------------------------------+
              | Atomic coordinate, charge and isotop information |
              +--------------------------------------------------+

                    atomic coordinates            atom    charge  isotop
         -0.07022222    6.58471292   -2.12953238    c      6.000     0
          0.01787681   -6.60597233    2.18263368    c      6.000     0
        -10.47734088   -1.15156131    0.76159743    c      6.000     0
        -10.43720310    0.76921302   -1.45862291    c      6.000     0
         -0.70817487    8.79376497   -4.00480211    c      6.000     0
         -0.62551825   -8.76394509    4.11567234    c      6.000     0
        -12.85289670   -2.81665570    0.62332616    c      6.000     0
        -12.87466635    2.34809810   -1.48487121    c      6.000     0
         -5.66829023   -0.54582850    3.79963454    c      6.000     0
         -5.42525255    0.35103553   -4.18260644    c      6.000     0
        -15.26825016   -1.22072529    0.58681666    c      6.000     0
        -15.22784782    0.66620405   -1.61031123    c      6.000     0
          8.85117485    4.27187710   -5.47931761    c      6.000     0
          8.68319709   -3.60319751    5.68556232    c      6.000     0
          6.27547813  -10.04797620   -4.26579218    c      6.000     0
          5.73938172    9.92075984    4.78391729    c      6.000     0
          3.72092745    7.38087343   -0.01810358    c      6.000     0
          3.93703653   -7.37592235    0.30772300    c      6.000     0
         -0.45733262    7.48477058    0.51638656    c      6.000     0
         -0.20195503   -7.62884330   -0.43597872    c      6.000     0
          2.82566969   -6.06522720    2.27073272    c      6.000     0
          2.75582541    6.15177666   -2.10591080    c      6.000     0
          7.93955207    6.58699948   -1.40984908    c      6.000     0
          8.05106481   -6.35537575    1.84817106    c      6.000     0
         -4.15909825   -4.42866768    1.31360533    c      6.000     0
         -4.20450836    4.24674374   -1.56493890    c      6.000     0
          4.41114992    5.11390127   -3.91201655    c      6.000     0
          4.35149126   -4.82110710    4.05890497    c      6.000     0
         -1.86298651   -4.49938123    2.76568978    c      6.000     0
         -1.83522643    4.43074638   -2.87924343    c      6.000     0
          6.55451509   -7.61423571   -0.04781007    c      6.000     0
          6.30881290    7.65437350    0.49646885    c      6.000     0
         -8.28763962    2.46446744   -1.21462147    n      7.000     0
         -8.25725282   -2.76967711    0.66518360    n      7.000     0
          7.03533701    5.35036270   -3.57668465    c      6.000     0
          6.99616299   -4.95055334    3.83854400    c      6.000     0
         -6.01923127    2.38096044   -2.29716998    c      6.000     0
         -6.07176565   -2.60714176    1.89976058    c      6.000     0
         -4.49427897   -6.16659211   -0.84166512    c      6.000     0
         -4.72573263    5.92682366    0.60441001    c      6.000     0
         -2.34390291   -7.61506719   -1.78433611    c      6.000     0
         -2.67405696    7.38204506    1.73182062    c      6.000     0
          7.38986853    8.81470314    2.74305087    c      6.000     0
          7.78731573   -8.91196734   -2.13395434    c      6.000     0
          2.10893436   -8.45465362   -1.28875543    o      8.000     0
          1.78354242    8.31188481    1.53734890    o      8.000     0
         10.57910263   -6.44228426    1.69861813    o      8.000     0
         10.45413504    6.70427589   -1.09651359    o      8.000     0
          3.33665164   -3.47904250    5.95944033    o      8.000     0
          3.53106666    3.87773692   -5.94753506    o      8.000     0
          9.74331456    8.88961188    3.02819164    o      8.000     0
         10.15002142   -9.06654694   -2.21734795    o      8.000     0
         -6.53686505   -6.30316262   -2.06669899    o      8.000     0
         -6.85237372    5.99107435    1.68168618    o      8.000     0
         -1.38492359   -3.13766348    4.63946663    o      8.000     0
         -1.19916351    3.13702097   -4.75774459    o      8.000     0
         10.70025297    7.61451917    0.58836623    h      1.000     0
         10.94846850   -7.51313536    0.13825236    h      1.000     0
         -8.38762503    3.92586825    0.13093912    h      1.000     0
         -8.22580778   -4.24785868   -0.66410645    h      1.000     0
          1.65292455    3.58033182   -5.69287556    h      1.000     0
          1.44743573   -3.33005649    5.64544344    h      1.000     0
        -10.49338465   -0.08745653    2.53359362    h      1.000     0
        -10.29673975   -0.29358785   -3.22597038    h      1.000     0
         -2.51514989   -8.44477035   -3.64873991    h      1.000     0
         -2.96911880    8.12204292    3.61778620    h      1.000     0
        -12.93286991    3.50874900    0.23562995    h      1.000     0
        -12.75259004   -3.97562474   -1.09653249    h      1.000     0
        -12.84484647   -4.11916833    2.23133193    h      1.000     0
        -12.80376382    3.65095089   -3.09113842    h      1.000     0
        -15.44206717   -0.18831121    2.37952425    h      1.000     0
        -15.24273886   -0.36947925   -3.40972735    h      1.000     0
         -5.45730230   -1.35595409    5.68875596    h      1.000     0
         -3.65110207   -0.56982802   -3.67462916    h      1.000     0
        -16.91869917   -2.46176513    0.44616434    h      1.000     0
        -16.92769427    1.84673486   -1.58342042    h      1.000     0
         -3.89396967    0.43138668    3.40885807    h      1.000     0
         -6.91571734   -1.06452053   -4.28022969    h      1.000     0
          7.64411228   -2.09653776    6.63783312    h      1.000     0
          7.95567143    2.74960822   -6.54531213    h      1.000     0
         -7.20985322    0.81696640    3.79028040    h      1.000     0
         -5.11930589    1.18285518   -6.04878658    h      1.000     0
         10.33179417   -2.81782733    4.71739893    h      1.000     0
         10.55079453    3.56411797   -4.54539606    h      1.000     0
          7.58794962  -10.86001042   -5.63195079    h      1.000     0
          6.95851964   10.69961047    6.25225340    h      1.000     0
          0.58611746  -10.39617714    3.75171109    h      1.000     0
          0.41908456   10.45449409   -3.51859447    h      1.000     0
          4.50907553    8.46039838    5.57871721    h      1.000     0
          5.11187926   -8.59432327   -5.16811751    h      1.000     0
         -0.27801651   -8.06586136    6.02769724    h      1.000     0
         -0.24556991    8.19230294   -5.92542526    h      1.000     0
         -2.71684036    9.26595084   -3.88864064    h      1.000     0
         -2.60736853   -9.31986473    3.92879732    h      1.000     0
          4.98604240  -11.50525741   -3.56606439    h      1.000     0
          4.51143768   11.39837450    4.01854042    h      1.000     0
          9.45501794    5.72243088   -6.83217255    h      1.000     0
          9.39687107   -4.90281886    7.13473660    h      1.000     0
          5.37744248   -1.46325274   -2.07862316    c      0.000     0
          3.66733481   -0.28338333   -0.32336994    c      0.000     0
          8.94745640    0.29311542    0.09339027    c      0.000     0
          4.69780247    1.19031959    1.67701856    c      0.000     0
          7.27457634    1.46478342    1.82985961    c      0.000     0
          8.04303347   -1.18270400   -1.84153812    c      0.000     0
          3.08554483    2.42769337    3.53216270    n      0.000     0
          4.06423399   -2.74066981   -3.78139868    n      0.000     0
          1.59717763   -2.36162854   -3.10691763    o      0.000     0
          1.31621315   -0.85995767   -0.97341683    n      0.000     0
         10.01530284   -2.64996296   -3.95534797    cl     0.000     0
          0.77949313    2.29407083    3.19187972    o      0.000     0
          4.11616367    3.54291525    5.30899660    o      0.000     0
         10.96385087    0.57485469    0.30209162    h      0.000     0
          8.03451080    2.60855906    3.34882147    h      0.000     0
 
       center of nuclear mass  :    1.11888137   -0.07326547   -0.07816068
       center of nuclear charge:   -0.06565545   -0.02577760   -0.00439249

              +--------------------------------------------------+
              |               basis set information              |
              +--------------------------------------------------+

              we will work with the 1s 3p 5d 7f 9g ... basis set
              ...i.e. with spherical basis functions...

   type   atoms  prim   cont   basis
   ---------------------------------------------------------------------------
    c       48     77     57   def2-QZVP   [7s4p3d2f1g|15s8p3d2f1g]
    n        5     77     57   def2-QZVP   [7s4p3d2f1g|15s8p3d2f1g]
    o       15     77     57   def2-QZVP   [7s4p3d2f1g|15s8p3d2f1g]
    h       44     33     30   def2-QZVP   [4s3p2d1f|7s3p2d1f]
    cl       1    105     70   def2-QZVP   [9s6p4d2f1g|20s14p4d2f1g]
   ---------------------------------------------------------------------------
   total:  113   6793   5266
   ---------------------------------------------------------------------------

   total number of primitive shells          :  141
   total number of contracted shells         : 1618
   total number of cartesian basis functions : 6522
   total number of SCF-basis functions       : 5266


 integral neglect threshold       :  0.51E-14
 integral storage threshold THIZE :  0.10E-04
 integral storage threshold THIME :         5

 RI-J AUXILIARY BASIS SET information:

              we will work with the 1s 3p 5d 7f 9g ... basis set
              ...i.e. with spherical basis functions...

   type   atoms  prim   cont   basis
   ---------------------------------------------------------------------------
    c       48     70     49   def2-QZVP   [6s4p3d1f1g|12s5p4d2f1g]
    n        5     70     49   def2-QZVP   [6s4p3d1f1g|12s5p4d2f1g]
    o       15     70     49   def2-QZVP   [6s4p3d1f1g|12s5p4d2f1g]
    h       44     16     11   def2-QZVP   [3s1p1d|5s2p1d]
    cl       1     77     51   def2-QZVP   [8s4p3d1f1g|14s5p5d2f1g]
   ---------------------------------------------------------------------------
   total:  113   5541   3867
   ---------------------------------------------------------------------------

   total number of primitive shells          :  107
   total number of contracted shells         : 1257
   total number of cartesian basis functions : 4739
   total number of SCF-basis functions       : 3867


 symmetry group of the molecule :   c1 

 the group has the following generators :
   c1(z)

    1 symmetry operations found

 there are 1 real representations :   a   

 maximum number of shells which are related by symmetry :  1


    mo occupation :
   irrep   mo's   occupied
    a     5266      202
 
 number of basis functions   :         5266
 number of occupied orbitals :          202
 
  
           ------------------
           density functional
           ------------------
 Dummy atoms with grid-point found.
 DFT quadrature threshold dgrenze tightened by factor 1/10.

 TPSS meta-GGA functional
 exchange:    LDA + TPSS
 correlation: LDA (PW) + TPSS
 Dummy atoms with grid-point found.
 DFT quadrature threshold dgrenze tightened by factor 1/10.

 Dummy atoms with grid-point found.
 DFT quadrature threshold dgrenze tightened by factor 1/10.

 grinp -> nfun, dfgga, dfhybrid 
           5 F F
 iterations will be done with small grid
  
 spherical integration : Lebedev's spherical grid
 spherical gridsize    :           5
    i.e. gridpoints    :         590
 value for diffuse not defined
 radial integration    : Chebyshev 2nd kind (scaling 3)
 radial gridsize       :           8
 integration cells     :         113
 partition function    : becke
 partition sharpness   :           3
  
 found dummy atom(s) with basis: included in dft

 <rddim> : input of entry tasksize
           from data group '$pardft' failed !

               Default values taken

 <rddim> : input of entry memdiv
           from data group '$pardft' failed !

               Default values taken
  RIDFT: memory allocation for DFT gridpoints
  MEMORY is divided by 1 as DEFAULT
 Each node can hold at most  the            1 -th part
 of the gridpoints    

 biggest AO integral is expected to be    12.165751258
  
           ------------------------
               RI-J - INFORMATION
           ------------------------
 
 
 **************************************************
 *      MEMORY ALLOCATION FOR PARALLEL RI-DFT     *
 **************************************************
 
 
MEMORY FOR (MU NU/ ALPHA), SEQUENTIAL RUN               9876 MByte
 
            DIFFERENCE IN MEMORY NEED:       DIAG./SLAVE  
 
      TOTAL DIFFERENCE :                   1249 MByte
 
      difference in xcore:                  125 MByte
      difference in fatmat:                 377 MByte
      getcor calls skipped by slaves:       748 MByte
 
 
           Integral memory available for diagonal.      9876 MByte
 
           Integral memory available for slave             0 MByte
 
         MEMORY FOR (MU NU/ ALPHA) ON DIAGONALIZER      9876 MByte
 
         MEMORY FOR (MU NU/ ALPHA) ON ONE SLAVE            0 MByte
 
         TOTAL MEMORY FOR (MU NU/ ALPHA),ALL NODES      9876 MByte
 
 Contributions to RI integral batches: 
  neglected integral batches:      847282
  direct contribution:             407394
  memory contribution:       55095
 Memory core needed for (P|Q) and Cholesky    115 MByte
 Memory core minimum needed except of (P|Q)    12 MByte
 Total minimum memory core needed (sum)       126 MByte
     number of direct tasks:         160
  
 ****************************************
 Memory allocated for RI-J 10002 MByte
 ****************************************
                                            

          ------------------------
          nuclear repulsion energy  :   8152.50846353    
          ------------------------

 
          -----------------
          -S integrals
          -----------------

 1e-integrals will be neglected if expon. factor < 0.512414E-15
 
          -----------------
          -T+V integrals
          -----------------

 1e-integrals will be neglected if expon. factor < 0.512414E-15
 Difference densities >>NOT<< switched on in parallel ridft!

 automatic virtual orbital shift switched on 
      shift if e(lumo)-e(homo) < 0.10000000    


 DIIS switched on: error vector is FDS-SDF
 Max. Iterations for DIIS is     :   4
 DIIS matrix (see manual) 
    Scaling factor of diagonals  :  1.200
    threshold for scaling factor :  0.000

 scf convergence criterion : increment of total energy < .1000000D-08
                  and increment of one-electron energy < .1000000D-05


 <geterg> : there is no data group $energy 

  MOs are in ASCII format !


 reading orbital data $scfmo  from file mos . 

 orbital characterization : expanded
 
 mo provided and orthogonalized by Cholesky decomposition

 DSCF restart information will be dumped onto file mos


 Starting SCF iterations


 ITERATION  ENERGY          1e-ENERGY        2e-ENERGY     RMS[dD(SAO)]   TOL
   1  -2629.5526273450    -19751.830101     8969.7690099    0.000D+00 0.511D-14
                            Exc = -357.773726110     Coul =  9327.54273597    
                              N = 404.00031081    
                            current damping = 0.700
 
          max. resid. norm for Fia-block=  8.277D-01 for orbital     67a         
          max. resid. fock norm         =  1.023D+02 for orbital   4540a         

 ITERATION  ENERGY          1e-ENERGY        2e-ENERGY     RMS[dD(SAO)]   TOL
   2  -2637.8588556089    -19808.626856     9018.2595368    0.118D-01 0.511D-14
                            Exc = -359.117573050     Coul =  9377.37710984    
                              N = 404.00020472    
                            current damping = 0.650
 
          Norm of current diis error:  8.9096    
          max. resid. norm for Fia-block=  1.559D-01 for orbital      7a         
          max. resid. fock norm         =  2.839D-01 for orbital   4447a         

 ITERATION  ENERGY          1e-ENERGY        2e-ENERGY     RMS[dD(SAO)]   TOL
   3  -2639.0727236756    -19826.828756     9035.2475685    0.493D-02 0.511D-14
                            Exc = -361.331418013     Coul =  9396.57898651    
                              N = 404.00018754    
                            current damping = 0.550
 
          Norm of current diis error:  4.4586    
          max. resid. norm for Fia-block=  6.068D-02 for orbital      5a         
          max. resid. fock norm         =  6.446D-02 for orbital    226a         

 ITERATION  ENERGY          1e-ENERGY        2e-ENERGY     RMS[dD(SAO)]   TOL
   4  -2639.4997198998    -19832.665967     9040.6577835    0.133D-02 0.511D-14
                            Exc = -360.927719107     Coul =  9401.58550261    
                              N = 404.00018595    
                            current damping = 0.450
 
          Norm of current diis error:  1.9289    
          max. resid. norm for Fia-block=  3.705D-02 for orbital     67a         
          max. resid. fock norm         =  7.437D-02 for orbital   4940a         

 ITERATION  ENERGY          1e-ENERGY        2e-ENERGY     RMS[dD(SAO)]   TOL
   5  -2639.5644555884    -19834.860970     9042.7880508    0.917D-03 0.511D-14
                            Exc = -361.846631834     Coul =  9404.63468261    
                              N = 404.00019603    
                            current damping = 0.350
 
          Norm of current diis error:  1.1121    
          max. resid. norm for Fia-block=  1.566D-02 for orbital    191a         
          max. resid. fock norm         =  2.133D-02 for orbital   5199a         
          mo-orthogonalization: Cholesky decomposition

 ITERATION  ENERGY          1e-ENERGY        2e-ENERGY     RMS[dD(SAO)]   TOL
   6  -2639.5923898589    -19838.056978     9045.9561246    0.548D-03 0.511D-14
                            Exc = -361.756617937     Coul =  9407.71274250    
                              N = 404.00019936    
                            current damping = 0.250
 
          Norm of current diis error: 0.48057    
          max. resid. norm for Fia-block=  6.738D-03 for orbital    194a         
          max. resid. fock norm         =  1.749D-02 for orbital   4984a         

 ITERATION  ENERGY          1e-ENERGY        2e-ENERGY     RMS[dD(SAO)]   TOL
   7  -2639.5942484470    -19836.449149     9044.3464369    0.346D-03 0.511D-14
                            Exc = -361.693565290     Coul =  9406.04000223    
                              N = 404.00019852    
                            current damping = 0.300
 
          Norm of current diis error: 0.39576    
          max. resid. norm for Fia-block=  3.882D-03 for orbital    195a         
          max. resid. fock norm         =  8.314D-03 for orbital   4814a         

 ITERATION  ENERGY          1e-ENERGY        2e-ENERGY     RMS[dD(SAO)]   TOL
   8  -2639.5979366612    -19836.831200     9044.7248002    0.396D-04 0.511D-14
                            Exc = -361.733385593     Coul =  9406.45818578    
                              N = 404.00020134    
                            current damping = 0.350
 
          Norm of current diis error: 0.12685    
          max. resid. norm for Fia-block=  2.009D-03 for orbital    198a         
          max. resid. fock norm         =  5.977D-03 for orbital   5255a         

 ITERATION  ENERGY          1e-ENERGY        2e-ENERGY     RMS[dD(SAO)]   TOL
   9  -2639.5980753545    -19836.968217     9044.8616783    0.421D-04 0.511D-14
                            Exc = -361.772403299     Coul =  9406.63408161    
                              N = 404.00020091    
                            current damping = 0.200
 
          Norm of current diis error: 0.10063    
          max. resid. norm for Fia-block=  8.624D-04 for orbital    199a         
          max. resid. fock norm         =  2.801D-03 for orbital   5255a         

 ITERATION  ENERGY          1e-ENERGY        2e-ENERGY     RMS[dD(SAO)]   TOL
  10  -2639.5983062309    -19837.154970     9045.0482001    0.227D-04 0.511D-14
                            Exc = -361.756168276     Coul =  9406.80436838    
                              N = 404.00020104    
                            current damping = 0.050
 
          Norm of current diis error: 0.29344E-01
          max. resid. norm for Fia-block=  3.320D-04 for orbital    200a         
          max. resid. fock norm         =  6.517D-04 for orbital   5212a         
          irrep a   : virtual orbitals shifted by    0.00667
          mo-orthogonalization: Cholesky decomposition

 ITERATION  ENERGY          1e-ENERGY        2e-ENERGY     RMS[dD(SAO)]   TOL
  11  -2639.5983194586    -19836.982969     9044.8761857    0.526D-05 0.511D-14
                            Exc = -361.755492686     Coul =  9406.63167836    
                              N = 404.00020113    
                            current damping = 0.100
 
          Norm of current diis error: 0.17011E-01
          max. resid. norm for Fia-block=  2.820D-04 for orbital    197a         
          max. resid. fock norm         =  4.720D-04 for orbital   4961a         
          irrep a   : virtual orbitals shifted by    0.00219

 ITERATION  ENERGY          1e-ENERGY        2e-ENERGY     RMS[dD(SAO)]   TOL
  12  -2639.5983239845    -19837.021473     9044.9146856    0.228D-05 0.511D-14
                            Exc = -361.754537758     Coul =  9406.66922334    
                              N = 404.00020122    
                            current damping = 0.150
 
          Norm of current diis error: 0.99316E-02
          max. resid. norm for Fia-block=  1.740D-04 for orbital    197a         
          max. resid. fock norm         =  3.272D-04 for orbital   5249a         

 ITERATION  ENERGY          1e-ENERGY        2e-ENERGY     RMS[dD(SAO)]   TOL
  13  -2639.5983262691    -19837.032371     9044.9255813    0.146D-05 0.511D-14
                            Exc = -361.755026205     Coul =  9406.68060755    
                              N = 404.00020115    
                            current damping = 0.050
 
          Norm of current diis error: 0.35954E-02
          max. resid. norm for Fia-block=  5.022D-05 for orbital    196a         
          max. resid. fock norm         =  9.791D-05 for orbital   5249a         
          irrep a   : virtual orbitals shifted by    0.00662

 ITERATION  ENERGY          1e-ENERGY        2e-ENERGY     RMS[dD(SAO)]   TOL
  14  -2639.5983264593    -19837.034505     9044.9277148    0.740D-06 0.511D-14
                            Exc = -361.755501196     Coul =  9406.68321604    
                              N = 404.00020116    
                            current damping = 0.050
 
          Norm of current diis error: 0.24043E-02
          max. resid. norm for Fia-block=  2.830D-05 for orbital    194a         
          max. resid. fock norm         =  5.860D-05 for orbital   5204a         
          irrep a   : virtual orbitals shifted by    0.00664

 ITERATION  ENERGY          1e-ENERGY        2e-ENERGY     RMS[dD(SAO)]   TOL
  15  -2639.5983265721    -19837.030658     9044.9238677    0.286D-06 0.511D-14
                            Exc = -361.755217414     Coul =  9406.67908512    
                              N = 404.00020117    
                            current damping = 0.100
 
          Norm of current diis error: 0.10321E-02
          max. resid. norm for Fia-block=  1.270D-05 for orbital    194a         
          max. resid. fock norm         =  2.622D-05 for orbital   4980a         
          irrep a   : virtual orbitals shifted by    0.00219
          mo-orthogonalization: Cholesky decomposition

 ITERATION  ENERGY          1e-ENERGY        2e-ENERGY     RMS[dD(SAO)]   TOL
  16  -2639.5983265895    -19837.030574     9044.9237838    0.266D-06 0.511D-14
                            Exc = -361.755135305     Coul =  9406.67891910    
                              N = 404.00020116    
                            current damping = 0.050
 
          Norm of current diis error: 0.58160E-03
          max. resid. norm for Fia-block=  6.719D-06 for orbital    194a         
          max. resid. fock norm         =  1.700D-05 for orbital   4826a         
          irrep a   : virtual orbitals shifted by    0.00663

 ITERATION  ENERGY          1e-ENERGY        2e-ENERGY     RMS[dD(SAO)]   TOL
  17  -2639.5983265954    -19837.031628     9044.9248375    0.190D-06 0.511D-14
                            Exc = -361.755210887     Coul =  9406.68004834    
                              N = 404.00020117    
                            current damping = 0.100
 
          Norm of current diis error: 0.32518E-03
          max. resid. norm for Fia-block=  3.795D-06 for orbital    194a         
          max. resid. fock norm         =  1.141D-05 for orbital   5129a         
          irrep a   : virtual orbitals shifted by    0.00219

 DENSITY CONVERGED !


 ITERATION  ENERGY          1e-ENERGY        2e-ENERGY     RMS[dD(SAO)]   TOL
  18  -2639.5983265973    -19837.031139     9044.9243489    0.397D-07 0.511D-14
                            Exc = -361.755230216     Coul =  9406.67957915    
                              N = 404.00020116    
                            current damping = 0.150
 
          Norm of current diis error: 0.17903E-03
          max. resid. norm for Fia-block=  1.994D-06 for orbital    195a         
          max. resid. fock norm         =  5.879D-06 for orbital   5255a         

 DENSITY CONVERGED !


 ITERATION  ENERGY          1e-ENERGY        2e-ENERGY     RMS[dD(SAO)]   TOL
  19  -2639.5983265975    -19837.031422     9044.9246323    0.368D-07 0.511D-14
                            Exc = -361.755201801     Coul =  9406.67983407    
                              N = 404.00020117    
                            current damping = 0.200
 
          Norm of current diis error: 0.96376E-04
          max. resid. norm for Fia-block=  1.420D-06 for orbital    197a         
          max. resid. fock norm         =  2.625D-06 for orbital   4869a         

 DENSITY CONVERGED !


 ITERATION  ENERGY          1e-ENERGY        2e-ENERGY     RMS[dD(SAO)]   TOL
  20  -2639.5983265981    -19837.031159     9044.9243689    0.141D-07 0.511D-14
                            Exc = -361.755203055     Coul =  9406.67957192    
                              N = 404.00020117    
                            current damping = 0.250
 
          Norm of current diis error: 0.45417E-04
          max. resid. norm for Fia-block=  6.628D-07 for orbital    196a         
          max. resid. fock norm         =  1.360D-06 for orbital   4961a         
          mo-orthogonalization: Cholesky decomposition

 DENSITY CONVERGED !


 ITERATION  ENERGY          1e-ENERGY        2e-ENERGY     RMS[dD(SAO)]   TOL
  21  -2639.5983265978    -19837.031253     9044.9244630    0.790D-08 0.511D-14
                            Exc = -361.755206920     Coul =  9406.67966991    
                              N = 404.00020117    
                            current damping = 0.300
 
          Norm of current diis error: 0.20194E-04
          max. resid. norm for Fia-block=  2.293D-07 for orbital    194a         
          max. resid. fock norm         =  6.135D-07 for orbital   5255a         

 ENERGY & DENSITY CONVERGED !


 ITERATION  ENERGY          1e-ENERGY        2e-ENERGY     RMS[dD(SAO)]   TOL
  22  -2639.5974167868    -19837.031268     9044.9253873    0.216D-08 0.511D-14
                            Exc = -361.754297970     Coul =  9406.67968530    
                              N = 404.00007570    
                            current damping = 0.150
 
          Norm of current diis error: 0.86437E-05
          max. resid. norm for Fia-block=  1.007D-07 for orbital    194a         
          max. resid. fock norm         =  2.305D-07 for orbital   4817a         

 End of SCF iterations

   convergence criteria satisfied after   22 iterations


                  ------------------------------------------ 
                 |  total energy      =  -2639.59741678682  |
                  ------------------------------------------ 
                 :  kinetic energy    =   2628.24525768572  :
                 :  potential energy  =  -5267.84267447254  :
                 :  virial theorem    =      1.99569928390  :
                 :  wavefunction norm =      1.00000000000  :
                  .......................................... 


 <geterg> : there is no data group $energy 


 <skperg> : $end is missing 


 orbitals $scfmo  will be written to file mos

    irrep                198a        199a        200a        201a        202a   
 eigenvalues H         -0.21991    -0.20363    -0.20331    -0.18955    -0.18926
            eV          -5.9841     -5.5411     -5.5325     -5.1581     -5.1502
 occupation              2.0000      2.0000      2.0000      2.0000      2.0000 

    irrep                203a        204a        205a        206a        207a   
 eigenvalues H         -0.10034    -0.10017    -0.09364    -0.09271    -0.07756
            eV          -2.7305     -2.7257     -2.5480     -2.5228     -2.1104
 
 
 ! grave: sending quit signal to master process
 
 
 
 
 ==============================================================================
                           electrostatic moments
 ==============================================================================

 reference point for electrostatic moments:    0.00000   0.00000   0.00000

 
              nuc           elec       ->  total
 ------------------------------------------------------------------------------
                          charge      
 ------------------------------------------------------------------------------
         404.000000    -404.000000      -0.000000
 
 ------------------------------------------------------------------------------
                       dipole moment  
 ------------------------------------------------------------------------------
   x     -26.524801      20.451006      -6.073794
   y     -10.414148      10.367258      -0.046891
   z      -1.774566       1.601100      -0.173466
 
   | dipole moment | =     6.0765 a.u. =    15.4448 debye 
 
 ------------------------------------------------------------------------------
                     quadrupole moment
 ------------------------------------------------------------------------------
  xx   20417.702364  -20662.603095    -244.900731
  yy   14953.328920  -15198.926567    -245.597647
  zz    3808.313545   -4054.316983    -246.003437
  xy     115.727915    -114.799486       0.928429
  xz     548.437547    -548.439717      -0.002170
  yz    -997.074772     993.191129      -3.883643
 
     1/3  trace=    -245.500605
     anisotropy=       6.983348
 
 ==============================================================================
 

    ridft profiling
  --------------------------------------------------------------------
             module   cpu total (s)       %  wall total (s)       %

               RIDFT         26980.8  100.00         26987.0  100.00
         Ridft_b_scf           456.3    1.69           455.9    1.69
        b_scf_prelim             0.0    0.00             0.0    0.00
        b_scf_molinp             0.0    0.00             0.0    0.00
         b_scf_init0             0.0    0.00             0.0    0.00
        b_scf_auxbas             0.0    0.00             0.0    0.00
      b_scf_symmetry             0.0    0.00             0.0    0.00
         b_scf_cosmo             0.0    0.00             0.0    0.00
        b_scf_params            36.9    0.14            36.9    0.14
          b_scf_ri-j            72.1    0.27            72.0    0.27
    b_scf_ri-j_auxpq            71.9    0.27            71.8    0.27
     ri-j_auxpq_chol             8.5    0.03             8.5    0.03
         b_scf_1elec            16.2    0.06            16.2    0.06
       b_scf_moinput           331.0    1.23           330.8    1.23
     moinput_orthmos           329.8    1.22           329.5    1.22
    b_scf_dft-dstmax             0.0    0.00             0.0    0.00
           Ridft_scf         26520.1   98.29         26526.6   98.29
          Scf_b_loop             0.0    0.00             0.0    0.00
                noga             0.0    0.00             0.0    0.00
            Scf_loop         26501.5   98.22         26506.9   98.22
     scf_loop_mkdmat            72.2    0.27            72.2    0.27
       scf_loop_ri-j          3261.5   12.09          3258.9   12.08
      parlp1.bc.dens             4.8    0.02             4.8    0.02
        parlp1.gs.gp             0.2    0.00             0.2    0.00
        parlp2.bc.gq             0.0    0.00             0.0    0.00
        scf_loop_dft         18695.7   69.29         18681.8   69.23
      pardft.bc.dens             0.0    0.00             0.0    0.00
        dft_grid_con            20.1    0.07            20.0    0.07
          dft_xcmrhf         18457.2   68.41         18443.4   68.34
          dft_getval           159.6    0.59           159.4    0.59
          funct2 dst             1.6    0.01             1.5    0.01
      funct2 f2loop1            26.6    0.10            26.8    0.10
      funct2 f2loop2            70.9    0.26            70.8    0.26
          funct2 s+c            59.1    0.22            59.1    0.22
        funct2 cmf_2            55.0    0.20            55.0    0.20
          dft_mkdens         10200.3   37.81         10192.7   37.77
        dft_mgga-fun             2.4    0.01             2.5    0.01
          dft_mkfock          8093.7   30.00          8087.6   29.97
     pardft.red.fock          1396.4    5.18          1395.3    5.17
     scf_loop_energy             0.6    0.00             0.6    0.00
     scf_loop_mkfock             1.0    0.00             1.0    0.00
       scf_loop_diis          2444.3    9.06          2442.3    9.05
       scf_loop_diag          1254.9    4.65          1254.0    4.65
         diag_tritrn           440.3    1.63           440.0    1.63
          diag_rdiag           811.9    3.01           811.3    3.01
     scf_loop_modump           354.5    1.31           379.7    1.41
      scf_loop_ortho           401.9    1.49           401.6    1.49
          Scf_a_loop            18.6    0.07            19.7    0.07
         Ridft_a_scf             4.4    0.02             4.5    0.02
         a_scf_fanal             4.4    0.02             4.4    0.02
 


    ------------------------------------------------------------------------
         total  cpu-time :  7 hours 30 minutes and  3 seconds
         total wall-time :  7 hours 30 minutes and  9 seconds
    ------------------------------------------------------------------------


   ****  ridft : all done  ****


    2016-06-10 19:17:43.449 

