Using Slurm to start processes with PMI2
Found environment variable SKIP_PARASTAT
   -> do NOT perform a parallel statistics run for the task
      distribution, use automatic task generation instead
STARTING dscf ON 32 PROCESSORS!
RUNNING PROGRAM /beegfs/modfac/apps/TURBOMOLE/7.0_intel_GA/bin/em64t-unknown-linux-gnu_mpi/dscf_mpi.
PLEASE WAIT UNTIL dscf HAS FINISHED.
Look for the output in slave1.output.
  this is node-proc. number 1 running on node c-5-27.local
  the total number of node-proc. spawned is           32
  parallel platform: MPP, or cluster with fast interconnect

 dscf (c-5-27.local) : TURBOMOLE V7.0.2( ) 15 Jan 2016 at 17:47:42
 Copyright (C) 2016 TURBOMOLE GmbH, Karlsruhe


    2018-02-19 17:21:00.270 


 SCF run will be profiled !



                             d s c f - program

                   idea & directorship : reinhart ahlrichs
                   program development : marco haeser
                                         michael baer
                           dft version : oliver treutler
           parallelized version : malte v. arnim, gina corongiu, GMD 


                          quantum chemistry group
                          universitaet  karlsruhe
                                  germany




                          References             
                                                 
          TURBOMOLE:                             
              R. Ahlrichs, M. Baer, M. Haeser, H. Horn, and
              C. Koelmel
              Electronic structure calculations on workstation
              computers: the program system TURBOMOLE
              Chem. Phys. Lett. 162: 165 (1989)
          Density Functional:                              
              O. Treutler and R. Ahlrichs                      
              Efficient Molecular Numerical Integration Schemes
              J. Chem. Phys. 102: 346 (1995)                   
          Parallel Version:                                
              Performance of parallel TURBOMOLE for Density    
              Functional Calculations                          
              M. v. Arnim and R. Ahlrichs                      
              J. Comp. Chem. 19: 1746 (1998)                   
                                         




              +--------------------------------------------------+
              | Atomic coordinate, charge and isotop information |
              +--------------------------------------------------+

                    atomic coordinates            atom    charge  isotop
          2.50026014   -2.09343112   -0.49925699    c      6.000     0
          2.51543935   -2.04222728   -3.11467228    c      6.000     0
         -1.63411973   -0.07480296   -3.10463965    c      6.000     0
         -1.65590346   -0.12369788   -0.48805049    c      6.000     0
          0.42200374   -1.11151505    0.82362389    c      6.000     0
          0.45369482   -1.02181368   -4.43277579    c      6.000     0
          0.41597010   -1.12569060    3.52245855    c      6.000     0
          0.47619216   -0.95132097   -7.12977096    c      6.000     0
          0.41439428   -1.12599670    5.71936426    n      7.000     0
          0.49190963   -0.88754228   -9.32700175    n      7.000     0
         -3.22972654    0.69606767   -4.12433975    h      1.000     0
         -3.26384675    0.61179568    0.54067607    h      1.000     0
          4.08183036   -2.88826768    0.52486335    h      1.000     0
          4.11901543   -2.78785125   -4.14283975    h      1.000     0
 
       center of nuclear mass  :    0.43997997   -1.05541750   -1.80301161
       center of nuclear charge:    0.43958519   -1.05651554   -1.80293341

              +--------------------------------------------------+
              |               basis set information              |
              +--------------------------------------------------+

              we will work with the 1s 3p 5d 7f 9g ... basis set
              ...i.e. with spherical basis functions...

   type   atoms  prim   cont   basis
   ---------------------------------------------------------------------------
    c        8     77     55   cc-pVQZ   [5s4p3d2f1g|21s6p3d2f1g]
    n        2     77     55   cc-pVQZ   [5s4p3d2f1g|21s6p3d2f1g]
    h        4     32     30   cc-pVQZ   [4s3p2d1f|6s3p2d1f]
   ---------------------------------------------------------------------------
   total:   14    898    670
   ---------------------------------------------------------------------------

   total number of primitive shells          :   78
   total number of contracted shells         :  190
   total number of cartesian basis functions :  840
   total number of SCF-basis functions       :  670


 integral neglect threshold       :  0.40E-11
 integral storage threshold THIZE :  0.10E-04
 integral storage threshold THIME :         5


 symmetry group of the molecule :   c1 

 the group has the following generators :
   c1(z)

    1 symmetry operations found

 there are 1 real representations :   a   

 maximum number of shells which are related by symmetry :  1


    mo occupation :
   irrep   mo's   occupied
    a      670       33
 
 number of basis functions   :          670
 number of occupied orbitals :           33
 
 No pre-computed optimal task distribution found
   ... using automatic task generation

          ------------------------
          nuclear repulsion energy  :   407.054994833    
          ------------------------

 
          -----------------
          -S integrals
          -----------------

 1e-integrals will be neglected if expon. factor < 0.397853E-12
 
          -----------------
          -T+V integrals
          -----------------

 1e-integrals will be neglected if expon. factor < 0.397853E-12
 
   Difference densities algorithm switched on.
   The maximal number of linear combinations of
   difference densities is          20 .

 automatic virtual orbital shift switched on 
      shift if e(lumo)-e(homo) < 0.10000000    


 DIIS switched on: error vector is FDS-SDF
 Max. Iterations for DIIS is     :   5
 DIIS matrix (see manual) 
    Scaling factor of diagonals  :  1.200
    threshold for scaling factor :  0.000

 scf convergence criterion : increment of total energy < .1000000D-06
                  and increment of one-electron energy < .1000000D-03


 <geterg> : there is no data group $energy 

  MOs are in ASCII format !


 reading orbital data $scfmo  from file mos . 

 orbital characterization : expanded
 
 mo provided and orthogonalized by Cholesky decomposition

 DSCF restart information will be dumped onto file mos


  STARTING INTEGRAL EVALUATION FOR 1st SCF ITERATION
  time elapsed for pre-SCF steps : cpu            1.281 sec
                                   wall           1.547 sec

 
                                              current damping :  0.300
 ITERATION  ENERGY          1e-ENERGY        2e-ENERGY     NORM[dD(SAO)]  TOL
   1  -412.06829090663    -1348.0843089     528.96102313    0.000D+00 0.397D-11
          max. resid. norm for Fia-block=  4.294D-01 for orbital     26a         
          max. resid. fock norm         =  9.106D+00 for orbital    600a         
          Delta Eig. =   654.8600086980 eV 
 
                                              current damping :  0.250
 ITERATION  ENERGY          1e-ENERGY        2e-ENERGY     NORM[dD(SAO)]  TOL
   2  -414.09195163099    -1363.4747325     542.32778608    0.349D+01 0.326D-11
          Norm of current diis error:  2.8880    
          max. resid. norm for Fia-block=  1.507D-01 for orbital     15a         
          max. resid. fock norm         =  4.684D-01 for orbital    613a         
          Delta Eig. =   144.7642684765 eV 
 
                                              current damping :  0.150
 ITERATION  ENERGY          1e-ENERGY        2e-ENERGY     NORM[dD(SAO)]  TOL
   3  -414.26818838697    -1364.5945665     543.27138326    0.891D+00 0.223D-11
          Norm of current diis error:  1.2241    
          max. resid. norm for Fia-block=  5.244D-02 for orbital     31a         
          max. resid. fock norm         =  5.685D-02 for orbital     40a         
          Delta Eig. =    37.2056367893 eV 
 
                                              current damping :  0.100
 ITERATION  ENERGY          1e-ENERGY        2e-ENERGY     NORM[dD(SAO)]  TOL
   4  -414.31413082658    -1365.4221998     544.05307412    0.338D+00 0.187D-11
          Norm of current diis error: 0.37154    
          max. resid. norm for Fia-block=  2.391D-02 for orbital     12a         
          max. resid. fock norm         =  3.068D-02 for orbital    557a         
          Delta Eig. =     3.8060715282 eV 
 
                                              current damping :  0.100
 ITERATION  ENERGY          1e-ENERGY        2e-ENERGY     NORM[dD(SAO)]  TOL
   5  -414.31918172350    -1365.5509146     544.17673808    0.876D-01 0.174D-11
          Norm of current diis error: 0.93420E-01
          max. resid. norm for Fia-block=  5.476D-03 for orbital     25a         
          max. resid. fock norm         =  5.911D-03 for orbital     27a         
 mo-orthogonalization: Cholesky decomposition
          Delta Eig. =     0.4761187370 eV 
 
                                              current damping :  0.150
 ITERATION  ENERGY          1e-ENERGY        2e-ENERGY     NORM[dD(SAO)]  TOL
   6  -414.31968588418    -1365.5392770     544.16459631    0.188D-01 0.164D-11
          Norm of current diis error: 0.36932E-01
          max. resid. norm for Fia-block=  3.182D-03 for orbital     25a         
          max. resid. fock norm         =  3.212D-03 for orbital     25a         
          Delta Eig. =     0.0989277570 eV 
 
                                              current damping :  0.200
 ITERATION  ENERGY          1e-ENERGY        2e-ENERGY     NORM[dD(SAO)]  TOL
   7  -414.31976315446    -1365.5542739     544.17951587    0.589D-02 0.156D-11
          Norm of current diis error: 0.13659E-01
          max. resid. norm for Fia-block=  1.490D-03 for orbital     25a         
          max. resid. fock norm         =  1.508D-03 for orbital     25a         
          Delta Eig. =     0.0288399304 eV 
 
                                              current damping :  0.250
 ITERATION  ENERGY          1e-ENERGY        2e-ENERGY     NORM[dD(SAO)]  TOL
   8  -414.31977676781    -1365.5499716     544.17519997    0.209D-02 0.148D-11
          Norm of current diis error: 0.53834E-02
          max. resid. norm for Fia-block=  5.658D-04 for orbital     30a         
          max. resid. fock norm         =  5.666D-04 for orbital     30a         
          Delta Eig. =     0.0062126361 eV 
 
                                              current damping :  0.300
 ITERATION  ENERGY          1e-ENERGY        2e-ENERGY     NORM[dD(SAO)]  TOL
   9  -414.31977936968    -1365.5513062     544.17653201    0.515D-03 0.142D-11
          Norm of current diis error: 0.28088E-02
          max. resid. norm for Fia-block=  3.276D-04 for orbital     30a         
          max. resid. fock norm         =  3.279D-04 for orbital     30a         
          Delta Eig. =     0.0032423138 eV 
 
                                              current damping :  0.350
 ITERATION  ENERGY          1e-ENERGY        2e-ENERGY     NORM[dD(SAO)]  TOL
  10  -414.31978017865    -1365.5512550     544.17648001    0.260D-03 0.136D-11
          Norm of current diis error: 0.17156E-02
          max. resid. norm for Fia-block=  2.184D-04 for orbital     30a         
          max. resid. fock norm         =  2.186D-04 for orbital     30a         
 mo-orthogonalization: Cholesky decomposition
          Delta Eig. =     0.0022525924 eV 
 
                                              current damping :  0.400
 ITERATION  ENERGY          1e-ENERGY        2e-ENERGY     NORM[dD(SAO)]  TOL
  11  -414.31978051275    -1365.5512985     544.17652315    0.149D-03 0.131D-11
          Norm of current diis error: 0.10677E-02
          max. resid. norm for Fia-block=  1.628D-04 for orbital     30a         
          max. resid. fock norm         =  1.629D-04 for orbital     30a         
          Delta Eig. =     0.0018931076 eV 
 
                                              current damping :  0.250
 ITERATION  ENERGY          1e-ENERGY        2e-ENERGY     NORM[dD(SAO)]  TOL
  12  -414.31978065160    -1365.5514098     544.17663435    0.423D-04 0.125D-11
          Norm of current diis error: 0.60856E-03
          max. resid. norm for Fia-block=  1.046D-04 for orbital     31a         
          max. resid. fock norm         =  1.046D-04 for orbital     31a         
          Delta Eig. =     0.0009944807 eV 

 ENERGY CONVERGED !

 
                                              current damping :  0.300
 ITERATION  ENERGY          1e-ENERGY        2e-ENERGY     NORM[dD(SAO)]  TOL
  13  -414.31978070676    -1365.5513877     544.17661221    0.138D-04 0.119D-11
          max. resid. norm for Fia-block=  1.832D-05 for orbital     30a         
          max. resid. fock norm         =  1.835D-05 for orbital     30a         

 convergence criteria satisfied after 13 iterations


                  ------------------------------------------ 
                 |  total energy      =   -414.31978070676  |
                  ------------------------------------------ 
                 :  kinetic energy    =    413.64884089496  :
                 :  potential energy  =   -827.96862160172  :
                 :  virial theorem    =      1.99838062327  :
                 :  wavefunction norm =      1.00000000000  :
                  .......................................... 


 <geterg> : there is no data group $energy 


 <skperg> : $end is missing 


 orbitals $scfmo  will be written to file mos

    irrep                 29a         30a         31a         32a         33a   
 eigenvalues H         -0.48622    -0.48540    -0.48094    -0.39488    -0.37679
            eV         -13.2307    -13.2085    -13.0871    -10.7453    -10.2530
 occupation              2.0000      2.0000      2.0000      2.0000      2.0000 

    irrep                 34a         35a         36a         37a         38a   
 eigenvalues H          0.02222     0.07198     0.09344     0.11533     0.12404
            eV           0.6046      1.9587      2.5427      3.1384      3.3755
 
 
 
 
 ==============================================================================
                           electrostatic moments
 ==============================================================================

 reference point for electrostatic moments:    0.00000   0.00000   0.00000

 
              nuc           elec       ->  total
 ------------------------------------------------------------------------------
                          charge      
 ------------------------------------------------------------------------------
          66.000000     -66.000000      -0.000000
 
 ------------------------------------------------------------------------------
                       dipole moment  
 ------------------------------------------------------------------------------
   x      29.012623     -29.024949      -0.012327
   y     -69.730026      69.689578      -0.040447
   z    -118.993605     118.994508       0.000903
 
   | dipole moment | =     0.0423 a.u. =     0.1075 debye 
 
 ------------------------------------------------------------------------------
                     quadrupole moment
 ------------------------------------------------------------------------------
  xx     170.256234    -207.186001     -36.929766
  yy     109.517023    -151.962330     -42.445307
  zz    1493.049500   -1564.710516     -71.661017
  xy    -105.228354     101.773642      -3.454712
  xz     -59.661900      59.793314       0.131414
  yz     105.141332    -104.647008       0.494323
 
     1/3  trace=     -50.345363
     anisotropy=      32.889349
 
 ==============================================================================
 
 
 ! grave: sending quit signal to master process
 

    dscf profiling
  --------------------------------------------------------------------
             module   cpu total (s)       %  wall total (s)       %

          dscf.total           232.2  100.00           233.0  100.00
        dscf.prepare             1.1    0.49             1.3    0.55
      prepare.oneint             0.2    0.08             0.2    0.08
     prepare.moinput             0.0    0.01             0.0    0.01
     prepare.orthmos             0.8    0.33             0.8    0.33
            dscf.scf           231.0   99.47           231.6   99.38
             scf.pre             0.0    0.00             0.0    0.01
        scf.makedmat             0.4    0.18             0.5    0.20
          scf.shlupf           214.4   92.34           214.3   91.97
      shlupf.bc.dens             0.6    0.26             0.6    0.26
         dscf.client             0.0    0.00             0.0    0.00
         dscf.shloop           212.4   91.47           212.3   91.10
           shlupf.gs             0.6    0.26             0.6    0.26
          scf.symcar             0.1    0.05             0.1    0.05
        scf.makefock             0.1    0.06             0.3    0.15
          scf.newerg             0.0    0.00             0.0    0.00
          scf.newcnv             2.9    1.23             2.9    1.25
           scf.fdiag             8.1    3.50             8.1    3.49
         diag_tritrn             2.6    1.13             2.6    1.13
          diag_rdiag             5.5    2.35             5.5    2.34
          scf.modump             3.8    1.62             4.1    1.75
           ortho_all             0.7    0.32             0.7    0.32
            scf.post             0.4    0.16             0.4    0.18
        dscf.postscf             0.1    0.04             0.2    0.07
 


    ------------------------------------------------------------------------
         total  cpu-time :  3 minutes and 53 seconds
         total wall-time :  3 minutes and 54 seconds
    ------------------------------------------------------------------------


   ****  dscf : all done  ****


    2018-02-19 17:24:53.805 

