
OPTIMIZATION CYCLE 11
Thu Feb 11 21:09:54 PST 2016
 operating system is UNIX !
 hostname is         c-5-37.local

 statpt (c-5-37.local) : TURBOMOLE V7.0.2( ) 8 Jan 2016 at 10:54:38
 Copyright (C) 2016 TURBOMOLE GmbH, Karlsruhe


    2016-02-11 21:09:55.010 



                           this is S T A T P T   


                     hessian and coordinate update for
                          stationary point search 

                     by barbara unterreiner, marek sierka,
                           and reinhart ahlrichs

                          quantum chemistry group
                          universitaet  karlsruhe
                                  germany


  Keyword $statpt not found - using default options
 
        ***************  Stationary point options ******************
        ************************************************************
           Maximum allowed trust radius:           3.000000E-01
           Minimum allowed trust radius:           1.000000E-03
           Initial trust radius:                   1.500000E-01
           GDIIS used if gradient norm <           1.000000E-02
           Number of previous steps for GDIIS:       5
           Hessian update method:                  BFGS
                        *** Convergence criteria ***                
           Threshold for energy change:            1.000000E-07
           Threshold for max displacement element: 1.000000E-03
           Threshold for max gradient element :    1.000000E-04
           Threshold for RMS of displacement:      5.000000E-04
           Threshold for RMS of gradient:          5.000000E-04
        ************************************************************
 
  actual coordinates :
        -1.270537802504        -3.215901436069        -1.815847457384
         1.608598889373        -3.035207479644        -2.110156187915
         2.093874736834        -0.182775662690        -2.031164627808
         0.085873953013         0.752938966005        -0.344282403100
        -1.854064227053        -1.189340619493         0.158694882283
        -1.901994775014        -5.085406705123        -1.207011342199
         2.524669516130        -3.963321343739        -0.501109411666
         1.896043437311         0.656422644120        -3.924181363298
        -2.210399733550        -2.723317347972        -3.601096130336
         2.309908054673        -3.887263720410        -3.861574602228
         3.968062799930         0.297650317510        -1.291350922737
        -3.731857431225        -0.337180300475        -0.065956829522
        -2.111936542675         3.896233915094         1.586455452094
        -0.274341910454         3.209675878626         0.315058354418
         1.727691343102         5.063992368801        -0.557942559835
         2.024198954335         4.956396977772        -2.606061436212
         1.112374461744         6.966666111631        -0.045903734345
         3.538966071561         4.661027543021         0.368811883087
        -0.751165817209        -4.322126968607         3.331431194430
        -1.590683973923        -2.210462131998         2.874991013351
        -2.397051212924        -0.562160297068         4.669478090707
        -2.747198046030         1.260120321419         4.161044877889
        -2.049030745443        -1.006661030709         6.497673260326
  actual gradients :
         0.000012483414         0.000000103454         0.000012628780
        -0.000009579276         0.000008118932        -0.000011962106
        -0.000023325392         0.000004378213         0.000023796728
         0.000003528508        -0.000017560341        -0.000007330481
         0.000007875535         0.000012738331        -0.000008040285
        -0.000005602978        -0.000000812009        -0.000004496165
         0.000002526655        -0.000004265626         0.000000006628
         0.000010629914         0.000001577714        -0.000004894378
        -0.000004355133        -0.000001897433        -0.000001211143
         0.000006219189        -0.000004960444         0.000004303915
         0.000006634380         0.000002170940        -0.000010204684
        -0.000003544291        -0.000006544236         0.000003158443
        -0.000000615846        -0.000001946287        -0.000002936993
         0.000004574542         0.000015650460         0.000000830083
        -0.000014970893        -0.000009841748         0.000008096469
         0.000004710604         0.000000511631        -0.000001649199
         0.000003068907         0.000002775950        -0.000001526590
         0.000004744923         0.000002579799        -0.000004837388
         0.000000431782         0.000001652165         0.000001900349
        -0.000000105071        -0.000003037749        -0.000002391639
        -0.000005110396        -0.000006616307        -0.000002543807
         0.000003062821         0.000002537277         0.000004617573
         0.000000270549         0.000005020852         0.000002629795
     Number of symmetry restricted degrees of freedom:    69
     Constituted by:     3 translational degrees of freedom
                         3 rotational degrees of freedom
                      63 internal degrees of freedom

  *************************************************************************
   ATOM                      CARTESIAN COORDINATES
    1 c      -1.27053780250430     -3.21590143606862     -1.81584745738434
    2 c       1.60859888937339     -3.03520747964399     -2.11015618791482
    3 c       2.09387473683367     -0.18277566269019     -2.03116462780754
    4 n       0.08587395301266      0.75293896600477     -0.34428240309959
    5 c      -1.85406422705307     -1.18934061949332      0.15869488228327
    6 h      -1.90199477501351     -5.08540670512285     -1.20701134219912
    7 h       2.52466951612973     -3.96332134373916     -0.50110941166625
    8 h       1.89604343731135      0.65642264411954     -3.92418136329846
    9 h      -2.21039973354982     -2.72331734797223     -3.60109613033599
   10 h       2.30990805467312     -3.88726372040956     -3.86157460222768
   11 h       3.96806279993017      0.29765031751038     -1.29135092273727
   12 h      -3.73185743122547     -0.33718030047549     -0.06595682952158
   13 o      -2.11193654267541      3.89623391509352      1.58645545209404
   14 c      -0.27434191045440      3.20967587862625      0.31505835441791
   15 c       1.72769134310177      5.06399236880075     -0.55794255983491
   16 h       2.02419895433489      4.95639697777184     -2.60606143621219
   17 h       1.11237446174384      6.96666611163120     -0.04590373434538
   18 h       3.53896607156095      4.66102754302087      0.36881188308707
   19 o      -0.75116581720912     -4.32212696860741      3.33143119442954
   20 c      -1.59068397392263     -2.21046213199842      2.87499101335150
   21 n      -2.39705121292433     -0.56216029706775      4.66947809070721
   22 h      -2.74719804603008      1.26012032141906      4.16104487788891
   23 h      -2.04903074544340     -1.00666103070934      6.49767326032554
  *************************************************************************
   ATOM                      CARTESIAN GRADIENTS  
    1 c       0.00001248341429      0.00000010345408      0.00001262877966
    2 c      -0.00000957927561      0.00000811893183     -0.00001196210552
    3 c      -0.00002332539235      0.00000437821322      0.00002379672759
    4 n       0.00000352850848     -0.00001756034107     -0.00000733048084
    5 c       0.00000787553540      0.00001273833052     -0.00000804028514
    6 h      -0.00000560297828     -0.00000081200879     -0.00000449616484
    7 h       0.00000252665498     -0.00000426562576      0.00000000662815
    8 h       0.00001062991426      0.00000157771355     -0.00000489437850
    9 h      -0.00000435513301     -0.00000189743258     -0.00000121114268
   10 h       0.00000621918903     -0.00000496044363      0.00000430391482
   11 h       0.00000663437956      0.00000217093965     -0.00001020468420
   12 h      -0.00000354429074     -0.00000654423631      0.00000315844314
   13 o      -0.00000061584635     -0.00000194628687     -0.00000293699291
   14 c       0.00000457454186      0.00001565046011      0.00000083008283
   15 c      -0.00001497089282     -0.00000984174835      0.00000809646916
   16 h       0.00000471060373      0.00000051163092     -0.00000164919929
   17 h       0.00000306890738      0.00000277595041     -0.00000152658980
   18 h       0.00000474492262      0.00000257979861     -0.00000483738791
   19 o       0.00000043178216      0.00000165216516      0.00000190034874
   20 c      -0.00000010507148     -0.00000303774889     -0.00000239163857
   21 n      -0.00000511039595     -0.00000661630697     -0.00000254380699
   22 h       0.00000306282064      0.00000253727704      0.00000461757307
   23 h       0.00000027054869      0.00000502085179      0.00000262979476
  *************************************************************************

  norm of actual CARTESIAN gradient:  6.22876E-05
  norm of actual INTERNAL  gradient:  4.30928E-05

  ENERGY =    -534.2991330770 a.u.; # of cycle =   11

  Approximate Hessian read from $hessapprox data section

  Hessian updated according to BFGS formula
  Number of zero Hessian eigenvalues:   0
  Number of structures for GDIIS interpolation:    5
  GDIIS step:     0.000784

  Transforming internal coordinate displacements to Cartesian space
      Iteration   1 residual norm     7.843608E-04
      Iteration   2 residual norm     1.503909E-07
      Iteration   3 residual norm     9.744044E-15
      Transformation converged
      Residual norm:    9.744044E-15 after    3 iterations

      ****************************************************************** 
                          CONVERGENCE INFORMATION

                               Converged?     Value      Criterion
             Energy change         yes      0.0000000   0.0000001
             RMS of displacement   yes      0.0000988   0.0005000
             RMS of gradient       yes      0.0000054   0.0005000
             MAX displacement      yes      0.0005712   0.0010000
             MAX gradient          yes      0.0000194   0.0001000
      ****************************************************************** 


    ------------------------------------------------------------------------
         total  cpu-time :   0.05 seconds
         total wall-time :   0.05 seconds
    ------------------------------------------------------------------------


   ****  statpt : all done  ****


    2016-02-11 21:09:55.050 

fine, there is no data group "$actual step"
next step = ridft
 operating system is UNIX !
 hostname is         c-5-37.local

 ridft (c-5-37.local) : TURBOMOLE V7.0.2( ) 8 Jan 2016 at 10:54:38
 Copyright (C) 2016 TURBOMOLE GmbH, Karlsruhe


    2016-02-11 21:09:55.087 



                                  r i d f t

                        DFT program with RI approximation 
                                for coulomb part 




                                                 
                                 References:     
                                                 
          TURBOMOLE:                             
              R. Ahlrichs, M. Baer, M. Haeser, H. Horn, and
              C. Koelmel
              Electronic structure calculations on workstation
              computers: the program system TURBOMOLE
              Chem. Phys. Lett. 162: 165 (1989)
          Density Functional:                              
              O. Treutler and R. Ahlrichs                      
              Efficient Molecular Numerical Integration Schemes
              J. Chem. Phys. 102: 346 (1995)                   
          Parallel Version:                                
              Performance of parallel TURBOMOLE for Density    
              Functional Calculations                          
              M. v. Arnim and R. Ahlrichs                      
              J. Comp. Chem. 19: 1746 (1998)                   
          RI-J Method:                                     
              Auxiliary Basis Sets to approximate Coulomb      
              Potentials                                       
              Chem. Phys. Lett. 240: 283 (1995)                
              K. Eichkorn, O. Treutler, H. Oehm, M. Haeser     
              and R. Ahlrichs                                  
              Chem. Phys. Lett. 242: 652 (1995)                
                                                           
              Auxiliary Basis Sets for Main Row Atoms and their
              Use to approximate Coulomb Potentials            
              K. Eichkorn, F. Weigend, O. Treutler and         
              R. Ahlrichs                                      
              Theo. Chem. Acc. 97: 119 (1997)                   
                                                           
              Accurate Coulomb-fitting basis sets for H to Rn 
              F. Weigend                                        
              Phys. Chem. Chem. Phys. 8: 1057 (2006)            
                                                           
          Multipole accelerated RI-J (MARI-J):             
              Fast evaluation of the Coulomb potential for     
              electron densities using multipole accelerated   
              resolution of identity approximation             
              M. Sierka, A. Hogekamp and R. Ahlrichs           
              J. Chem. Phys. 118: 9136 (2003)                  
          RI-JK Method:                                     
              A fully direct RI-HF algorithm: Implementation,
              optimised auxiliary basis sets, demonstration of
              accuracy and efficiency                         
              F. Weigend                                      
              Phys. Chem. Chem. Phys. 4: 4285 (2002)           
          Two-component HF and DFT with spin-orbit coupling:  
              Self-consistent treatment of spin-orbit         
              interactions with efficient Hartree-Fock and    
              density functional methods                      
              M. K. Armbruster, F. Weigend, C. van Wüllen and 
              W. Klopper                                      
              Phys. Chem. Chem. Phys. 10: 1748 (2008)         
          Relativistic all-electron 2c calculations           
              An efficient implementation of two-component    
              relativistic exact-decoupling methods for large 
              molecules                                       
              D. Peng, N. Middendorf, F. Weigend, M. Reiher   
              J. Chem. Phys. 138, 184105 (2013)               
                                         


 


              +--------------------------------------------------+
              |      general information about current run       |
              +--------------------------------------------------+

 

 DENSITY CONVERGENCE CHECK SWITCHED ON !
 SCF CONVERGENCE IF RMS(delta[D]) <     0.1000000000E-06

 TPSS meta-GGA functional
 exchange:    LDA + TPSS
 correlation: LDA (PW) + TPSS
 A DFT calculation using the RI-J approximation will be carried out.
 Allocatable memory for RI due to $ricore (MB):         500


              +--------------------------------------------------+
              | Atomic coordinate, charge and isotop information |
              +--------------------------------------------------+

                    atomic coordinates            atom    charge  isotop
         -1.27054904   -3.21586627   -1.81590913    c      6.000     0
          1.60862134   -3.03523590   -2.11006221    c      6.000     0
          2.09397212   -0.18281703   -2.03106367    c      6.000     0
          0.08588455    0.75294138   -0.34421753    n      7.000     0
         -1.85410464   -1.18934693    0.15867710    c      6.000     0
         -1.90198438   -5.08536936   -1.20705394    h      1.000     0
          2.52461932   -3.96336991   -0.50100057    h      1.000     0
          1.89611300    0.65642410   -3.92403561    h      1.000     0
         -2.21029319   -2.72323741   -3.60119573    h      1.000     0
          2.30989618   -3.88722020   -3.86153035    h      1.000     0
          3.96806961    0.29756669   -1.29102246    h      1.000     0
         -3.73181357   -0.33702289   -0.06603375    h      1.000     0
         -2.11199729    3.89625631    1.58640402    o      8.000     0
         -0.27439731    3.20967094    0.31502210    c      6.000     0
          1.72760553    5.06404787   -0.55802952    c      6.000     0
          2.02404792    4.95638530   -2.60615138    h      1.000     0
          1.11216150    6.96669218   -0.04604271    h      1.000     0
          3.53885977    4.66115672    0.36878115    h      1.000     0
         -0.75180814   -4.32246935    3.33128831    o      8.000     0
         -1.59078880   -2.21056586    2.87494309    c      6.000     0
         -2.39648171   -0.56204374    4.66948909    n      7.000     0
         -2.74681284    1.26019478    4.16105621    h      1.000     0
         -2.04881993   -1.00677142    6.49768748    h      1.000     0
 
       center of nuclear mass  :   -0.43615986   -0.13493103    0.60892545
       center of nuclear charge:   -0.37748125   -0.11474609    0.53027815

              +--------------------------------------------------+
              |               basis set information              |
              +--------------------------------------------------+

              we will work with the 1s 3p 5d 7f 9g ... basis set
              ...i.e. with spherical basis functions...

   type   atoms  prim   cont   basis
   ---------------------------------------------------------------------------
    c        7     46     31   def2-TZVP   [5s3p2d1f|11s6p2d1f]
    n        2     46     31   def2-TZVP   [5s3p2d1f|11s6p2d1f]
    h       12      8      6   def2-TZVP   [3s1p|5s1p]
    o        2     46     31   def2-TZVP   [5s3p2d1f|11s6p2d1f]
   ---------------------------------------------------------------------------
   total:   23    602    413
   ---------------------------------------------------------------------------

   total number of primitive shells          :   66
   total number of contracted shells         :  169
   total number of cartesian basis functions :  468
   total number of SCF-basis functions       :  413


 integral neglect threshold       :  0.71E-13
 integral storage threshold THIZE :  0.10E-04
 integral storage threshold THIME :         5

 RI-J AUXILIARY BASIS SET information:

              we will work with the 1s 3p 5d 7f 9g ... basis set
              ...i.e. with spherical basis functions...

   type   atoms  prim   cont   basis
   ---------------------------------------------------------------------------
    c        7     70     49   def2-TZVP   [6s4p3d1f1g|12s5p4d2f1g]
    n        2     70     49   def2-TZVP   [6s4p3d1f1g|12s5p4d2f1g]
    h       12     16     11   def2-TZVP   [3s1p1d|5s2p1d]
    o        2     70     49   def2-TZVP   [6s4p3d1f1g|12s5p4d2f1g]
   ---------------------------------------------------------------------------
   total:   23    962    671
   ---------------------------------------------------------------------------

   total number of primitive shells          :   80
   total number of contracted shells         :  225
   total number of cartesian basis functions :  815
   total number of SCF-basis functions       :  671


 symmetry group of the molecule :   c1 

 the group has the following generators :
   c1(z)

    1 symmetry operations found

 there are 1 real representations :   a   

 maximum number of shells which are related by symmetry :  1


    mo occupation :
   irrep   mo's   occupied
    a      413       42
 
 number of basis functions   :          413
 number of occupied orbitals :           42
 
  
           ------------------
           density functional
           ------------------
 TPSS meta-GGA functional
 exchange:    LDA + TPSS
 correlation: LDA (PW) + TPSS
 iterations will be done with small grid
  
 spherical integration : Lebedev's spherical grid
 spherical gridsize    :           5
    i.e. gridpoints    :         590
 value for diffuse not defined
 radial integration    : Chebyshev 2nd kind (scaling 3)
 radial gridsize       :           8
 integration cells     :          23
 partition function    : becke
 partition sharpness   :           3
  

 biggest AO integral is expected to be     7.998976882
  
           ------------------------
               RI-J - INFORMATION
           ------------------------
 Contributions to RI integral batches: 
  neglected integral batches:        2004
  direct contribution:               1422
  memory contribution:       10939
 Memory core needed for (P|Q) and Cholesky      4 MByte
 Memory core minimum needed except of (P|Q)     1 MByte
 Total minimum memory core needed (sum)         5 MByte
  
 ****************************************
 Memory allocated for RI-J   455 MByte
 ****************************************
                                            

          ------------------------
          nuclear repulsion energy  :   663.192772649    
          ------------------------

 
          -----------------
          -S,T+V- integrals
          -----------------

 1e-integrals will be neglected if expon. factor < 0.714094E-14
 
   Difference densities algorithm switched on.
   The maximal number of linear combinations of
   difference densities is          20 .

 automatic virtual orbital shift switched on 
      shift if e(lumo)-e(homo) < 0.10000000    


 DIIS switched on: error vector is FDS-SDF
 Max. Iterations for DIIS is     :   4
 DIIS matrix (see manual) 
    Scaling factor of diagonals  :  1.200
    threshold for scaling factor :  0.000

 scf convergence criterion : increment of total energy < .1000000D-08
                  and increment of one-electron energy < .1000000D-05

  MOs are in ASCII format !


 reading orbital data $scfmo  from file mos . 

 orbital characterization : scfconv=9
 

 DSCF restart information will be dumped onto file mos


 Starting SCF iterations

          Overall gridpoints after grid construction =        108373

 ITERATION  ENERGY          1e-ENERGY        2e-ENERGY     RMS[dD(SAO)]   TOL
   1  -534.25196630946    -2041.8724779     844.42773894    0.000D+00 0.712D-13
                            Exc = -73.7359523609     Coul =  918.163691300    
                              N = 84.000074389    
                            current damping = 0.700
 
          max. resid. norm for Fia-block=  1.140D-04 for orbital     40a         
          max. resid. fock norm         =  9.521D-04 for orbital    398a         

 ITERATION  ENERGY          1e-ENERGY        2e-ENERGY     RMS[dD(SAO)]   TOL
   2  -534.25196638636    -2041.8725547     844.42781564    0.117D-05 0.452D-13
                            Exc = -73.7359581843     Coul =  918.163773823    
                              N = 84.000074388    
                            current damping = 0.650
 
          Norm of current diis error: 0.37119E-03
          max. resid. norm for Fia-block=  4.658D-05 for orbital     40a         
          max. resid. fock norm         =  3.910D-04 for orbital    398a         

 ITERATION  ENERGY          1e-ENERGY        2e-ENERGY     RMS[dD(SAO)]   TOL
   3  -534.25196639920    -2041.8725718     844.42783271    0.480D-06 0.355D-13
                            Exc = -73.7359561529     Coul =  918.163788866    
                              N = 84.000074388    
                            current damping = 0.500
 
          Norm of current diis error: 0.15294E-03
          max. resid. norm for Fia-block=  1.906D-05 for orbital     40a         
          max. resid. fock norm         =  1.544D-04 for orbital    398a         

 ITERATION  ENERGY          1e-ENERGY        2e-ENERGY     RMS[dD(SAO)]   TOL
   4  -534.25196640103    -2041.8724666     844.42772759    0.295D-06 0.326D-13
                            Exc = -73.7359557336     Coul =  918.163683323    
                              N = 84.000074387    
                            current damping = 0.550
 
          Norm of current diis error: 0.10922E-03
          max. resid. norm for Fia-block=  7.381D-06 for orbital     40a         
          max. resid. fock norm         =  5.144D-05 for orbital    398a         

 ITERATION  ENERGY          1e-ENERGY        2e-ENERGY     RMS[dD(SAO)]   TOL
   5  -534.25196640172    -2041.8725860     844.42784694    0.153D-06 0.315D-13
                            Exc = -73.7359586938     Coul =  918.163805635    
                              N = 84.000074387    
                            current damping = 0.600
 
          Norm of current diis error: 0.31733E-04
          max. resid. norm for Fia-block=  2.393D-06 for orbital     40a         
          max. resid. fock norm         =  1.825D-05 for orbital    398a         
          mo-orthogonalization: Cholesky decomposition

 DENSITY CONVERGED !


 ITERATION  ENERGY          1e-ENERGY        2e-ENERGY     RMS[dD(SAO)]   TOL
   6  -534.25196640179    -2041.8725618     844.42782279    0.632D-07 0.313D-13
                            Exc = -73.7359577143     Coul =  918.163780509    
                              N = 84.000074387    
                            current damping = 0.650
 
          Norm of current diis error: 0.16309E-04
          max. resid. norm for Fia-block=  8.852D-07 for orbital     40a         
          max. resid. fock norm         =  6.837D-06 for orbital    398a         

 DENSITY CONVERGED !


 ITERATION  ENERGY          1e-ENERGY        2e-ENERGY     RMS[dD(SAO)]   TOL
   7  -534.25196640181    -2041.8725476     844.42780857    0.185D-07 0.307D-13
                            Exc = -73.7359567718     Coul =  918.163765346    
                              N = 84.000074387    
                            current damping = 0.500
 
          Norm of current diis error: 0.34103E-05
          max. resid. norm for Fia-block=  3.669D-07 for orbital     40a         
          max. resid. fock norm         =  2.702D-06 for orbital    398a         

 ENERGY & DENSITY CONVERGED !

          Overall gridpoints after grid construction =        350836

 ITERATION  ENERGY          1e-ENERGY        2e-ENERGY     RMS[dD(SAO)]   TOL
   8  -534.25182403526    -2041.8725623     844.42796565    0.878D-08 0.306D-13
                            Exc = -73.7358156332     Coul =  918.163781281    
                              N = 84.000016290    
                            current damping = 0.550
 
          Norm of current diis error: 0.22004E-05
          max. resid. norm for Fia-block=  1.256D-07 for orbital     40a         
          max. resid. fock norm         =  8.990D-07 for orbital    398a         

 End of SCF iterations

   convergence criteria satisfied after    8 iterations


                  ------------------------------------------ 
                 |  total energy      =   -534.25182403526  |
                  ------------------------------------------ 
                 :  kinetic energy    =    531.94829201900  :
                 :  potential energy  =  -1066.20011605426  :
                 :  virial theorem    =      1.99568830295  :
                 :  wavefunction norm =      1.00000000000  :
                  .......................................... 


 orbitals $scfmo  will be written to file mos

    irrep                 38a         39a         40a         41a         42a   
 eigenvalues H         -0.30997    -0.23613    -0.23413    -0.22296    -0.20324
            eV          -8.4348     -6.4255     -6.3711     -6.0672     -5.5306
 occupation              2.0000      2.0000      2.0000      2.0000      2.0000 

    irrep                 43a         44a         45a         46a         47a   
 eigenvalues H         -0.02559    -0.01173     0.00825     0.03775     0.04430
            eV          -0.6963     -0.3191      0.2245      1.0272      1.2055
 
 
 
 
 ==============================================================================
                           electrostatic moments
 ==============================================================================

 reference point for electrostatic moments:    0.00000   0.00000   0.00000

 
              nuc           elec       ->  total
 ------------------------------------------------------------------------------
                          charge      
 ------------------------------------------------------------------------------
          84.000000     -84.000000      -0.000000
 
 ------------------------------------------------------------------------------
                       dipole moment  
 ------------------------------------------------------------------------------
   x     -31.708425      32.418502       0.710077
   y      -9.638671      10.149943       0.511272
   z      44.543364     -45.460030      -0.916665
 
   | dipole moment | =     1.2672 a.u. =     3.2210 debye 
 
 ------------------------------------------------------------------------------
                     quadrupole moment
 ------------------------------------------------------------------------------
  xx     269.228279    -317.874360     -48.646081
  yy     810.267103    -866.486390     -56.219287
  zz     498.950535    -544.611832     -45.661298
  xy      77.774689     -74.499765       3.274924
  xz    -233.937649     233.699573      -0.238076
  yz     -43.204410      46.175515       2.971105
 
     1/3  trace=     -50.175555
     anisotropy=      12.152966
 
 ==============================================================================
 
 


    ------------------------------------------------------------------------
         total  cpu-time :  2 minutes and 13 seconds
         total wall-time :  2 minutes and 13 seconds
    ------------------------------------------------------------------------


   ****  ridft : all done  ****


    2016-02-11 21:12:08.113 

fine, there is no data group "$actual step"
next step = rirpa
 hostname is c-5-37.local

 rirpa (c-5-37.local) : TURBOMOLE rev. 20269 compiled 9 Feb 2016 at 17:19:13
 Copyright (C) 2016 TURBOMOLE GmbH, Karlsruhe


    2016-02-11 21:12:08.151 

 
 
    *************************************************************************
    *************************** PROGRAM RIRPA *******************************
    ******                                                             ******
    ******              H. Eshuis, J. E. Bates and F. Furche           ******
    ******                                                             ******
    ****** Nov 2011                                                    ******
    ****** Copyright TURBOMOLE GmbH                                    ******
    *************************************************************************
    
    
                                References:                                  
    
                   RIRPA:                                                    
                     H. Eshuis, J. Yarkony and F. Furche                     
                     Fast computation of molecular random phase              
                     approximation correlation energies using resolution     
                     of the identity imaginary frequency integration         
                     J. Chem. Phys. 132: 234114 (2010)                       
    
                     H. Eshuis, J. E. Bates and F. Furche                    
                     Electron correlation methods based on                   
                     the random phase approximation                          
                     Theor. Chem. Acc.  131: 1084 (2012)                     
    
                   TWO-COMPONENT RIRPA:                                      
                     M. Kuehn                                                
                     Correlation energies from the                           
                     two-component random-phase approximation                
                     J. Chem. Theory Comput. 10: 623 (2014)                  
    
                   RIRPA GRADIENTS:                                          
                     Asbjoern M. Burow, Jefferson E. Bates, Filipp Furche*,  
                     and Henk Eshuis                                         
                     Analytical First-Order Molecular Properties and Forces  
                     within the Adiabatic Connection Random Phase            
                     Approximation                                           
                     J. Chem. Theory Comput. 10: 180 (2014)                  
    
    
    
 
                FOUND RI-J FLAG
 
  HF exact exchange energy will be computed using RI-J.


              +--------------------------------------------------+
              | Atomic coordinate, charge and isotop information |
              +--------------------------------------------------+

                    atomic coordinates            atom    charge  isotop
         -1.27054904   -3.21586627   -1.81590913    c      6.000     0
          1.60862134   -3.03523590   -2.11006221    c      6.000     0
          2.09397212   -0.18281703   -2.03106367    c      6.000     0
          0.08588455    0.75294138   -0.34421753    n      7.000     0
         -1.85410464   -1.18934693    0.15867710    c      6.000     0
         -1.90198438   -5.08536936   -1.20705394    h      1.000     0
          2.52461932   -3.96336991   -0.50100057    h      1.000     0
          1.89611300    0.65642410   -3.92403561    h      1.000     0
         -2.21029319   -2.72323741   -3.60119573    h      1.000     0
          2.30989618   -3.88722020   -3.86153035    h      1.000     0
          3.96806961    0.29756669   -1.29102246    h      1.000     0
         -3.73181357   -0.33702289   -0.06603375    h      1.000     0
         -2.11199729    3.89625631    1.58640402    o      8.000     0
         -0.27439731    3.20967094    0.31502210    c      6.000     0
          1.72760553    5.06404787   -0.55802952    c      6.000     0
          2.02404792    4.95638530   -2.60615138    h      1.000     0
          1.11216150    6.96669218   -0.04604271    h      1.000     0
          3.53885977    4.66115672    0.36878115    h      1.000     0
         -0.75180814   -4.32246935    3.33128831    o      8.000     0
         -1.59078880   -2.21056586    2.87494309    c      6.000     0
         -2.39648171   -0.56204374    4.66948909    n      7.000     0
         -2.74681284    1.26019478    4.16105621    h      1.000     0
         -2.04881993   -1.00677142    6.49768748    h      1.000     0
 
       center of nuclear mass  :   -0.43615986   -0.13493103    0.60892545
       center of nuclear charge:   -0.37748125   -0.11474609    0.53027815
              +-------------------------------------------------+
              |        Rotational Constants Section             |
              +-------------------------------------------------+
                                   Center of Mass [a.u]:
              -0.43615985846799        -0.13493102552226         0.60892545095867
                     Principal Moments of Inertia [a.u.]
            1210.47634829324693      1692.04032820492057      2521.87687458238725
                       Rotational constants A,B,C [a.u.]
               0.00041306052837         0.00029550123107         0.00019826503230
                     Rotational constants A,B,C [cm**-1]
               0.04973222862333         0.03557816293913         0.02387098557554
                        Rotational constants A,B,C [MHz]
            1490.93470608055850      1066.60649186459000       715.63414405745630

   * BASIS SET information:

              +--------------------------------------------------+
              |               basis set information              |
              +--------------------------------------------------+

              we will work with the 1s 3p 5d 7f 9g ... basis set
              ...i.e. with spherical basis functions...

   type   atoms  prim   cont   basis
   ---------------------------------------------------------------------------
    c        7     46     31   def2-TZVP   [5s3p2d1f|11s6p2d1f]
    n        2     46     31   def2-TZVP   [5s3p2d1f|11s6p2d1f]
    h       12      8      6   def2-TZVP   [3s1p|5s1p]
    o        2     46     31   def2-TZVP   [5s3p2d1f|11s6p2d1f]
   ---------------------------------------------------------------------------
   total:   23    602    413
   ---------------------------------------------------------------------------

   total number of primitive shells          :   66
   total number of contracted shells         :  169
   total number of cartesian basis functions :  468
   total number of SCF-basis functions       :  413


   * AUXILIARY BASIS SET information:

              +--------------------------------------------------+
              |               basis set information              |
              +--------------------------------------------------+

              we will work with the 1s 3p 5d 7f 9g ... basis set
              ...i.e. with spherical basis functions...

   type   atoms  prim   cont   basis
   ---------------------------------------------------------------------------
    c        7     81     76   def2-TZVP   [8s6p4d3f1g|8s6p5d3f1g]
    n        2     81     76   def2-TZVP   [8s6p4d3f1g|8s6p5d3f1g]
    h       12     23     15   def2-TZVP   [4s2p1d|4s3p2d]
    o        2     81     76   def2-TZVP   [8s6p4d3f1g|8s6p5d3f1g]
   ---------------------------------------------------------------------------
   total:   23   1167   1016
   ---------------------------------------------------------------------------

   total number of primitive shells          :   78
   total number of contracted shells         :  326
   total number of cartesian basis functions : 1237
   total number of SCF-basis functions       : 1016


   * RIJ AUXILIARY BASIS SET information:

              +--------------------------------------------------+
              |               basis set information              |
              +--------------------------------------------------+

              we will work with the 1s 3p 5d 7f 9g ... basis set
              ...i.e. with spherical basis functions...

   type   atoms  prim   cont   basis
   ---------------------------------------------------------------------------
    c        7     70     49   def2-TZVP   [6s4p3d1f1g|12s5p4d2f1g]
    n        2     70     49   def2-TZVP   [6s4p3d1f1g|12s5p4d2f1g]
    h       12     16     11   def2-TZVP   [3s1p1d|5s2p1d]
    o        2     70     49   def2-TZVP   [6s4p3d1f1g|12s5p4d2f1g]
   ---------------------------------------------------------------------------
   total:   23    962    671
   ---------------------------------------------------------------------------

   total number of primitive shells          :   80
   total number of contracted shells         :  225
   total number of cartesian basis functions :  815
   total number of SCF-basis functions       :  671


 reading orbital data $scfmo  from file mos
 orbital characterization : scfconv=9

 integral neglect threshold       :  0.31E+02

 scfconv           9

 MAXIMUM CORE MEMORY WHICH CAN BE ALLOCATED DYNAMICALLY = 8000 MiB
              ( or 1048576000 double words )


 there are 1 real representations :   a   

 maximum number of shells which are related by symmetry :  1

 time elapsed for calculating density matrices :   0.010 sec
 all orbitals will be active in the correlation treatment

     total memory allocated for calculation of (Q|P)**(-1/2) : 12 MiB


     calculation of (P|Q) ...
     time in lp2sym        cpu:  0.03 sec    wall:  0.03 sec    ratio:  1.0


     calculation of the Cholesky decomposition of (P|Q)**(-1) ...
     time in invmetri      cpu:  0.17 sec    wall:  0.17 sec    ratio:  1.0

   threshold for RMS(d[D]) in SCF was     :  0.10E-06
   integral neglect threshold             :  0.27E-13
   derivative integral neglect threshold  :  0.10E-06


 setting up bound for integral derivative estimation

 increment for numerical differentiation : 0.00050000
 total memory allocated for calculation of (Q|P)**(-1/2) : 12 MiB
 Allocatable memory for RI due to $ricore (MB):         500

 there are 1 real representations :   a   

 maximum number of shells which are related by symmetry :  1

  
           ------------------------
               RI-J - INFORMATION
           ------------------------
 Contributions to RI integral batches: 
  neglected integral batches:        1168
  direct contribution:               1481
  memory contribution:       11716
 
          -----------------
          -S,T+V- integrals
          -----------------

 1e-integrals will be neglected if expon. factor < 0.269469E-13

          ------------------------
          nuclear repulsion energy  :   663.192772649    
          ------------------------


 residuum convergence criterium   :  0.10E-04


 integral neglect threshold       :  0.71E-11
 integral storage threshold THIZE :  0.10E-04
 integral storage threshold THIME :         5


 WARNING : cannot change filename for statistics 
  
           ------------------
           density functional
           ------------------
 TPSS meta-GGA functional
 exchange:    LDA + TPSS
 correlation: LDA (PW) + TPSS
 iterations will be done with small grid
  
 spherical integration : Lebedev's spherical grid
 spherical gridsize    :           5
    i.e. gridpoints    :         590
 value for diffuse not defined
 radial integration    : Chebyshev 2nd kind (scaling 3)
 radial gridsize       :           8
 integration cells     :          23
 partition function    : becke
 partition sharpness   :           3
  
 preparing numerical integration ....
          Overall gridpoints after grid construction =        108373

          IRREP   tensor space dimension   number of roots

           a             15582                   1

 Calculating ground state density on molecular grid

 Integral of ground state density: N =   84.00007438731565    


 number of passes for ispin    1
 =    1
 
 Number of eigenvalues < 6e-3:            0
 
 
            -----------------------------
            Complex frequency integration
            -----------------------------
 
 Number of Clenshaw-Curtis nodes:          200
 Optimized scaling parameter    :    2.09096280585297     
 Sensitivity measure            :  -6.232614424561689E-011
 
 nrbfx        1016        1016
 Contributions to RI integral batches: 
  neglected integral batches:        1297
  direct contribution:              13068
  memory contribution:           0

                  -------------------------------------------- 
                 |  HXX+RIRPA total energy     =   -534.29913306261  |
                  --------------------------------------------- 
                 :  RIRPA correlation energy   =     -3.46214762589  :
                 :  HXX total energy           =   -530.83698543672  :
                 :  Hartree energy             =    918.16378128065  :
                 :  Exact Exchange energy      =    -70.32097703471  :
                  ............................................. 


 maximum number of Davidson iterations set to   25


 logfile dipl_a    exists already

 found      1 converged vectors on dipl_a   
 read       1 vectors from logfile dipl_a   


                    ------------------

                     CPKS equations   

                    ------------------


                       Block Davidson iteration


 total number of roots to be determined:   1


 maximum core memory set to  8000 MB,
 corresponding to     4718 vectors in CAO basis


 maximum number of simultaneously treated vectors (including degeneracy):        1


 Iteration IRREP Converged      Max. Euclidean
                 roots          residual norm

    1       a        0        8.103291920287578D-04
 
    2       a        0        3.115111458751639D-05
 
    3       a        0        1.171851562615248D-05
 
    4       a        1        3.715270879146397D-06
 

 converged!


 Switching to fine grid

 preparing numerical integration ....
          Overall gridpoints after grid construction =        350836

 Calculating ground state density on molecular grid

 Integral of ground state density: N =   84.00001629036916    



 Iteration IRREP Converged      Max. Euclidean
                 roots          residual norm

    5       a        0        1.837682712641293D-04
 

 NOTE: Residual norms are larger than 1.00D-05 due to mgrid option!

 Eigenpairs written on logfile dipl_a   



 IRREP   Vector     Frequency            Euclidean residual norm

  a         1    0.000000000000000D+00    1.837682712641293D-04
 

                    -------------------

                     relaxed densities 

                    -------------------

    ----------------------------------------
     S+T+V CONTRIBUTIONS TO ENERGY GRADIENT 
    ----------------------------------------

 1e-integral 1st. derivatives will be neglected if expon. factor < 0.100000E-10


    -----------------------------------------------
     TWO ELECTRON CONTRIBUTIONS TO ENERGY GRADIENT 
    -----------------------------------------------

 setting up bound for integral derivative estimation

 increment for numerical differentiation : 0.00050000

 biggest AO integral is expected to be     7.998976882
 biggest cartesian 1st derivative AO integral is expected to be    17.678530758

 biggest 1-particle AO density matrix element is expected to be    0.9430764361

 core memory to be involved in 2e-gradient :
   symmetry shell pair data              :         0
   two particle density+dens. estimates  :     64990
   derivative integrals                  :    313877
   ij-primitive data                     :       324
   derivative integral bound             :     43095
   totally                               :    357294


 setting up bound for integral derivative estimation

 increment for numerical differentiation : 0.00050000

 biggest AO integral is expected to be     7.998976882
 biggest cartesian 1st derivative AO integral is expected to be    17.678530758

 2e-integral 1st. derivatives will be neglected if expon. factor < 0.935762E-20
 outer boundary for 2e-integral derivative neglection is 0.175356E-20

 Integrated ground state density     :   168.0000325807191    


          ------------------------------------------------
           cartesian gradient of the energy (hartree/bohr)
          ------------------------------------------------

  ATOM      1 c           2 c           3 c           4 n           5 c 
dE/dx  0.5401222D-05 -0.2640775D-05 -0.3143425D-05  0.3817388D-06 -0.1617726D-05
dE/dy -0.1373082D-05 -0.4941234D-06  0.3390556D-06 -0.1591186D-05  0.3785312D-05
dE/dz  0.1212958D-05 -0.1978216D-06  0.8517474D-06 -0.9376511D-06 -0.6120347D-06

  ATOM      6 h           7 h           8 h           9 h          10 h 
dE/dx -0.1209600D-05  0.9768507D-06  0.1654432D-05 -0.1729970D-05  0.1916776D-05
dE/dy -0.3310383D-06 -0.4457255D-06  0.8885794D-06 -0.5653360D-06 -0.5383451D-06
dE/dz -0.5068286D-06 -0.2533511D-06 -0.1255283D-06 -0.2941796D-06  0.3501920D-06

  ATOM     11 h          12 h          13 o          14 c          15 c 
dE/dx  0.1348741D-05  0.7959178D-06  0.2009580D-05 -0.2779891D-05 -0.1844496D-05
dE/dy  0.9522656D-07 -0.2539119D-09  0.4133102D-06  0.2562457D-05 -0.1053595D-05
dE/dz -0.9971339D-06 -0.2311572D-06 -0.2538300D-05 -0.8886809D-06  0.5651686D-05

  ATOM     16 h          17 h          18 h          19 o          20 c 
dE/dx -0.1016357D-07  0.8911162D-06  0.1847053D-05 -0.4185712D-06  0.1997873D-05
dE/dy -0.5767340D-06  0.1434685D-05  0.1294018D-05  0.1078684D-05 -0.2300439D-05
dE/dz -0.1723486D-05 -0.1637523D-05 -0.2439158D-05  0.1138772D-05  0.2969416D-06

  ATOM     21 n          22 h          23 h 
dE/dx -0.1628190D-05  0.1142078D-05  0.2058094D-06
dE/dy -0.3182477D-05  0.6130062D-06  0.2279616D-05
dE/dz -0.1176477D-05  0.1907197D-05  0.1103526D-05
 
 resulting FORCE  (fx,fy,fz) = (0.355D-05,0.233D-05,-.205D-05)
 resulting MOMENT (mx,my,mz) = (-.284D-04,0.527D-05,0.375D-05)


 **********************************************************************
  |maximum component of gradient| : 0.56516857E-05  (atom 15 c )       
   gradient norm                  : 0.14456017E-04
 **********************************************************************

 exx =       0.000002 eyy =       0.000026 ezz =       0.000009
 eyz =      -0.000006 exz =      -0.000003 exy =      -0.000000

   ***  cartesian gradients written onto <gradient>  ***
 
 
 
 ==============================================================================
                           electrostatic moments
 ==============================================================================

 reference point for electrostatic moments:    0.00000   0.00000   0.00000

 
              nuc           gs,e       ->  gs,tot          rpa       ->  total
 ------------------------------------------------------------------------------
                          charge      
 ------------------------------------------------------------------------------
          84.000000     -84.000000      -0.000000      -0.000000      -0.000000
 
 ------------------------------------------------------------------------------
                       dipole moment  
 ------------------------------------------------------------------------------
   x     -31.708425      32.418502       0.710077       0.002600       0.712678
   y      -9.638671      10.149943       0.511272       0.009870       0.521142
   z      44.543364     -45.460030      -0.916665       0.001619      -0.915047
 
   | dipole moment | =     1.2715 a.u. =     3.2319 debye 
 
 ------------------------------------------------------------------------------
                     quadrupole moment
 ------------------------------------------------------------------------------
  xx     269.228279    -317.874360     -48.646081      -0.483051     -49.129131
  yy     810.267103    -866.486390     -56.219287      -0.399474     -56.618761
  zz     498.950535    -544.611832     -45.661298      -0.478264     -46.139561
  xy      77.774689     -74.499765       3.274924      -0.015266       3.259658
  xz    -233.937649     233.699573      -0.238076      -0.066315      -0.304391
  yz     -43.204410      46.175515       2.971105       0.010706       2.981811
 
     1/3  trace=     -50.629151
     anisotropy=      12.093408
 
 ==============================================================================
 

    ------------------------------------------------------------------------
    Rirpa profiling                cpu                    wall         ratio
    ------------------------------------------------------------------------
    module                         sec     %               sec     %
    ------------------------------------------------------------------------
    RIRPA                      2676.2  100.00         2674.1  100.00   1.0
    ccmkbaoi                      8.9    0.33            8.9    0.33   1.0
    ehxx                         99.0    3.70           98.9    3.70   1.0
    RIRPA_grad                 2567.1   95.92         2565.1   95.92   1.0
    rirhs                      1564.4   58.46         1563.2   58.46   1.0
    tqbuild                     324.6   12.13          324.4   12.13   1.0
    trpaln                       10.6    0.39           10.5    0.39   1.0
    respon                      132.4    4.95          132.3    4.95   1.0
    rparelax                     63.0    2.35           62.9    2.35   1.0
    egdfin                      755.7   28.24          755.1   28.24   1.0
    ------------------------------------------------------------------------
    sum                        8203.5  306.53         8197.0  306.53   1.0
    ------------------------------------------------------------------------


    ------------------------------------------------------------------------
         total  cpu-time : 44 minutes and 36 seconds
         total wall-time : 44 minutes and 34 seconds
    ------------------------------------------------------------------------

   ****  rirpa : all done  ****


    2016-02-11 21:56:42.283 

fine, there is no data group "$actual step"
script actual: unknown actual step rirpa
next step = unknown
 energy change  : actual value =  -0.2100E-07 threshold =   0.1000E-06
 geom. gradient : actual value =   0.1936E-04 threshold =   0.1000E-03

CONVERGENCY CRITERIA FULFILLED IN CYCLE 11

