
   OpenMP run-time library returned nthreads = 28
 operating system is UNIX !

 dscf (c-13-32) : TURBOMOLE V7.3 ( 22142 ) 4 Jul 2018 at 18:12:42
 Copyright (C) 2018 TURBOMOLE GmbH, Karlsruhe


    2019-04-01 23:47:27.578 



                             d s c f - program

                   idea & directorship : reinhart ahlrichs
                   program development : marco haeser
                                         michael baer
                           dft version : oliver treutler


                          quantum chemistry group
                          universitaet  karlsruhe
                                  germany




                          References             
                                                 
          TURBOMOLE:                             
              R. Ahlrichs, M. Baer, M. Haeser, H. Horn, and
              C. Koelmel
              Electronic structure calculations on workstation
              computers: the program system TURBOMOLE
              Chem. Phys. Lett. 162: 165 (1989)
          Density Functional:                              
              O. Treutler and R. Ahlrichs                      
              Efficient Molecular Numerical Integration Schemes
              J. Chem. Phys. 102: 346 (1995)                   
          Parallel Version:                                
              Performance of parallel TURBOMOLE for Density    
              Functional Calculations                          
              M. v. Arnim and R. Ahlrichs                      
              J. Comp. Chem. 19: 1746 (1998)                   
                                         




              +--------------------------------------------------+
              | Atomic coordinate, charge and isotop information |
              +--------------------------------------------------+

                    atomic coordinates            atom    charge  isotop
          4.78707557   -1.79529520    0.08034717    n      7.000     0
          7.05810840   -2.91623583    0.08427750    c      6.000     0
          7.04823675   -4.96273828    0.12564203    h      1.000     0
          9.33699762   -1.60295448    0.03892146    c      6.000     0
         11.10660960   -2.62252821    0.04476829    h      1.000     0
          9.27592619    1.02434018   -0.01351222    c      6.000     0
         11.00573413    2.11140713   -0.04976002    h      1.000     0
          6.93326988    2.21540835   -0.01819327    c      6.000     0
          6.78252126    4.25169896   -0.05804488    h      1.000     0
          4.75268925    0.74140379    0.02941586    c      6.000     0
          2.90092695    1.61759909    0.02627354    h      1.000     0
 
       center of nuclear mass  :    7.01503210   -0.39455270    0.03371894
       center of nuclear charge:    7.05941680   -0.36666323    0.03278012

              +--------------------------------------------------+
              |               basis set information              |
              +--------------------------------------------------+

              we will work with the 1s 3p 5d 7f 9g ... basis set
              ...i.e. with spherical basis functions...

   type   atoms  prim   cont   basis
   ---------------------------------------------------------------------------
    n        1     77     55   cc-pVQZ   [5s4p3d2f1g|21s6p3d2f1g]
    c        5     77     55   cc-pVQZ   [5s4p3d2f1g|21s6p3d2f1g]
    h        5     32     30   cc-pVQZ   [4s3p2d1f|6s3p2d1f]
   ---------------------------------------------------------------------------
   total:   11    622    480
   ---------------------------------------------------------------------------

   total number of primitive shells          :   78
   total number of contracted shells         :  140
   total number of cartesian basis functions :  595
   total number of SCF-basis functions       :  480


 integral neglect threshold       :  0.56E-13
 integral storage threshold THIZE :  0.10E-04
 integral storage threshold THIME :         5


 DENSITY CONVERGENCE CHECK SWITCHED ON !
 SCF CONVERGENCE IF RMS(delta[D]) <     0.1000000000E-06


 symmetry group of the molecule :   c1 

 the group has the following generators :
   c1(z)

    1 symmetry operations found

 there are 1 real representations :   a   

 maximum number of shells which are related by symmetry :  1


    mo occupation :
   irrep   mo's   occupied
    a      480       21
 
 number of basis functions   :                    480
 number of occupied orbitals :                     21
 

 automatic virtual orbital shift switched on 
      shift if e(lumo)-e(homo) < 0.10000000    


          ------------------------
          nuclear repulsion energy  :   206.168600036    
          ------------------------


         -----------------
         -S,T+V- integrals
         -----------------

 1e-integrals will be neglected if expon. factor < 0.561674E-14
 
   Difference densities algorithm switched on.
   The maximal number of linear combinations of
   difference densities is                    20 .

 DIIS switched on: error vector is FDS-SDF
 Max. Iterations for DIIS is     :   5
 DIIS matrix (see manual) 
    Scaling factor of diagonals  :  1.200
    threshold for scaling factor :  0.000

 scf convergence criterion : increment of total energy < .1000000D-08
                  and increment of one-electron energy < .1000000D-05

  MOs are in ASCII format !


 reading orbital data $scfmo  from file mos
 orbital characterization : scfconv=9

 DSCF restart information will be dumped onto file mos

 
                                              current damping :  0.700
 ITERATION  ENERGY          1e-ENERGY        2e-ENERGY     RMS[dD(SAO)]   TOL
   1  -246.73728460606    -742.08617571     289.18029107    0.000D+00 0.560D-13
          max. resid. norm for Fia-block=  1.077D-01 for orbital      1a         
          max. resid. fock norm         =  2.299D-01 for orbital    479a         
          Delta Eig. =    25.7794541327 eV 
 
                                              current damping :  0.650
 ITERATION  ENERGY          1e-ENERGY        2e-ENERGY     RMS[dD(SAO)]   TOL
   2  -246.78093253433    -741.21264837     288.26311580    0.117D-02 0.364D-13
          Norm of current diis error: 0.59388    
          max. resid. norm for Fia-block=  5.024D-02 for orbital      1a         
          max. resid. fock norm         =  8.438D-02 for orbital    480a         
          Delta Eig. =    11.1504923313 eV 
 
                                              current damping :  0.600
 ITERATION  ENERGY          1e-ENERGY        2e-ENERGY     RMS[dD(SAO)]   TOL
   3  -246.78965411795    -741.29168265     288.33342850    0.568D-03 0.272D-13
          Norm of current diis error: 0.26182    
          max. resid. norm for Fia-block=  2.115D-02 for orbital      1a         
          max. resid. fock norm         =  3.418D-02 for orbital    478a         
          Delta Eig. =     4.5362222326 eV 
 
                                              current damping :  0.650
 ITERATION  ENERGY          1e-ENERGY        2e-ENERGY     RMS[dD(SAO)]   TOL
   4  -246.79148983714    -741.22127755     288.26118768    0.247D-03 0.235D-13
          Norm of current diis error: 0.10667    
          max. resid. norm for Fia-block=  7.791D-03 for orbital      1a         
          max. resid. fock norm         =  1.283D-02 for orbital    480a         
          Delta Eig. =     1.6230678767 eV 
 
                                              current damping :  0.500
 ITERATION  ENERGY          1e-ENERGY        2e-ENERGY     RMS[dD(SAO)]   TOL
   5  -246.79180824199    -741.20470068     288.24429240    0.955D-04 0.216D-13
          Norm of current diis error: 0.45904E-01
          max. resid. norm for Fia-block=  3.098D-03 for orbital      1a         
          max. resid. fock norm         =  5.026D-03 for orbital    479a         
 mo-orthogonalization: Cholesky decomposition
          Delta Eig. =     0.7037610400 eV 
 
                                              current damping :  0.350
 ITERATION  ENERGY          1e-ENERGY        2e-ENERGY     RMS[dD(SAO)]   TOL
   6  -246.79187742678    -741.19805997     288.23758251    0.461D-04 0.201D-13
          Norm of current diis error: 0.18178E-01
          max. resid. norm for Fia-block=  1.244D-03 for orbital     21a         
          max. resid. fock norm         =  1.748D-03 for orbital    480a         
          Delta Eig. =     0.2659529546 eV 
 
                                              current damping :  0.200
 ITERATION  ENERGY          1e-ENERGY        2e-ENERGY     RMS[dD(SAO)]   TOL
   7  -246.79189177080    -741.19481158     288.23431977    0.195D-04 0.189D-13
          Norm of current diis error: 0.73134E-02
          max. resid. norm for Fia-block=  5.904D-04 for orbital     21a         
          max. resid. fock norm         =  5.904D-04 for orbital     21a         
          Delta Eig. =     0.0748194264 eV 
 
                                              current damping :  0.050
 ITERATION  ENERGY          1e-ENERGY        2e-ENERGY     RMS[dD(SAO)]   TOL
   8  -246.79189542322    -741.19436740     288.23387194    0.802D-05 0.176D-13
          Norm of current diis error: 0.36389E-02
          max. resid. norm for Fia-block=  3.868D-04 for orbital     21a         
          max. resid. fock norm         =  3.868D-04 for orbital     21a         
          Delta Eig. =     0.0204829252 eV 
 
                                              current damping :  0.050
 ITERATION  ENERGY          1e-ENERGY        2e-ENERGY     RMS[dD(SAO)]   TOL
   9  -246.79189679328    -741.19409443     288.23359760    0.378D-05 0.160D-13
          Norm of current diis error: 0.18653E-02
          max. resid. norm for Fia-block=  2.563D-04 for orbital     20a         
          max. resid. fock norm         =  2.601D-04 for orbital     20a         
          Delta Eig. =     0.0032920015 eV 
 
                                              current damping :  0.100
 ITERATION  ENERGY          1e-ENERGY        2e-ENERGY     RMS[dD(SAO)]   TOL
  10  -246.79189723384    -741.19440163     288.23390436    0.237D-05 0.147D-13
          Norm of current diis error: 0.82000E-03
          max. resid. norm for Fia-block=  1.191D-04 for orbital     21a         
          max. resid. fock norm         =  1.191D-04 for orbital     21a         
 mo-orthogonalization: Cholesky decomposition
          Delta Eig. =     0.0051916156 eV 
 
                                              current damping :  0.150
 ITERATION  ENERGY          1e-ENERGY        2e-ENERGY     RMS[dD(SAO)]   TOL
  11  -246.79189730519    -741.19424685     288.23374951    0.119D-05 0.140D-13
          Norm of current diis error: 0.36024E-03
          max. resid. norm for Fia-block=  5.057D-05 for orbital     20a         
          max. resid. fock norm         =  5.470D-05 for orbital     20a         
          Delta Eig. =     0.0017595188 eV 
 
                                              current damping :  0.200
 ITERATION  ENERGY          1e-ENERGY        2e-ENERGY     RMS[dD(SAO)]   TOL
  12  -246.79189731544    -741.19436254     288.23386519    0.391D-06 0.136D-13
          Norm of current diis error: 0.12436E-03
          max. resid. norm for Fia-block=  1.533D-05 for orbital     20a         
          max. resid. fock norm         =  1.542D-05 for orbital     20a         
          Delta Eig. =     0.0004982092 eV 
 
                                              current damping :  0.250
 ITERATION  ENERGY          1e-ENERGY        2e-ENERGY     RMS[dD(SAO)]   TOL
  13  -246.79189731684    -741.19435546     288.23385811    0.215D-06 0.134D-13
          Norm of current diis error: 0.44536E-04
          max. resid. norm for Fia-block=  6.541D-06 for orbital     20a         
          max. resid. fock norm         =  6.583D-06 for orbital     20a         
          Delta Eig. =     0.0000704494 eV 

 DENSITY CONVERGED !

 
                                              current damping :  0.300
 ITERATION  ENERGY          1e-ENERGY        2e-ENERGY     RMS[dD(SAO)]   TOL
  14  -246.79189731704    -741.19435737     288.23386002    0.848D-07 0.160D-13
          Norm of current diis error: 0.19253E-04
          max. resid. norm for Fia-block=  2.658D-06 for orbital     19a         
          max. resid. fock norm         =  2.812D-06 for orbital     19a         
          Delta Eig. =     0.0000308805 eV 

 ENERGY & DENSITY CONVERGED !

 
                                              current damping :  0.150
 ITERATION  ENERGY          1e-ENERGY        2e-ENERGY     RMS[dD(SAO)]   TOL
  15  -246.79189731707    -741.19435821     288.23386086    0.354D-07 0.160D-13
          max. resid. norm for Fia-block=  6.236D-07 for orbital     19a         
          max. resid. fock norm         =  6.775D-07 for orbital     19a         

 convergence criteria satisfied after    15 iterations


                  ------------------------------------------ 
                 |  total energy      =   -246.79189731707  |
                  ------------------------------------------ 
                 :  kinetic energy    =    246.43758840084  :
                 :  potential energy  =   -493.22948571791  :
                 :  virial theorem    =      1.99856434137  :
                 :  wavefunction norm =      1.00000000000  :
                  .......................................... 


 orbitals $scfmo  will be written to file mos

    irrep                 17a         18a         19a         20a         21a   
 eigenvalues H         -0.54054    -0.52002    -0.41884    -0.38343    -0.34774
            eV         -14.7088    -14.1505    -11.3973    -10.4337     -9.4627
 occupation              2.0000      2.0000      2.0000      2.0000      2.0000 

    irrep                 22a         23a         24a         25a         26a   
 eigenvalues H          0.10181     0.11746     0.11836     0.13428     0.14498
            eV           2.7703      3.1963      3.2208      3.6540      3.9451
 
 
 
 
 ==============================================================================
                           electrostatic moments
 ==============================================================================

 reference point for electrostatic moments:    0.00000   0.00000   0.00000

 
              nuc           elec       ->  total
 ------------------------------------------------------------------------------
                          charge      
 ------------------------------------------------------------------------------
          42.000000     -42.000000       0.000000
 
 ------------------------------------------------------------------------------
                       dipole moment  
 ------------------------------------------------------------------------------
   x     296.495506    -295.727117       0.768389
   y     -15.399856      15.885235       0.485379
   z       1.376765      -1.393005      -0.016240
 
   | dipole moment | =     0.9090 a.u. =     2.3104 debye 
 
 ------------------------------------------------------------------------------
                     quadrupole moment
 ------------------------------------------------------------------------------
  xx    2271.176291   -2285.868606     -14.692314
  yy     184.704917    -208.341164     -23.636248
  zz       0.129494     -28.920124     -28.790630
  xy    -110.485093     111.198688       0.713595
  xz       8.289515      -8.356349      -0.066834
  yz      -4.103016       4.033497      -0.069519
 
     1/3  trace=     -22.373064
     anisotropy=      12.418438
 
 ==============================================================================
 


    ------------------------------------------------------------------------
         total  cpu-time :  1 hours 23 minutes and  0 seconds
         total wall-time :  7 minutes and 33 seconds
    ------------------------------------------------------------------------

   ****  dscf : all done  ****


    2019-04-01 23:55:01.038 

