           Doing BLAS/Lapack in the master proc. with  8 CPUs.
           SMPCPUS    set: Shared-memory Parallelization with   8 CPUs.

           SMP Parallelization Reference:
           C. van Wullen, J. Comput. Chem. 32 (2011) 1195--1201
 operating system is UNIX !

 ridft (c-13-10.gp.local) : TURBOMOLE V7.2 ( 21454 ) 4 Oct 2017 at 12:48:15
 Copyright (C) 2017 TURBOMOLE GmbH, Karlsruhe


    2018-04-28 20:59:54.237 



                                  r i d f t

                        DFT program with RI approximation 
                                for coulomb part 




                                                 
                                 References:     
                                                 
          TURBOMOLE:                             
              R. Ahlrichs, M. Baer, M. Haeser, H. Horn, and
              C. Koelmel
              Electronic structure calculations on workstation
              computers: the program system TURBOMOLE
              Chem. Phys. Lett. 162: 165 (1989)
          Density Functional:                              
              O. Treutler and R. Ahlrichs                      
              Efficient Molecular Numerical Integration Schemes
              J. Chem. Phys. 102: 346 (1995)                   
          Parallel Version:                                
              Performance of parallel TURBOMOLE for Density    
              Functional Calculations                          
              M. v. Arnim and R. Ahlrichs                      
              J. Comp. Chem. 19: 1746 (1998)                   
          RI-J Method:                                     
              Auxiliary Basis Sets to approximate Coulomb      
              Potentials                                       
              Chem. Phys. Lett. 240: 283 (1995)                
              K. Eichkorn, O. Treutler, H. Oehm, M. Haeser     
              and R. Ahlrichs                                  
              Chem. Phys. Lett. 242: 652 (1995)                
                                                           
              Auxiliary Basis Sets for Main Row Atoms and their
              Use to approximate Coulomb Potentials            
              K. Eichkorn, F. Weigend, O. Treutler and         
              R. Ahlrichs                                      
              Theo. Chem. Acc. 97: 119 (1997)                   
                                                           
              Accurate Coulomb-fitting basis sets for H to Rn 
              F. Weigend                                        
              Phys. Chem. Chem. Phys. 8: 1057 (2006)            
                                                           
          Multipole accelerated RI-J (MARI-J):             
              Fast evaluation of the Coulomb potential for     
              electron densities using multipole accelerated   
              resolution of identity approximation             
              M. Sierka, A. Hogekamp and R. Ahlrichs           
              J. Chem. Phys. 118: 9136 (2003)                  
          RI-JK Method:                                     
              A fully direct RI-HF algorithm: Implementation,
              optimised auxiliary basis sets, demonstration of
              accuracy and efficiency                         
              F. Weigend                                      
              Phys. Chem. Chem. Phys. 4: 4285 (2002)           
          Two-component HF and DFT with spin-orbit coupling:  
              Self-consistent treatment of spin-orbit         
              interactions with efficient Hartree-Fock and    
              density functional methods                      
              M. K. Armbruster, F. Weigend, C. van Wüllen and 
              W. Klopper                                      
              Phys. Chem. Chem. Phys. 10: 1748 (2008)         
          Relativistic all-electron 2c calculations           
              An efficient implementation of two-component    
              relativistic exact-decoupling methods for large 
              molecules                                       
              D. Peng, N. Middendorf, F. Weigend, M. Reiher   
              J. Chem. Phys. 138, 184105 (2013)               
                                         




              +--------------------------------------------------+
              |      general information about current run       |
              +--------------------------------------------------+

 

 DENSITY CONVERGENCE CHECK SWITCHED ON !
 SCF CONVERGENCE IF RMS(delta[D]) <     0.1000000000E-06

 TPSS meta-GGA functional
 exchange:    LDA + TPSS
 correlation: LDA (PW) + TPSS
 A DFT calculation using the RI-J approximation will be carried out.
 Allocatable memory for RI due to $ricore (MB):                  5000


              +--------------------------------------------------+
              | Atomic coordinate, charge and isotop information |
              +--------------------------------------------------+

                    atomic coordinates            atom    charge  isotop
         -0.39453209   -0.40982618   -1.95096453    o      8.000     0
          1.34383326   -0.73111946   -1.46257697    h      1.000     0
         -1.93162773   -1.40061046   -0.01030692    c      6.000     0
         -3.88809486   -1.01800933   -0.50757525    h      1.000     0
         -1.71538636   -3.44275281    0.20510540    h      1.000     0
         -1.55832695   -0.52060957    1.82291575    h      1.000     0
          3.72935655    3.59657218    0.81693084    c      0.000     0
          4.68630182    5.41344764    0.75103541    h      0.000     0
          2.95354059    3.32041540    2.70264440    h      0.000     0
          2.16154942    3.57859470   -0.50872250    h      0.000     0
          5.45964721    1.41405412    0.21993572    c      0.000     0
          4.65803523   -0.70227058   -0.31879031    o      0.000     0
          7.96568280    1.90864132    0.33180630    n      0.000     0
          8.52884471    3.62910116    0.89435356    h      0.000     0
          9.82216115   -0.05688419   -0.08911852    c      0.000     0
          9.14836572   -1.28697746   -1.58611602    h      0.000     0
         11.59920148    0.80015165   -0.65322766    h      0.000     0
         10.12359158   -1.19927448    1.59665994    h      0.000     0
 
       center of nuclear mass  :    4.07713128    0.57285919   -0.16290077
       center of nuclear charge:   -1.14244433   -0.96637574   -0.86731605

              +--------------------------------------------------+
              |               basis set information              |
              +--------------------------------------------------+

              we will work with the 1s 3p 5d 7f 9g ... basis set
              ...i.e. with spherical basis functions...

   type   atoms  prim   cont   basis
   ---------------------------------------------------------------------------
    o        2     77     55   cc-pVQZ   [5s4p3d2f1g|21s6p3d2f1g]
    h       11     32     30   cc-pVQZ   [4s3p2d1f|6s3p2d1f]
    c        4     77     55   cc-pVQZ   [5s4p3d2f1g|21s6p3d2f1g]
    n        1     77     55   cc-pVQZ   [5s4p3d2f1g|21s6p3d2f1g]
   ---------------------------------------------------------------------------
   total:   18    891    715
   ---------------------------------------------------------------------------

   total number of primitive shells          :  111
   total number of contracted shells         :  215
   total number of cartesian basis functions :  875
   total number of SCF-basis functions       :  715


 integral neglect threshold       :  0.38E-13
 integral storage threshold THIZE :  0.10E-04
 integral storage threshold THIME :         5

 RI-J AUXILIARY BASIS SET information:

              we will work with the 1s 3p 5d 7f 9g ... basis set
              ...i.e. with spherical basis functions...

   type   atoms  prim   cont   basis
   ---------------------------------------------------------------------------
    o        2     70     49   cc-pVQZ   [6s4p3d1f1g|12s5p4d2f1g]
    h       11     16     11   cc-pVQZ   [3s1p1d|5s2p1d]
    c        4     70     49   cc-pVQZ   [6s4p3d1f1g|12s5p4d2f1g]
    n        1     70     49   cc-pVQZ   [6s4p3d1f1g|12s5p4d2f1g]
   ---------------------------------------------------------------------------
   total:   18    666    464
   ---------------------------------------------------------------------------

   total number of primitive shells          :   80
   total number of contracted shells         :  160
   total number of cartesian basis functions :  559
   total number of SCF-basis functions       :  464


 symmetry group of the molecule :   c1 

 the group has the following generators :
   c1(z)

    1 symmetry operations found

 there are 1 real representations :   a   

 maximum number of shells which are related by symmetry :  1


    mo occupation :
   irrep   mo's   occupied
    a      715        9
 
 number of basis functions   :                    715
 number of occupied orbitals :                      9
 
  
           ------------------
           density functional
           ------------------
 Dummy atoms with grid-point found.
 DFT quadrature threshold dgrenze tightened by factor 1/10.

 TPSS meta-GGA functional
 exchange:    LDA + TPSS
 correlation: LDA (PW) + TPSS
 Dummy atoms with grid-point found.
 DFT quadrature threshold dgrenze tightened by factor 1/10.

 Dummy atoms with grid-point found.
 DFT quadrature threshold dgrenze tightened by factor 1/10.


 iterations will be done with small grid
  
 spherical integration : Lebedev's spherical grid
 spherical gridsize    :                     5
    i.e. gridpoints    :                   590
 value for diffuse not defined
 radial integration    : Chebyshev 2nd kind (scaling 3)
 radial gridsize       :                     8
 integration cells     :                    18
 partition function    : becke
 partition sharpness   :                     3
  
 found dummy atom(s) with basis: included in dft

 biggest AO integral is expected to be     4.785886462
  
           ------------------------
               RI-J - INFORMATION
           ------------------------
 Contributions to RI integral batches: 
  neglected integral batches:                  6183
  direct contribution:                            0
  memory contribution:                 17037
 Memory core needed for (P|Q) and Cholesky      2 MByte
 Memory core minimum needed except of (P|Q)     3 MByte
 Total minimum memory core needed (sum)         4 MByte
  
 ****************************************
 Memory allocated for RI-J  1153 MByte
 ****************************************
                                            

          ------------------------
          nuclear repulsion energy  :   40.4187622480    
          ------------------------


         -----------------
         -S,T+V- integrals
         -----------------

 1e-integrals will be neglected if expon. factor < 0.381938E-14
 Difference densities >>NOT<< switched on in parallel ridft!

 DIIS switched on: error vector is FDS-SDF
 Max. Iterations for DIIS is     :   4
 DIIS matrix (see manual) 
    Scaling factor of diagonals  :  1.200
    threshold for scaling factor :  0.000

 scf convergence criterion : increment of total energy < .1000000D-08
                  and increment of one-electron energy < .1000000D-05

  MOs are in ASCII format !


 automatic virtual orbital shift switched on 
      shift if e(lumo)-e(homo) < 0.10000000    


 reading orbital data $scfmo  from file mos
 orbital characterization : expanded
 mo provided and orthogonalized by Cholesky decomposition

 DSCF restart information will be dumped onto file mos


 Starting SCF iterations

          Overall gridpoints after grid construction =        103246

 ITERATION  ENERGY          1e-ENERGY        2e-ENERGY     RMS[dD(SAO)]   TOL
   1  -115.33549716621    -236.39139453     80.637135119    0.000D+00 0.381D-13
                            Exc = -15.4138980023     Coul =  96.0510331212    
                              N = 18.000040142    
                            current damping = 0.700
 
          max. resid. norm for Fia-block=  3.080D-01 for orbital      1a         
          max. resid. fock norm         =  2.970D+01 for orbital    662a         

 ITERATION  ENERGY          1e-ENERGY        2e-ENERGY     RMS[dD(SAO)]   TOL
   2  -115.70706380296    -236.63146081     80.505634754    0.169D-02 0.381D-13
                            Exc = -15.4092029949     Coul =  95.9148377490    
                              N = 18.000029085    
                            current damping = 0.650
 
          Norm of current diis error:  1.6956    
          max. resid. norm for Fia-block=  1.378D-01 for orbital      1a         
          max. resid. fock norm         =  2.100D-01 for orbital    657a         

 ITERATION  ENERGY          1e-ENERGY        2e-ENERGY     RMS[dD(SAO)]   TOL
   3  -115.76999797652    -237.23854384     81.049783614    0.884D-03 0.381D-13
                            Exc = -15.5159338979     Coul =  96.5657175117    
                              N = 18.000022763    
                            current damping = 0.600
 
          Norm of current diis error: 0.80216    
          max. resid. norm for Fia-block=  5.455D-02 for orbital      1a         
          max. resid. fock norm         =  5.684D-02 for orbital      1a         

 ITERATION  ENERGY          1e-ENERGY        2e-ENERGY     RMS[dD(SAO)]   TOL
   4  -115.78942538560    -236.99260107     80.784413440    0.568D-03 0.381D-13
                            Exc = -15.5020130507     Coul =  96.2864264903    
                              N = 18.000018280    
                            current damping = 0.650
 
          Norm of current diis error: 0.31215    
          max. resid. norm for Fia-block=  2.224D-02 for orbital      4a         
          max. resid. fock norm         =  3.815D-02 for orbital    591a         

 ITERATION  ENERGY          1e-ENERGY        2e-ENERGY     RMS[dD(SAO)]   TOL
   5  -115.79276697302    -237.27585451     81.064325294    0.235D-03 0.381D-13
                            Exc = -15.5432825471     Coul =  96.6076078409    
                              N = 18.000016174    
                            current damping = 0.700
 
          Norm of current diis error: 0.13336    
          max. resid. norm for Fia-block=  9.367D-03 for orbital      8a         
          max. resid. fock norm         =  1.445D-02 for orbital    662a         
          mo-orthogonalization: Cholesky decomposition

 ITERATION  ENERGY          1e-ENERGY        2e-ENERGY     RMS[dD(SAO)]   TOL
   6  -115.79346803676    -237.18545808     80.973227795    0.153D-03 0.381D-13
                            Exc = -15.5363842720     Coul =  96.5096120671    
                              N = 18.000015214    
                            current damping = 0.750
 
          Norm of current diis error: 0.52472E-01
          max. resid. norm for Fia-block=  3.689D-03 for orbital      4a         
          max. resid. fock norm         =  7.025D-03 for orbital    591a         

 ITERATION  ENERGY          1e-ENERGY        2e-ENERGY     RMS[dD(SAO)]   TOL
   7  -115.79358086929    -237.21224884     80.999905724    0.541D-04 0.381D-13
                            Exc = -15.5407148843     Coul =  96.5406206078    
                              N = 18.000014765    
                            current damping = 0.800
 
          Norm of current diis error: 0.21491E-01
          max. resid. norm for Fia-block=  1.543D-03 for orbital      4a         
          max. resid. fock norm         =  3.092D-03 for orbital    591a         

 ITERATION  ENERGY          1e-ENERGY        2e-ENERGY     RMS[dD(SAO)]   TOL
   8  -115.79360116837    -237.21445370     81.002090283    0.253D-04 0.381D-13
                            Exc = -15.5415793242     Coul =  96.5436696074    
                              N = 18.000014582    
                            current damping = 0.650
 
          Norm of current diis error: 0.96980E-02
          max. resid. norm for Fia-block=  7.068D-04 for orbital      4a         
          max. resid. fock norm         =  1.846D-03 for orbital    663a         

 ITERATION  ENERGY          1e-ENERGY        2e-ENERGY     RMS[dD(SAO)]   TOL
   9  -115.79360556544    -237.21746796     81.005100143    0.122D-04 0.381D-13
                            Exc = -15.5422015317     Coul =  96.5473016749    
                              N = 18.000014486    
                            current damping = 0.500
 
          Norm of current diis error: 0.37687E-02
          max. resid. norm for Fia-block=  2.767D-04 for orbital      8a         
          max. resid. fock norm         =  7.741D-04 for orbital    659a         

 ITERATION  ENERGY          1e-ENERGY        2e-ENERGY     RMS[dD(SAO)]   TOL
  10  -115.79360627023    -237.21616998     81.003801462    0.601D-05 0.381D-13
                            Exc = -15.5421755591     Coul =  96.5459770215    
                              N = 18.000014444    
                            current damping = 0.550
 
          Norm of current diis error: 0.16221E-02
          max. resid. norm for Fia-block=  1.232D-04 for orbital      5a         
          max. resid. fock norm         =  3.010D-04 for orbital    660a         
          mo-orthogonalization: Cholesky decomposition

 ITERATION  ENERGY          1e-ENERGY        2e-ENERGY     RMS[dD(SAO)]   TOL
  11  -115.79360635474    -237.21836177     81.005993164    0.133D-05 0.381D-13
                            Exc = -15.5424730066     Coul =  96.5484661709    
                              N = 18.000014432    
                            current damping = 0.600
 
          Norm of current diis error: 0.76032E-03
          max. resid. norm for Fia-block=  4.596D-05 for orbital      8a         
          max. resid. fock norm         =  1.115D-04 for orbital    660a         

 ITERATION  ENERGY          1e-ENERGY        2e-ENERGY     RMS[dD(SAO)]   TOL
  12  -115.79360637492    -237.21777048     81.005401853    0.829D-06 0.381D-13
                            Exc = -15.5424129809     Coul =  96.5478148341    
                              N = 18.000014427    
                            current damping = 0.650
 
          Norm of current diis error: 0.17107E-03
          max. resid. norm for Fia-block=  1.276D-05 for orbital      4a         
          max. resid. fock norm         =  4.830D-05 for orbital    660a         

 ITERATION  ENERGY          1e-ENERGY        2e-ENERGY     RMS[dD(SAO)]   TOL
  13  -115.79360637625    -237.21769380     81.005325177    0.246D-06 0.381D-13
                            Exc = -15.5424109616     Coul =  96.5477361390    
                              N = 18.000014425    
                            current damping = 0.500
 
          Norm of current diis error: 0.72919E-04
          max. resid. norm for Fia-block=  5.285D-06 for orbital      4a         
          max. resid. fock norm         =  1.909D-05 for orbital    660a         

 ITERATION  ENERGY          1e-ENERGY        2e-ENERGY     RMS[dD(SAO)]   TOL
  14  -115.79360637651    -237.21772844     81.005359812    0.101D-06 0.381D-13
                            Exc = -15.5424160659     Coul =  96.5477758778    
                              N = 18.000014424    
                            current damping = 0.550
 
          Norm of current diis error: 0.24782E-04
          max. resid. norm for Fia-block=  1.830D-06 for orbital      4a         
          max. resid. fock norm         =  7.389D-06 for orbital    660a         

 ENERGY & DENSITY CONVERGED !

          Overall gridpoints after grid construction =        273509

 ITERATION  ENERGY          1e-ENERGY        2e-ENERGY     RMS[dD(SAO)]   TOL
  15  -115.79359273545    -237.21773102     81.005376034    0.314D-07 0.381D-13
                            Exc = -15.5424037145     Coul =  96.5477797489    
                              N = 17.999997960    
                            current damping = 0.400
 
          Norm of current diis error: 0.82366E-05
          max. resid. norm for Fia-block=  6.542D-07 for orbital      8a         
          max. resid. fock norm         =  2.754D-06 for orbital    660a         

 End of SCF iterations

   convergence criteria satisfied after    15 iterations


                  ------------------------------------------ 
                 |  total energy      =   -115.79359273545  |
                  ------------------------------------------ 
                 :  kinetic energy    =    115.36082679932  :
                 :  potential energy  =   -231.15441953477  :
                 :  virial theorem    =      1.99626260896  :
                 :  wavefunction norm =      1.00000000000  :
                  .......................................... 


 <geterg> : there is no data group $energy 


 <skperg> : $end is missing 


 orbitals $scfmo  will be written to file mos

    irrep                  5a          6a          7a          8a          9a   
 eigenvalues H         -0.46558    -0.39850    -0.38581    -0.30012    -0.23435
            eV         -12.6693    -10.8437    -10.4985     -8.1666     -6.3771
 occupation              2.0000      2.0000      2.0000      2.0000      2.0000 

    irrep                 10a         11a         12a         13a         14a   
 eigenvalues H         -0.00564     0.03786     0.05859     0.06685     0.08718
            eV          -0.1535      1.0303      1.5943      1.8192      2.3723
 
 
 
 
 ==============================================================================
                           electrostatic moments
 ==============================================================================

 reference point for electrostatic moments:    0.00000   0.00000   0.00000

 
              nuc           elec       ->  total
 ------------------------------------------------------------------------------
                          charge      
 ------------------------------------------------------------------------------
          18.000000     -18.000000      -0.000000
 
 ------------------------------------------------------------------------------
                       dipole moment  
 ------------------------------------------------------------------------------
   x     -20.563998      20.779097       0.215100
   y     -17.394763      17.103301      -0.291462
   z     -15.611689      16.118010       0.506321
 
   | dipole moment | =     0.6226 a.u. =     1.5824 debye 
 
 ------------------------------------------------------------------------------
                     quadrupole moment
 ------------------------------------------------------------------------------
  xx      45.926461     -54.226473      -8.300011
  yy      26.808378     -36.749612      -9.941234
  zz      36.212592     -47.965817     -11.753225
  xy      27.218810     -27.227863      -0.009053
  xz       3.092707      -3.806776      -0.714069
  yz       6.413947      -6.347935       0.066011
 
     1/3  trace=      -9.998157
     anisotropy=       3.239414
 
 ==============================================================================
 


    ------------------------------------------------------------------------
         total  cpu-time : 16 minutes and 18 seconds
         total wall-time :  2 minutes and 22 seconds
    ------------------------------------------------------------------------

   ****  ridft : all done  ****


    2018-04-28 21:02:15.871 

