 operating system is UNIX !

 ridft (c-12-251.gp.local) : TURBOMOLE V7.2 ( 21285 ) 30 Jun 2017 at 11:51:10
 Copyright (C) 2017 TURBOMOLE GmbH, Karlsruhe


    2018-02-07 23:04:20.527 



                                  r i d f t

                        DFT program with RI approximation 
                                for coulomb part 




                                                 
                                 References:     
                                                 
          TURBOMOLE:                             
              R. Ahlrichs, M. Baer, M. Haeser, H. Horn, and
              C. Koelmel
              Electronic structure calculations on workstation
              computers: the program system TURBOMOLE
              Chem. Phys. Lett. 162: 165 (1989)
          Density Functional:                              
              O. Treutler and R. Ahlrichs                      
              Efficient Molecular Numerical Integration Schemes
              J. Chem. Phys. 102: 346 (1995)                   
          Parallel Version:                                
              Performance of parallel TURBOMOLE for Density    
              Functional Calculations                          
              M. v. Arnim and R. Ahlrichs                      
              J. Comp. Chem. 19: 1746 (1998)                   
          RI-J Method:                                     
              Auxiliary Basis Sets to approximate Coulomb      
              Potentials                                       
              Chem. Phys. Lett. 240: 283 (1995)                
              K. Eichkorn, O. Treutler, H. Oehm, M. Haeser     
              and R. Ahlrichs                                  
              Chem. Phys. Lett. 242: 652 (1995)                
                                                           
              Auxiliary Basis Sets for Main Row Atoms and their
              Use to approximate Coulomb Potentials            
              K. Eichkorn, F. Weigend, O. Treutler and         
              R. Ahlrichs                                      
              Theo. Chem. Acc. 97: 119 (1997)                   
                                                           
              Accurate Coulomb-fitting basis sets for H to Rn 
              F. Weigend                                        
              Phys. Chem. Chem. Phys. 8: 1057 (2006)            
                                                           
          Multipole accelerated RI-J (MARI-J):             
              Fast evaluation of the Coulomb potential for     
              electron densities using multipole accelerated   
              resolution of identity approximation             
              M. Sierka, A. Hogekamp and R. Ahlrichs           
              J. Chem. Phys. 118: 9136 (2003)                  
          RI-JK Method:                                     
              A fully direct RI-HF algorithm: Implementation,
              optimised auxiliary basis sets, demonstration of
              accuracy and efficiency                         
              F. Weigend                                      
              Phys. Chem. Chem. Phys. 4: 4285 (2002)           
          Two-component HF and DFT with spin-orbit coupling:  
              Self-consistent treatment of spin-orbit         
              interactions with efficient Hartree-Fock and    
              density functional methods                      
              M. K. Armbruster, F. Weigend, C. van Wüllen and 
              W. Klopper                                      
              Phys. Chem. Chem. Phys. 10: 1748 (2008)         
          Relativistic all-electron 2c calculations           
              An efficient implementation of two-component    
              relativistic exact-decoupling methods for large 
              molecules                                       
              D. Peng, N. Middendorf, F. Weigend, M. Reiher   
              J. Chem. Phys. 138, 184105 (2013)               
                                         




              +--------------------------------------------------+
              |      general information about current run       |
              +--------------------------------------------------+

 

 DENSITY CONVERGENCE CHECK SWITCHED ON !
 SCF CONVERGENCE IF RMS(delta[D]) <     0.1000000000E-06

 PBE functional
 exchange:    LDA + PBE
 correlation: LDA (PW) + PBE
 A DFT calculation using the RI-J approximation will be carried out.
 Allocatable memory for RI due to $ricore (MB):                  5000


              +--------------------------------------------------+
              | Atomic coordinate, charge and isotop information |
              +--------------------------------------------------+

                    atomic coordinates            atom    charge  isotop
         39.18725082   24.74029453    4.00810913    c      6.000     0
         37.91546513   22.14948000    3.77378309    c      6.000     0
         35.03363278   22.26853275    4.05535228    c      6.000     0
         33.74294983   19.68527713    3.82102624    c      6.000     0
         30.85922775   19.81566823    4.07613927    c      6.000     0
         29.56287562   17.23808178    3.82858515    c      6.000     0
         26.67726382   17.37792152    4.05535228    c      6.000     0
         25.37335279   14.80600425    3.78890090    c      6.000     0
         22.48774098   14.95907207    3.99866050    c      6.000     0
         21.17249159   12.39093425    3.72653993    c      6.000     0
         18.28876951   12.55534043    3.93818926    c      6.000     0
         16.96218177    9.99287179    3.67551733    c      6.000     0
         14.08034942   10.16483687    3.90606392    c      6.000     0
         12.74809249    7.60425796    3.66417897    c      6.000     0
          9.86814987    7.77811276    3.92685090    c      6.000     0
          8.53400322    5.21564413    3.71142212    c      6.000     0
          5.65595032    5.38571948    4.00621940    c      6.000     0
          4.34070093    2.81380221    3.80590843    c      6.000     0
          2.28845835    3.00088510    4.00432968    h      1.000     0
         38.81875422   25.57933293    5.86570992    h      1.000     0
         41.23760367   24.59667535    3.76811391    h      1.000     0
         38.46915489   26.04798502    2.57191727    h      1.000     0
         38.38222749   21.31233133    1.93318983    h      1.000     0
         38.68647339   20.86635596    5.21186467    h      1.000     0
         34.56120124   23.10568143    5.89594553    h      1.000     0
         34.26073479   23.55165679    2.61538097    h      1.000     0
         34.22860944   18.84245927    1.98610217    h      1.000     0
         34.50073001   18.40782226    5.27044618    h      1.000     0
         30.37356813   20.65281691    5.91484280    h      1.000     0
         30.10333730   21.10257173    2.63238850    h      1.000     0
         30.06365305   16.39337420    1.99744052    h      1.000     0
         30.30175854   15.95495774    5.28556399    h      1.000     0
         26.17648639   18.21318047    5.89027636    h      1.000     0
         25.94216035   18.67049419    2.60593234    h      1.000     0
         25.88168912   13.96507612    1.95964600    h      1.000     0
         26.09711790   13.51532130    5.24776947    h      1.000     0
         21.97940465   15.79433102    5.83169485    h      1.000     0
         21.76586560   16.25353447    2.54546110    h      1.000     0
         21.67893820   11.55189585    1.89728504    h      1.000     0
         21.89247725   11.09647185    5.18351878    h      1.000     0
         17.78610236   13.39626856    5.76933388    h      1.000     0
         17.56878386   13.85169255    2.48310014    h      1.000     0
         17.45540029    9.14816421    1.84248298    h      1.000     0
         17.68594688    8.69651966    5.12871672    h      1.000     0
         13.59468980   11.01521363    5.73909827    h      1.000     0
         13.35280485   11.45740954    2.45286452    h      1.000     0
         13.21863430    6.75577093    1.82925490    h      1.000     0
         13.48697541    6.31168528    5.11359892    h      1.000     0
          9.40327724    8.63604843    5.76177498    h      1.000     0
          9.12359777    9.06312653    2.47743096    h      1.000     0
          8.98375804    4.35959819    1.87271860    h      1.000     0
          9.29178340    3.92874063    5.15517289    h      1.000     0
          5.21186467    6.24932432    5.84114348    h      1.000     0
          4.90005986    6.66506407    2.55868918    h      1.000     0
          4.72431533    1.92563093    1.97476381    h      1.000     0
          5.00966398    1.52500899    5.28367427    h      1.000     0
          9.39004915    8.90249981   -3.87960775    c      0.000     0
          8.09936621    6.31924419   -4.11393379    c      0.000     0
          5.21753385    6.43829693   -3.83236460    c      0.000     0
          3.94574817    3.84748241   -4.06669064    c      0.000     0
         12.27188151    8.77210871   -4.13661050    c      0.000     0
         13.57012336   11.35158488   -3.88716666    c      0.000     0
         16.45384544   11.20985542   -4.11393379    c      0.000     0
         17.75964620   13.78177269   -3.84748241    c      0.000     0
         20.64525800   13.62870487   -4.05724201    c      0.000     0
         21.95861766   16.19684268   -3.78512144    c      0.000     0
         24.84422947   16.03243651   -3.99677077    c      0.000     0
         26.16892749   18.59679487   -3.73409884    c      0.000     0
         29.05075984   18.42294007   -3.96464543    c      0.000     0
         30.38301676   20.98540871   -3.72276048    c      0.000     0
         33.26295939   20.80966418   -3.98732214    c      0.000     0
         34.59710604   23.37213281   -3.77000364    c      0.000     0
         37.47515894   23.20205746   -4.06480091    c      0.000     0
         38.79040833   25.77397473   -3.86637967    c      0.000     0
         40.84265091   25.58878157   -4.06480091    h      0.000     0
         38.12144528   27.06276795   -5.34414550    h      0.000     0
         37.91924458   22.33845262   -5.89972499    h      0.000     0
         38.23104939   21.92271287   -2.61727069    h      0.000     0
         34.14735122   24.23006848   -1.93318983    h      0.000     0
         33.83932586   24.65903631   -5.21564413    h      0.000     0
         33.72783202   19.95172851   -5.82035649    h      0.000     0
         34.00751149   19.52465040   -2.53601247    h      0.000     0
         29.91247496   21.83389574   -1.88783641    h      0.000     0
         29.64413385   22.27609165   -5.17218043    h      0.000     0
         29.53641946   17.57256331   -5.79767978    h      0.000     0
         29.78019413   17.13225712   -2.51144603    h      0.000     0
         25.67759869   19.43961273   -1.90106449    h      0.000     0
         25.44516238   19.89125727   -5.18729823    h      0.000     0
         25.34500689   15.19150838   -5.82791539    h      0.000     0
         25.56232540   14.73797411   -2.54168165    h      0.000     0
         21.45217106   17.03777081   -1.95586655    h      0.000     0
         21.24052173   17.49130509   -5.24210029    h      0.000     0
         21.15359433   12.79344592   -5.89027636    h      0.000     0
         21.36713338   12.33424247   -2.60404261    h      0.000     0
         17.24942014   14.62270082   -2.02011724    h      0.000     0
         17.03588109   15.07245564   -5.30635098    h      0.000     0
         16.95462286   10.37459647   -5.95074759    h      0.000     0
         17.18894890    9.91728275   -2.66451385    h      0.000     0
         13.06934594   12.19440274   -2.05791176    h      0.000     0
         12.82935072   12.63281920   -5.34414550    h      0.000     0
         12.75754112    7.93684976   -5.97531403    h      0.000     0
         13.02777196    7.48520521   -2.69285974    h      0.000     0
          8.90438954    9.74531767   -2.04468368    h      0.000     0
          8.57179774    5.48209551   -5.95641677    h      0.000     0
          8.87037447    5.03612014   -2.67585220    h      0.000     0
          4.75077150    7.27544561   -1.99177134    h      0.000     0
          4.44652559    7.72142098   -5.27044618    h      0.000     0
          1.89539531    3.99110159   -3.82858515    h      0.000     0
          4.31424476    3.00844400   -5.92618115    h      0.000     0
          4.66384410    2.53979192   -2.63238850    h      0.000     0
          8.63037925   10.17995468   -5.33091742    h      0.000     0
         38.40679392   26.66214601   -2.03334532    h      0.000     0
 
       center of nuclear mass  :   21.56596376   14.29404844   -0.02948066
       center of nuclear charge:   21.80432023   13.71994240    3.87670844

              +--------------------------------------------------+
              |               basis set information              |
              +--------------------------------------------------+

              we will work with the 1s 3p 5d 7f 9g ... basis set
              ...i.e. with spherical basis functions...

   type   atoms  prim   cont   basis
   ---------------------------------------------------------------------------
    c       36     77     55   cc-pVQZ   [5s4p3d2f1g|21s6p3d2f1g]
    h       76     32     30   cc-pVQZ   [4s3p2d1f|6s3p2d1f]
   ---------------------------------------------------------------------------
   total:  112   5204   4260
   ---------------------------------------------------------------------------

   total number of primitive shells          :   45
   total number of contracted shells         : 1300
   total number of cartesian basis functions : 5180
   total number of SCF-basis functions       : 4260


 integral neglect threshold       :  0.64E-14
 integral storage threshold THIZE :  0.10E-04
 integral storage threshold THIME :         5

 RI-J AUXILIARY BASIS SET information:

              we will work with the 1s 3p 5d 7f 9g ... basis set
              ...i.e. with spherical basis functions...

   type   atoms  prim   cont   basis
   ---------------------------------------------------------------------------
    c       36     70     49   cc-pVQZ   [6s4p3d1f1g|12s5p4d2f1g]
    h       76     16     11   cc-pVQZ   [3s1p1d|5s2p1d]
   ---------------------------------------------------------------------------
   total:  112   3736   2600
   ---------------------------------------------------------------------------

   total number of primitive shells          :   32
   total number of contracted shells         :  920
   total number of cartesian basis functions : 3108
   total number of SCF-basis functions       : 2600


 symmetry group of the molecule :   c1 

 the group has the following generators :
   c1(z)

    1 symmetry operations found

 there are 1 real representations :   a   

 maximum number of shells which are related by symmetry :  1


    mo occupation :
   irrep   mo's   occupied
    a     4260       73
 
 number of basis functions   :                   4260
 number of occupied orbitals :                     73
 
  
           ------------------
           density functional
           ------------------
 Dummy atoms with grid-point found.
 DFT quadrature threshold dgrenze tightened by factor 1/10.

 PBE functional
 exchange:    LDA + PBE
 correlation: LDA (PW) + PBE
 Dummy atoms with grid-point found.
 DFT quadrature threshold dgrenze tightened by factor 1/10.

 Dummy atoms with grid-point found.
 DFT quadrature threshold dgrenze tightened by factor 1/10.


 iterations will be done with small grid
  
 spherical integration : Lebedev's spherical grid
 spherical gridsize    :                     5
    i.e. gridpoints    :                   590
 value for diffuse not defined
 radial integration    : Chebyshev 2nd kind (scaling 3)
 radial gridsize       :                     8
 integration cells     :                   112
 partition function    : becke
 partition sharpness   :                     3
  
 found dummy atom(s) with basis: included in dft

 biggest AO integral is expected to be     3.537514283
  
           ------------------------
               RI-J - INFORMATION
           ------------------------
 Contributions to RI integral batches: 
  neglected integral batches:                588716
  direct contribution:                       207318
  memory contribution:                 49616
 Memory core needed for (P|Q) and Cholesky     52 MByte
 Memory core minimum needed except of (P|Q)     5 MByte
 Total minimum memory core needed (sum)        56 MByte
  
 ****************************************
 Memory allocated for RI-J  3559 MByte
 ****************************************
                                            

          ------------------------
          nuclear repulsion energy  :   1177.19691479    
          ------------------------


         -----------------
         -S,T+V- integrals
         -----------------

 1e-integrals will be neglected if expon. factor < 0.645166E-15
 
   Difference densities algorithm switched on.
   The maximal number of linear combinations of
   difference densities is                    20 .

 DIIS switched on: error vector is FDS-SDF
 Max. Iterations for DIIS is     :   4
 DIIS matrix (see manual) 
    Scaling factor of diagonals  :  1.200
    threshold for scaling factor :  0.000

 scf convergence criterion : increment of total energy < .1000000D-08
                  and increment of one-electron energy < .1000000D-05

  MOs are in ASCII format !


 automatic virtual orbital shift switched on 
      shift if e(lumo)-e(homo) < 0.10000000    


 reading orbital data $scfmo  from file mos
 orbital characterization : expanded
 mo provided and orthogonalized by Cholesky decomposition

 DSCF restart information will be dumped onto file mos


 Starting SCF iterations

          Overall gridpoints after grid construction =        544058

 ITERATION  ENERGY          1e-ENERGY        2e-ENERGY     RMS[dD(SAO)]   TOL
   1  -705.86114003215    -3260.7614972     1377.7034424    0.000D+00 0.644D-14
                            Exc = -107.499795717     Coul =  1485.20323810    
                              N = 145.99883867    
                            current damping = 0.700
 
          max. resid. norm for Fia-block=  2.429D-01 for orbital     32a         
          max. resid. fock norm         =  1.440D+01 for orbital   4055a         

 ITERATION  ENERGY          1e-ENERGY        2e-ENERGY     RMS[dD(SAO)]   TOL
   2  -707.62656839285    -3280.2163128     1395.3928296    0.859D-03 0.436D-14
                            Exc = -109.653679728     Coul =  1505.04650933    
                              N = 145.99908168    
                            current damping = 0.650
 
          Norm of current diis error:  4.5770    
          max. resid. norm for Fia-block=  1.024D-01 for orbital     17a         
          max. resid. fock norm         =  1.200D-01 for orbital     18a         

 ITERATION  ENERGY          1e-ENERGY        2e-ENERGY     RMS[dD(SAO)]   TOL
   3  -707.98250905471    -3284.1372258     1398.9578019    0.389D-03 0.329D-14
                            Exc = -110.288329254     Coul =  1509.24613119    
                              N = 145.99924654    
                            current damping = 0.550
 
          Norm of current diis error:  2.1542    
          max. resid. norm for Fia-block=  4.642D-02 for orbital     32a         
          max. resid. fock norm         =  5.026D-02 for orbital     21a         

 ITERATION  ENERGY          1e-ENERGY        2e-ENERGY     RMS[dD(SAO)]   TOL
   4  -708.08331019798    -3288.1309803     1402.8507553    0.202D-03 0.273D-14
                            Exc = -110.775879827     Coul =  1513.62663509    
                              N = 145.99937177    
                            current damping = 0.450
 
          Norm of current diis error: 0.78196    
          max. resid. norm for Fia-block=  1.744D-02 for orbital     32a         
          max. resid. fock norm         =  1.940D-02 for orbital     21a         

 ITERATION  ENERGY          1e-ENERGY        2e-ENERGY     RMS[dD(SAO)]   TOL
   5  -708.09885015745    -3288.5877158     1403.2919508    0.101D-03 0.242D-14
                            Exc = -110.897065352     Coul =  1514.18901617    
                              N = 145.99942216    
                            current damping = 0.300
 
          Norm of current diis error: 0.29235    
          max. resid. norm for Fia-block=  6.761D-03 for orbital     32a         
          max. resid. fock norm         =  6.857D-03 for orbital     32a         
          mo-orthogonalization: Cholesky decomposition

 ITERATION  ENERGY          1e-ENERGY        2e-ENERGY     RMS[dD(SAO)]   TOL
   6  -708.10112516051    -3289.5553136     1404.2572737    0.395D-04 0.228D-14
                            Exc = -110.998031112     Coul =  1515.25530478    
                              N = 145.99944678    
                            current damping = 0.200
 
          Norm of current diis error: 0.88044E-01
          max. resid. norm for Fia-block=  1.874D-03 for orbital     67a         
          max. resid. fock norm         =  3.084D-03 for orbital   2154a         

 ITERATION  ENERGY          1e-ENERGY        2e-ENERGY     RMS[dD(SAO)]   TOL
   7  -708.10127432581    -3289.2484562     1403.9502671    0.154D-04 0.222D-14
                            Exc = -110.984125354     Coul =  1514.93439244    
                              N = 145.99944876    
                            current damping = 0.250
 
          Norm of current diis error: 0.46837E-01
          max. resid. norm for Fia-block=  6.046D-04 for orbital     31a         
          max. resid. fock norm         =  1.423D-03 for orbital   4226a         

 ITERATION  ENERGY          1e-ENERGY        2e-ENERGY     RMS[dD(SAO)]   TOL
   8  -708.10131530735    -3289.3562403     1404.0580102    0.253D-05 0.221D-14
                            Exc = -110.993031062     Coul =  1515.05104130    
                              N = 145.99945037    
                            current damping = 0.300
 
          Norm of current diis error: 0.10619E-01
          max. resid. norm for Fia-block=  1.998D-04 for orbital     33a         
          max. resid. fock norm         =  4.553D-04 for orbital   4230a         

 ITERATION  ENERGY          1e-ENERGY        2e-ENERGY     RMS[dD(SAO)]   TOL
   9  -708.10131700356    -3289.3988160     1404.1005842    0.714D-06 0.220D-14
                            Exc = -110.996273249     Coul =  1515.09685744    
                              N = 145.99945076    
                            current damping = 0.150
 
          Norm of current diis error: 0.52185E-02
          max. resid. norm for Fia-block=  6.310D-05 for orbital     72a         
          max. resid. fock norm         =  1.607D-04 for orbital   4230a         

 ITERATION  ENERGY          1e-ENERGY        2e-ENERGY     RMS[dD(SAO)]   TOL
  10  -708.10131751287    -3289.3877379     1404.0895056    0.327D-06 0.218D-14
                            Exc = -110.995531377     Coul =  1515.08503699    
                              N = 145.99945071    
                            current damping = 0.200
 
          Norm of current diis error: 0.66570E-03
          max. resid. norm for Fia-block=  1.717D-05 for orbital     73a         
          max. resid. fock norm         =  5.277D-05 for orbital     13a         
          mo-orthogonalization: Cholesky decomposition

 DENSITY CONVERGED !


 ITERATION  ENERGY          1e-ENERGY        2e-ENERGY     RMS[dD(SAO)]   TOL
  11  -708.10131751363    -3289.3865289     1404.0882966    0.670D-07 0.218D-14
                            Exc = -110.995447879     Coul =  1515.08374446    
                              N = 145.99945072    
                            current damping = 0.050
 
          Norm of current diis error: 0.64775E-03
          max. resid. norm for Fia-block=  7.842D-06 for orbital     73a         
          max. resid. fock norm         =  2.272D-05 for orbital     12a         

 DENSITY CONVERGED !


 ITERATION  ENERGY          1e-ENERGY        2e-ENERGY     RMS[dD(SAO)]   TOL
  12  -708.10131752108    -3289.3866859     1404.0884535    0.336D-07 0.217D-14
                            Exc = -110.995460464     Coul =  1515.08391400    
                              N = 145.99945071    
                            current damping = 0.100
 
          Norm of current diis error: 0.12214E-03
          max. resid. norm for Fia-block=  2.121D-06 for orbital     67a         
          max. resid. fock norm         =  5.589D-06 for orbital   4227a         

 DENSITY CONVERGED !


 ITERATION  ENERGY          1e-ENERGY        2e-ENERGY     RMS[dD(SAO)]   TOL
  13  -708.10131752151    -3289.3872314     1404.0889991    0.986D-08 0.217D-14
                            Exc = -110.995500093     Coul =  1515.08449916    
                              N = 145.99945072    
                            current damping = 0.050
 
          Norm of current diis error: 0.83841E-04
          max. resid. norm for Fia-block=  8.652D-07 for orbital     67a         
          max. resid. fock norm         =  1.944D-06 for orbital   4227a         

 DENSITY CONVERGED !


 ITERATION  ENERGY          1e-ENERGY        2e-ENERGY     RMS[dD(SAO)]   TOL
  14  -708.10131752142    -3289.3869585     1404.0887262    0.456D-08 0.217D-14
                            Exc = -110.995479861     Coul =  1515.08420607    
                              N = 145.99945072    
                            current damping = 0.100
 
          Norm of current diis error: 0.77252E-05
          max. resid. norm for Fia-block=  1.254D-07 for orbital     70a         
          max. resid. fock norm         =  2.945D-07 for orbital     13a         

 ENERGY & DENSITY CONVERGED !

          Overall gridpoints after grid construction =       1578835

 ITERATION  ENERGY          1e-ENERGY        2e-ENERGY     RMS[dD(SAO)]   TOL
  15  -708.10142113878    -3289.3869922     1404.0886563    0.606D-09 0.216D-14
                            Exc = -110.995586110     Coul =  1515.08424238    
                              N = 146.00017554    
                            current damping = 0.150
 
          Norm of current diis error: 0.60052E-05
          max. resid. norm for Fia-block=  7.999D-08 for orbital     73a         
          max. resid. fock norm         =  2.147D-07 for orbital      5a         

 End of SCF iterations

   convergence criteria satisfied after   15 iterations


                  ------------------------------------------ 
                 |  total energy      =   -708.10142113878  |
                  ------------------------------------------ 
                 :  kinetic energy    =    704.23060795210  :
                 :  potential energy  =  -1412.33202909088  :
                 :  virial theorem    =      1.99453353281  :
                 :  wavefunction norm =      1.00000000000  :
                  .......................................... 


 <geterg> : there is no data group $energy 


 orbitals $scfmo  will be written to file mos

    irrep                 69a         70a         71a         72a         73a   
 eigenvalues H         -0.27680    -0.27581    -0.27576    -0.26651    -0.24915
            eV          -7.5323     -7.5052     -7.5040     -7.2523     -6.7799
 occupation              2.0000      2.0000      2.0000      2.0000      2.0000 

    irrep                 74a         75a         76a         77a         78a   
 eigenvalues H         -0.01162    -0.00740    -0.00086     0.00732     0.01343
            eV          -0.3163     -0.2012     -0.0234      0.1992      0.3654
 
 
 
 
 ==============================================================================
                           electrostatic moments
 ==============================================================================

 reference point for electrostatic moments:    0.00000   0.00000   0.00000

 
              nuc           elec       ->  total
 ------------------------------------------------------------------------------
                          charge      
 ------------------------------------------------------------------------------
         146.000000    -146.000000       0.000000
 
 ------------------------------------------------------------------------------
                       dipole moment  
 ------------------------------------------------------------------------------
   x    3183.430754   -3183.430179       0.000575
   y    2003.111591   -2003.111975      -0.000385
   z     565.999433    -565.996559       0.002873
 
   | dipole moment | =     0.0030 a.u. =     0.0075 debye 
 
 ------------------------------------------------------------------------------
                     quadrupole moment
 ------------------------------------------------------------------------------
  xx   87131.403370  -87224.953274     -93.549903
  yy   33697.710824  -33792.235403     -94.524579
  zz    2297.055801   -2386.699073     -89.643271
  xy   53924.831942  -53925.952115      -1.120173
  xz   12404.020414  -12403.766002       0.254412
  yz    7822.232217   -7822.753975      -0.521758
 
     1/3  trace=     -92.572585
     anisotropy=       4.979428
 
 ==============================================================================
 


    ------------------------------------------------------------------------
         total  cpu-time :  2 hours 20 minutes and 30 seconds
         total wall-time :  2 hours 27 minutes and  4 seconds
    ------------------------------------------------------------------------

   ****  ridft : all done  ****


    2018-02-08 01:31:24.936 

