
   OpenMP run-time library returned nthreads = 28
 operating system is UNIX !

 dscf (c-14-38) : TURBOMOLE V7.3 ( 22142 ) 4 Jul 2018 at 18:12:42
 Copyright (C) 2018 TURBOMOLE GmbH, Karlsruhe


    2019-03-30 12:13:01.916 



                             d s c f - program

                   idea & directorship : reinhart ahlrichs
                   program development : marco haeser
                                         michael baer
                           dft version : oliver treutler


                          quantum chemistry group
                          universitaet  karlsruhe
                                  germany




                          References             
                                                 
          TURBOMOLE:                             
              R. Ahlrichs, M. Baer, M. Haeser, H. Horn, and
              C. Koelmel
              Electronic structure calculations on workstation
              computers: the program system TURBOMOLE
              Chem. Phys. Lett. 162: 165 (1989)
          Density Functional:                              
              O. Treutler and R. Ahlrichs                      
              Efficient Molecular Numerical Integration Schemes
              J. Chem. Phys. 102: 346 (1995)                   
          Parallel Version:                                
              Performance of parallel TURBOMOLE for Density    
              Functional Calculations                          
              M. v. Arnim and R. Ahlrichs                      
              J. Comp. Chem. 19: 1746 (1998)                   
                                         




              +--------------------------------------------------+
              | Atomic coordinate, charge and isotop information |
              +--------------------------------------------------+

                    atomic coordinates            atom    charge  isotop
         11.75409655   -2.40373164   -0.19464179    c      6.000     0
         12.01109930    0.16251645   -0.12661165    c      6.000     0
          9.86437041    1.80657818   -0.31180481    c      6.000     0
          7.41339562    0.69163976   -0.57447674    c      6.000     0
          7.14694423   -1.98232271   -0.66329387    c      6.000     0
          9.32390874   -3.57536184   -0.45353427    c      6.000     0
          4.71108725   -3.08214332   -0.90706854    c      6.000     0
          9.01399365   -6.20397089   -0.50077743    c      6.000     0
          6.62537982   -7.32646822   -0.72754456    c      6.000     0
          4.43707696   -5.75043662   -0.94486307    c      6.000     0
          6.28333939  -10.01365878   -0.73699319    c      6.000     0
          3.93440981  -11.06812596   -0.89950964    c      6.000     0
          1.70453297   -9.53744779   -1.06580554    c      6.000     0
          1.98988162   -6.85025723   -1.09415143    c      6.000     0
         -0.17763426   -5.27989482   -1.26233706    c      6.000     0
          0.09637603   -2.60026316   -1.26422678    c      6.000     0
          2.53601247   -1.50233228   -1.12627678    c      6.000     0
          5.24776947    2.26389191   -0.77667744    c      6.000     0
          2.80246386    1.16407130   -1.01856239    c      6.000     0
          0.63305825    2.73443371   -1.15651239    c      6.000     0
         -1.80279873    1.63650283   -1.33414665    c      6.000     0
         -2.07491929   -1.02990074   -1.34926446    c      6.000     0
         -2.62293987   -6.37593597   -1.31902884    c      6.000     0
         -4.79990438   -4.80179410   -1.37005145    c      6.000     0
         -4.52967354   -2.13350080   -1.44375077    c      6.000     0
         -0.72565484  -10.58246634   -1.15840212    c      6.000     0
         -2.89317071   -9.06312653   -1.26044733    c      6.000     0
         -7.27166616   -5.89972499   -1.38894871    c      6.000     0
         -9.39193888   -4.31424476   -1.43241241    c      6.000     0
         -9.16517174   -1.67618708   -1.46642748    c      6.000     0
         -6.70285859   -0.56124866   -1.45130967    c      6.000     0
         -3.98732214    3.21064470   -1.35115419    c      6.000     0
         -6.43073803    2.11082409   -1.44186104    c      6.000     0
         -5.39138866  -10.11003481   -1.29257267    c      6.000     0
         -7.48142576   -8.60014363   -1.34737473    c      6.000     0
         -8.61904089    3.69819404   -1.42863296    c      6.000     0
        -11.06056706    2.52845357   -1.46453775    c      6.000     0
        -11.32323899   -0.03779452   -1.47776584    c      6.000     0
         -8.31101553    6.32680309   -1.36627199    c      6.000     0
         -5.91673252    7.44930042   -1.28123432    c      6.000     0
         -3.71709130    5.87704827   -1.27745487    c      6.000     0
         -1.27367541    6.97686888   -1.09415143    c      6.000     0
          0.90328909    5.41028592   -1.04879800    c      6.000     0
          3.34103580    6.50632708   -0.82203087    c      6.000     0
          5.51044140    4.93218521   -0.65195552    c      6.000     0
          7.97086483    6.02822636   -0.40629112    c      6.000     0
         10.08546837    4.44274614   -0.23810549    c      6.000     0
          8.17306552    8.72864501   -0.31936372    c      6.000     0
          3.59803856    9.19351764   -0.69541922    c      6.000     0
          6.08680787   10.23853619   -0.45920345    c      6.000     0
         -0.99588567    9.66405944   -0.98454732    c      6.000     0
          1.42863296   10.70907800   -0.79557470    c      6.000     0
         -5.58036127   10.13649098   -1.18107883    c      6.000     0
         -3.23143169   11.19284789   -1.04312883    c      6.000     0
         13.40760691   -3.61315637   -0.04535343    h      1.000     0
         13.87058982    1.01100348    0.06991987    h      1.000     0
         10.67317320   -7.40772644   -0.34204043    h      1.000     0
          7.94629839  -11.20985542   -0.59526373    h      1.000     0
          3.71331185  -13.11280964   -0.88817128    h      1.000     0
         -0.93919389  -12.62715002   -1.12249732    h      1.000     0
        -11.26843693   -5.15706262   -1.44186104    h      1.000     0
         -5.59169963  -12.15471849   -1.25855760    h      1.000     0
         -9.35981354   -9.43351286   -1.36060282    h      1.000     0
        -12.72163633    3.73976802   -1.47020693    h      1.000     0
        -13.19406786   -0.88817128   -1.49288364    h      1.000     0
         -9.97964371    7.52866891   -1.35871309    h      1.000     0
         11.95062806    5.28556399   -0.04346370    h      1.000     0
         10.04200467    9.56012451   -0.13228083    h      1.000     0
          6.28144967   12.28321986   -0.37983495    h      1.000     0
          1.63461310   12.75376167   -0.70864730    h      1.000     0
         -7.25276890   11.32890817   -1.20753500    h      1.000     0
         -3.01600291   13.23564183   -0.96187060    h      1.000     0
 
       center of nuclear mass  :    0.35432173    0.06399501   -0.99954565
       center of nuclear charge:    0.35405843    0.06395231   -0.99482477

              +--------------------------------------------------+
              |               basis set information              |
              +--------------------------------------------------+

              we will work with the 1s 3p 5d 7f 9g ... basis set
              ...i.e. with spherical basis functions...

   type   atoms  prim   cont   basis
   ---------------------------------------------------------------------------
    c       54     77     55   cc-pVQZ   [5s4p3d2f1g|21s6p3d2f1g]
    h       18     32     30   cc-pVQZ   [4s3p2d1f|6s3p2d1f]
   ---------------------------------------------------------------------------
   total:   72   4734   3510
   ---------------------------------------------------------------------------

   total number of primitive shells          :   45
   total number of contracted shells         :  990
   total number of cartesian basis functions : 4410
   total number of SCF-basis functions       : 3510


 integral neglect threshold       :  0.76E-14
 integral storage threshold THIZE :  0.10E-04
 integral storage threshold THIME :         5


 DENSITY CONVERGENCE CHECK SWITCHED ON !
 SCF CONVERGENCE IF RMS(delta[D]) <     0.1000000000E-06


 symmetry group of the molecule :   c1 

 the group has the following generators :
   c1(z)

    1 symmetry operations found

 there are 1 real representations :   a   

 maximum number of shells which are related by symmetry :  1


    mo occupation :
   irrep   mo's   occupied
    a     3510      171
 
 number of basis functions   :                   3510
 number of occupied orbitals :                    171
 

 automatic virtual orbital shift switched on 
      shift if e(lumo)-e(homo) < 0.10000000    


          ------------------------
          nuclear repulsion energy  :   6437.57038238    
          ------------------------


         -----------------
         -S,T+V- integrals
         -----------------

 1e-integrals will be neglected if expon. factor < 0.757814E-15
 
   Difference densities algorithm switched on.
   The maximal number of linear combinations of
   difference densities is                    20 .

 DIIS switched on: error vector is FDS-SDF
 Max. Iterations for DIIS is     :   5
 DIIS matrix (see manual) 
    Scaling factor of diagonals  :  1.200
    threshold for scaling factor :  0.000

 scf convergence criterion : increment of total energy < .1000000D-08
                  and increment of one-electron energy < .1000000D-05

  MOs are in ASCII format !


 reading orbital data $scfmo  from file mos
 orbital characterization : scfconv=9

 DSCF restart information will be dumped onto file mos

 
                                              current damping :  0.700
 ITERATION  ENERGY          1e-ENERGY        2e-ENERGY     RMS[dD(SAO)]   TOL
   1  -2055.9603037380    -15618.205974     7124.6752876    0.000D+00 0.756D-14
          max. resid. norm for Fia-block=  1.022D-01 for orbital     36a         
          max. resid. fock norm         =  2.286D-01 for orbital   3493a         
          Delta Eig. =    22.3181239701 eV 
 
                                              current damping :  0.650
 ITERATION  ENERGY          1e-ENERGY        2e-ENERGY     RMS[dD(SAO)]   TOL
   2  -2056.3352255167    -15610.042175     7116.1365674    0.443D-02 0.619D-14
          Norm of current diis error:  1.7407    
          max. resid. norm for Fia-block=  4.914D-02 for orbital     36a         
          max. resid. fock norm         =  8.284D-02 for orbital   3493a         
          Delta Eig. =     9.7933722543 eV 
 
                                              current damping :  0.600
 ITERATION  ENERGY          1e-ENERGY        2e-ENERGY     RMS[dD(SAO)]   TOL
   3  -2056.4124197343    -15610.253920     7116.2711182    0.138D-02 0.401D-14
          Norm of current diis error: 0.76818    
          max. resid. norm for Fia-block=  2.031D-02 for orbital     36a         
          max. resid. fock norm         =  3.335D-02 for orbital   3493a         
          Delta Eig. =     3.8441032760 eV 
 
                                              current damping :  0.650
 ITERATION  ENERGY          1e-ENERGY        2e-ENERGY     RMS[dD(SAO)]   TOL
   4  -2056.4285193359    -15609.519703     7115.5208008    0.780D-03 0.316D-14
          Norm of current diis error: 0.31593    
          max. resid. norm for Fia-block=  7.625D-03 for orbital     36a         
          max. resid. fock norm         =  1.282D-02 for orbital   3493a         
          Delta Eig. =     1.3984025690 eV 
 
                                              current damping :  0.500
 ITERATION  ENERGY          1e-ENERGY        2e-ENERGY     RMS[dD(SAO)]   TOL
   5  -2056.4313831863    -15609.407517     7115.4057516    0.392D-03 0.282D-14
          Norm of current diis error: 0.13691    
          max. resid. norm for Fia-block=  3.355D-03 for orbital    162a         
          max. resid. fock norm         =  4.966D-03 for orbital   3497a         
 mo-orthogonalization: Cholesky decomposition
          Delta Eig. =     0.5986876857 eV 
 
                                              current damping :  0.350
 ITERATION  ENERGY          1e-ENERGY        2e-ENERGY     RMS[dD(SAO)]   TOL
   6  -2056.4320313137    -15609.282352     7115.2799383    0.251D-03 0.258D-14
          Norm of current diis error: 0.54863E-01
          max. resid. norm for Fia-block=  1.645D-03 for orbital    166a         
          max. resid. fock norm         =  1.690D-03 for orbital   3493a         
          Delta Eig. =     0.2236869200 eV 
 
                                              current damping :  0.200
 ITERATION  ENERGY          1e-ENERGY        2e-ENERGY     RMS[dD(SAO)]   TOL
   7  -2056.4321767983    -15609.267844     7115.2652852    0.127D-03 0.240D-14
          Norm of current diis error: 0.22212E-01
          max. resid. norm for Fia-block=  9.211D-04 for orbital    168a         
          max. resid. fock norm         =  9.267D-04 for orbital    168a         
          Delta Eig. =     0.0678916197 eV 
 
                                              current damping :  0.050
 ITERATION  ENERGY          1e-ENERGY        2e-ENERGY     RMS[dD(SAO)]   TOL
   8  -2056.4322158337    -15609.242159     7115.2395612    0.717D-04 0.225D-14
          Norm of current diis error: 0.10562E-01
          max. resid. norm for Fia-block=  5.154D-04 for orbital    166a         
          max. resid. fock norm         =  5.901D-04 for orbital    174a         
          Delta Eig. =     0.0199234314 eV 
 
                                              current damping :  0.100
 ITERATION  ENERGY          1e-ENERGY        2e-ENERGY     RMS[dD(SAO)]   TOL
   9  -2056.4322285298    -15609.259842     7115.2572307    0.339D-04 0.214D-14
          Norm of current diis error: 0.53547E-02
          max. resid. norm for Fia-block=  3.304D-04 for orbital    168a         
          max. resid. fock norm         =  3.403D-04 for orbital    168a         
          Delta Eig. =     0.0091345085 eV 
 
                                              current damping :  0.150
 ITERATION  ENERGY          1e-ENERGY        2e-ENERGY     RMS[dD(SAO)]   TOL
  10  -2056.4322312662    -15609.238359     7115.2357454    0.206D-04 0.207D-14
          Norm of current diis error: 0.32284E-02
          max. resid. norm for Fia-block=  1.458D-04 for orbital    171a         
          max. resid. fock norm         =  1.802D-04 for orbital    174a         
 mo-orthogonalization: Cholesky decomposition
          Delta Eig. =     0.0058466852 eV 
 
                                              current damping :  0.200
 ITERATION  ENERGY          1e-ENERGY        2e-ENERGY     RMS[dD(SAO)]   TOL
  11  -2056.4322319583    -15609.250464     7115.2478501    0.493D-05 0.203D-14
          Norm of current diis error: 0.10132E-02
          max. resid. norm for Fia-block=  7.468D-05 for orbital    168a         
          max. resid. fock norm         =  7.518D-05 for orbital    168a         
          Delta Eig. =     0.0012690821 eV 
 
                                              current damping :  0.250
 ITERATION  ENERGY          1e-ENERGY        2e-ENERGY     RMS[dD(SAO)]   TOL
  12  -2056.4322320648    -15609.248785     7115.2461703    0.360D-05 0.200D-14
          Norm of current diis error: 0.30523E-03
          max. resid. norm for Fia-block=  2.046D-05 for orbital    168a         
          max. resid. fock norm         =  2.195D-05 for orbital    174a         
          Delta Eig. =     0.0002159509 eV 
 
                                              current damping :  0.100
 ITERATION  ENERGY          1e-ENERGY        2e-ENERGY     RMS[dD(SAO)]   TOL
  13  -2056.4322320751    -15609.248596     7115.2459813    0.998D-06 0.197D-14
          Norm of current diis error: 0.12824E-03
          max. resid. norm for Fia-block=  7.717D-06 for orbital    168a         
          max. resid. fock norm         =  7.756D-06 for orbital    168a         
          Delta Eig. =     0.0001039710 eV 
 
                                              current damping :  0.150
 ITERATION  ENERGY          1e-ENERGY        2e-ENERGY     RMS[dD(SAO)]   TOL
  14  -2056.4322320767    -15609.248753     7115.2461388    0.283D-06 0.194D-14
          Norm of current diis error: 0.56577E-04
          max. resid. norm for Fia-block=  2.613D-06 for orbital    164a         
          max. resid. fock norm         =  2.741D-06 for orbital    164a         
          Delta Eig. =     0.0000458804 eV 

 DENSITY CONVERGED !

 
                                              current damping :  0.200
 ITERATION  ENERGY          1e-ENERGY        2e-ENERGY     RMS[dD(SAO)]   TOL
  15  -2056.4322320767    -15609.248679     7115.2460643    0.994D-07 0.191D-14
          Norm of current diis error: 0.23332E-04
          max. resid. norm for Fia-block=  1.102D-06 for orbital    163a         
          max. resid. fock norm         =  1.104D-06 for orbital    163a         
 mo-orthogonalization: Cholesky decomposition
          Delta Eig. =     0.0000155070 eV 

 ENERGY & DENSITY CONVERGED !

 
                                              current damping :  0.250
 ITERATION  ENERGY          1e-ENERGY        2e-ENERGY     RMS[dD(SAO)]   TOL
  16  -2056.4322320768    -15609.248679     7115.2460647    0.340D-07 0.186D-14
          max. resid. norm for Fia-block=  3.419D-07 for orbital    162a         
          max. resid. fock norm         =  4.181D-07 for orbital    518a         

 convergence criteria satisfied after    16 iterations


                  ------------------------------------------ 
                 |  total energy      =  -2056.43223207675  |
                  ------------------------------------------ 
                 :  kinetic energy    =   2053.65136680517  :
                 :  potential energy  =  -4110.08359888193  :
                 :  virial theorem    =      1.99864772336  :
                 :  wavefunction norm =      1.00000000000  :
                  .......................................... 


 orbitals $scfmo  will be written to file mos

    irrep                167a        168a        169a        170a        171a   
 eigenvalues H         -0.29725    -0.28280    -0.28267    -0.22396    -0.22365
            eV          -8.0887     -7.6955     -7.6919     -6.0943     -6.0859
 occupation              2.0000      2.0000      2.0000      2.0000      2.0000 

    irrep                172a        173a        174a        175a        176a   
 eigenvalues H          0.01427     0.01447     0.06569     0.06579     0.08863
            eV           0.3882      0.3938      1.7874      1.7904      2.4117
 
 
 
 
 ==============================================================================
                           electrostatic moments
 ==============================================================================

 reference point for electrostatic moments:    0.00000   0.00000   0.00000

 
              nuc           elec       ->  total
 ------------------------------------------------------------------------------
                          charge      
 ------------------------------------------------------------------------------
         342.000000    -342.000000      -0.000000
 
 ------------------------------------------------------------------------------
                       dipole moment  
 ------------------------------------------------------------------------------
   x     121.087981    -121.100944      -0.012963
   y      21.871690     -21.873920      -0.002230
   z    -340.230072     340.391498       0.161426
 
   | dipole moment | =     0.1620 a.u. =     0.4117 debye 
 
 ------------------------------------------------------------------------------
                     quadrupole moment
 ------------------------------------------------------------------------------
  xx   14411.043170  -14602.905148    -191.861978
  yy   14428.680548  -14620.283006    -191.602458
  zz     393.037426    -633.179066    -240.141640
  xy      -6.211821       6.181542      -0.030279
  xz     704.983990    -702.348951       2.635039
  yz     134.407700    -134.000381       0.407319
 
     1/3  trace=    -207.868692
     anisotropy=      48.629759
 
 ==============================================================================
 


    ------------------------------------------------------------------------
         total  cpu-time :  19 days  0 hours  1 minutes and 18 seconds
         total wall-time : 16 hours 41 minutes and  2 seconds
    ------------------------------------------------------------------------

   ****  dscf : all done  ****


    2019-03-31 04:54:03.766 

