
   OpenMP run-time library returned nthreads = 28

 ricc2 (c-15-41) : TURBOMOLE V7.3 ( 22142 ) 4 Jul 2018 at 18:12:42
 Copyright (C) 2018 TURBOMOLE GmbH, Karlsruhe


    2019-04-01 23:53:57.558 



                              R I C C 2 - PROGRAM

                          the quantum chemistry groups
                             at the universities in
                           Karlsruhe, Bochum & Mainz
                                   Germany



   *-----------------------------------------------------------------------*
   |                     program will use 28 thread(s)                     |
   *-----------------------------------------------------------------------*


              +--------------------------------------------------+
              | Atomic coordinate, charge and isotop information |
              +--------------------------------------------------+

                    atomic coordinates            atom    charge  isotop
         -1.15379604    0.42991855   -0.32239119    c      0.000     0
          0.20292835    1.62787817   -1.19848177    h      0.000     0
         -2.61968147   -0.99272133    0.71804590    c      0.000     0
         -3.93195928   -2.21866583    1.61454302    h      0.000     0
          5.35633348   -1.21212963    0.88049149    c      6.000     0
          4.87600467    0.59464177   -0.44012046    o      8.000     0
          3.56505335   -2.67542059    1.95326370    o      8.000     0
          1.93800031   -1.98132610    1.44724958    h      1.000     0
          7.95590718   -2.12193796    1.54218081    c      6.000     0
          9.35125414   -0.91714289    0.65240265    h      1.000     0
          8.19441049   -2.09953577    3.58315179    h      1.000     0
          8.18697749   -4.06428265    0.91245919    h      1.000     0
 
       center of nuclear mass  :    3.17983419   -1.04339464    0.75649918
       center of nuclear charge:    5.47101720   -1.42852886    1.03863884

              +--------------------------------------------------+
              |               basis set information              |
              +--------------------------------------------------+

              we will work with the 1s 3p 5d 7f 9g ... basis set
              ...i.e. with spherical basis functions...

   type   atoms  prim   cont   basis
   ---------------------------------------------------------------------------
    c        4     77     55   cc-pVQZ   [5s4p3d2f1g|21s6p3d2f1g]
    h        6     32     30   cc-pVQZ   [4s3p2d1f|6s3p2d1f]
    o        2     77     55   cc-pVQZ   [5s4p3d2f1g|21s6p3d2f1g]
   ---------------------------------------------------------------------------
   total:   12    654    510
   ---------------------------------------------------------------------------

   total number of primitive shells          :   78
   total number of contracted shells         :  150
   total number of cartesian basis functions :  630
   total number of SCF-basis functions       :  510


 symmetry group of the molecule :   c1 

 the group has the following generators :
   c1(z)

    1 symmetry operations found

 there are 1 real representations :   a   


   =========================================================================


     restricted closed shell calculation for the wavefunction models:
               MP2        - Second Order Moeller Plesset PT


     global parameters for ricc2 program:

        hard restart (reuse of interm.) :  disabled
        soft restart (reuse of vectors) :  disabled
        threshold for vector function   :    0.100000E-05
        convergence threshold energy    :    0.100000E-06
        linear dependence threshold     :    0.100000E-13
        global print level              :      1
        maximum number of iterations    :   300
        maximum number DIIS vectors     :    10
        max. dim. of reduced space      :   100
        core memory limit (MB)          : *****


     MP2 energy only: Energy will be calculated directly from T2 amplitudes!

     Scratch Directory : 


   =========================================================================

    der. integral neglect threshold  :  0.10E-07
    integral neglect threshold       :  0.53E-11
    integral storage threshold THIZE :  0.10E-04
    integral storage threshold THIME :         5


                  +------------------------------------------+
                  |     Auxiliary basis set information      |
                  +------------------------------------------+

              we will work with the 1s 3p 5d 7f 9g ... basis set
              ...i.e. with spherical basis functions...

   type   atoms  prim   cont   basis
   ---------------------------------------------------------------------------
    c        4    132    132   cc-pVQZ   [8s7p6d5f3g1h|8s7p6d5f3g1h]
    h        6     55     55   cc-pVQZ   [5s4p3d2f1g|5s4p3d2f1g]
    o        2    132    132   cc-pVQZ   [8s7p6d5f3g1h|8s7p6d5f3g1h]
   ---------------------------------------------------------------------------
   total:   12   1122   1122
   ---------------------------------------------------------------------------

   total number of primitive shells          :   75
   total number of contracted shells         :  270
   total number of cartesian basis functions : 1506
   total number of SCF-basis functions       : 1122


 maximum number of shells which are related by symmetry :  1


 The symmetry information takes   1 MB

*---------------------------------------------------------------------*
|               simplified C1 algorithm will be applied               |
*---------------------------------------------------------------------*
  MOs are in ASCII format !


 reading orbital data $scfmo  from file mos
 orbital characterization : scfconv=9



              +--------------------------------------------+
              | list of orbitals that will be kept frozen: |
              +--------------------------------------------+
              |   irrep   index      energy     occ/vir    |
              +--------------------------------------------+
              |   a         1      -20.6140     occupied   |
              |   a         2      -20.5477     occupied   |
              |   a         3      -11.3887     occupied   |
              |   a         4      -11.2439     occupied   |
              +--------------------------------------------+



   Molecular Orbital Statistic:
   ============================

   -----------------------------
   orbitals in total:
   -----------------------------
    frozen occupied :      4
    active occupied :     12
    active virtual  :    494
    frozen virtual  :      0
    all together    :    510
   -----------------------------


     time in riccmos       cpu:  4.88 sec    wall:  0.35 sec    ratio: 14.1

     total memory allocated for calculation of (Q|P)**(-1/2) : 15 MiB


     calculation of (P|Q) ...
     time in lp2sym        cpu:  2.43 sec    wall:  0.09 sec    ratio: 26.1


     calculation of the Cholesky decomposition of (P|Q)**(-1) ...
     time in invmetri      cpu:  4.70 sec    wall:  0.17 sec    ratio: 27.8

   threshold for RMS(d[D]) in SCF was     :  0.10E-06
   integral neglect threshold             :  0.53E-11
   derivative integral neglect threshold  :  0.10E-07


   =========================================================================

     Energy of reference wave function is  -227.9190863218000
     Maximum orbital residual is           0.2417811211467E-05


     Number of symmetry-nonredundant auxiliary basis functions:     1122

     Block lengths for integral files:
        frozen occupied (BOI):        1 MiB
        active occupied (BJI):        1 MiB
        active virtual  (BAI):        5 MiB
        frozen virtual  (BGI):        0 MiB
               general  (BTI):        5 MiB

   =========================================================================




   **************************************************************************
   *                                                                        *
   *          OPTIMIZATION OF THE GROUND STATE CLUSTER AMPLITUDES           *
   *                                                                        *
   **************************************************************************


   Iter.   MP2 energy       Norm(Omega)   Norm(t1)  Norm(t2)     cpu    wall
   ...........................................................................
    1   -228.7798983774     ------          0.00000   0.28071    0.36    0.01
   ...........................................................................


     time in total         cpu: 21.91 sec    wall:  0.82 sec    ratio: 26.9


     **********************************************************************
     *                                                                    *
     *   RHF  energy                             :   -227.9190863218      *
     *   MP2 correlation energy (doubles)        :     -0.8608120556      *
     *                                                                    *
     *   Final MP2 energy                        :   -228.7798983774      *
     *                                                                    *
     *    E(S)   =     -0.5474973483      E(T)   =     -0.3133147073      *
     *    E(OS)  =     -0.6519355840      E(SS)  =     -0.2088764716      *
     *                                                                    *
     *   SCS-MP2 energy                          :   -228.7710345132      *
     *   (computed with  C(OS) =   1.2000  and  C(SS) =   0.3333)         *
     *                                                                    *
     *   SOS-MP2 energy                          :   -228.7666025810      *
     *   (computed with  C(OS) =   1.3000)                                *
     *                                                                    *
     *   Norm of MP1 T2 amplitudes               :      0.2807143498      *
     *                                                                    *
     **********************************************************************



    ------------------------------------------------------------------------
         total  cpu-time :  1 minutes and 14 seconds
         total wall-time :   3.11 seconds
    ------------------------------------------------------------------------

   ****  ricc2 : all done  ****


    2019-04-01 23:54:00.594 

