
 eiger (gplogin2.gp.local) : TURBOMOLE V7.2 ( 21285 ) 30 Jun 2017 at 11:51:10
 Copyright (C) 2017 TURBOMOLE GmbH, Karlsruhe


    2017-12-08 13:27:10.033 

                                                                                
  
 HOMO-LUMO Separation
   HOMO:   220.   220 a     -0.06819118 H =     -1.85558 eV
   LUMO:   221.   221 a     +0.03421642 H =     +0.93108 eV
   Gap :                    +0.10240760 H =     +2.78665 eV
 
Number of MOs=   2654, Electrons=    440.00, Symmetry: c1   
 
   Nr.   Orbital    Occupation       Energy
  237.   237 a                     +0.127414 H =        +3.467 eV
  236.   236 a                     +0.124509 H =        +3.388 eV
  235.   235 a                     +0.120730 H =        +3.285 eV
  234.   234 a                     +0.117890 H =        +3.208 eV
  233.   233 a                     +0.114612 H =        +3.119 eV
  232.   232 a                     +0.113475 H =        +3.088 eV
  231.   231 a                     +0.110501 H =        +3.007 eV
  230.   230 a                     +0.107554 H =        +2.927 eV
  229.   229 a                     +0.105430 H =        +2.869 eV
  228.   228 a                     +0.104215 H =        +2.836 eV
  227.   227 a                     +0.098458 H =        +2.679 eV
  226.   226 a                     +0.097689 H =        +2.658 eV
  225.   225 a                     +0.091766 H =        +2.497 eV
  224.   224 a                     +0.088718 H =        +2.414 eV
  223.   223 a                     +0.082277 H =        +2.239 eV
  222.   222 a                     +0.034228 H =        +0.931 eV
  221.   221 a                     +0.034216 H =        +0.931 eV
  220.   220 a        2.000        -0.068191 H =        -1.856 eV
  219.   219 a        2.000        -0.080467 H =        -2.190 eV
  218.   218 a        2.000        -0.087220 H =        -2.373 eV
  217.   217 a        2.000        -0.094085 H =        -2.560 eV
  216.   216 a        2.000        -0.100781 H =        -2.742 eV
  215.   215 a        2.000        -0.103131 H =        -2.806 eV
  214.   214 a        2.000        -0.109417 H =        -2.977 eV
  213.   213 a        2.000        -0.112893 H =        -3.072 eV
  212.   212 a        2.000        -0.115887 H =        -3.153 eV
  211.   211 a        2.000        -0.116883 H =        -3.181 eV
  210.   210 a        2.000        -0.121258 H =        -3.300 eV
  209.   209 a        2.000        -0.122395 H =        -3.331 eV
  208.   208 a        2.000        -0.125304 H =        -3.410 eV
  207.   207 a        2.000        -0.128514 H =        -3.497 eV
  206.   206 a        2.000        -0.140203 H =        -3.815 eV
  205.   205 a        2.000        -0.142680 H =        -3.883 eV


    ------------------------------------------------------------------------
         total  cpu-time :   2.99 seconds
         total wall-time :   3.46 seconds
    ------------------------------------------------------------------------

   ****  eiger : all done  ****


    2017-12-08 13:27:13.431 

