Using Slurm to start processes with PMI2
STARTING ridft ON 8 PROCESSORS!
RUNNING PROGRAM /beegfs/modfac/apps/TURBOMOLE/7.0_intel_GA/bin/em64t-unknown-linux-gnu_mpi/ridft_mpi.
PLEASE WAIT UNTIL ridft HAS FINISHED.
Look for the output in slave1.output.
  this is node-proc. number 1 running on node c-7-7.local
  the total number of node-proc. spawned is            8
  parallel platform: MPP, or cluster with fast interconnect

 ridft (c-7-7.local) : TURBOMOLE V7.0.2( ) 15 Jan 2016 at 17:47:42
 Copyright (C) 2016 TURBOMOLE GmbH, Karlsruhe


    2018-02-01 20:16:04.713 



                                  r i d f t

                        DFT program with RI approximation 
                                for coulomb part 




                                                 
                                 References:     
                                                 
          TURBOMOLE:                             
              R. Ahlrichs, M. Baer, M. Haeser, H. Horn, and
              C. Koelmel
              Electronic structure calculations on workstation
              computers: the program system TURBOMOLE
              Chem. Phys. Lett. 162: 165 (1989)
          Density Functional:                              
              O. Treutler and R. Ahlrichs                      
              Efficient Molecular Numerical Integration Schemes
              J. Chem. Phys. 102: 346 (1995)                   
          Parallel Version:                                
              Performance of parallel TURBOMOLE for Density    
              Functional Calculations                          
              M. v. Arnim and R. Ahlrichs                      
              J. Comp. Chem. 19: 1746 (1998)                   
          RI-J Method:                                     
              Auxiliary Basis Sets to approximate Coulomb      
              Potentials                                       
              Chem. Phys. Lett. 240: 283 (1995)                
              K. Eichkorn, O. Treutler, H. Oehm, M. Haeser     
              and R. Ahlrichs                                  
              Chem. Phys. Lett. 242: 652 (1995)                
                                                           
              Auxiliary Basis Sets for Main Row Atoms and their
              Use to approximate Coulomb Potentials            
              K. Eichkorn, F. Weigend, O. Treutler and         
              R. Ahlrichs                                      
              Theo. Chem. Acc. 97: 119 (1997)                   
                                                           
              Accurate Coulomb-fitting basis sets for H to Rn 
              F. Weigend                                        
              Phys. Chem. Chem. Phys. 8: 1057 (2006)            
                                                           
          Multipole accelerated RI-J (MARI-J):             
              Fast evaluation of the Coulomb potential for     
              electron densities using multipole accelerated   
              resolution of identity approximation             
              M. Sierka, A. Hogekamp and R. Ahlrichs           
              J. Chem. Phys. 118: 9136 (2003)                  
          RI-JK Method:                                     
              A fully direct RI-HF algorithm: Implementation,
              optimised auxiliary basis sets, demonstration of
              accuracy and efficiency                         
              F. Weigend                                      
              Phys. Chem. Chem. Phys. 4: 4285 (2002)           
          Two-component HF and DFT with spin-orbit coupling:  
              Self-consistent treatment of spin-orbit         
              interactions with efficient Hartree-Fock and    
              density functional methods                      
              M. K. Armbruster, F. Weigend, C. van Wüllen and 
              W. Klopper                                      
              Phys. Chem. Chem. Phys. 10: 1748 (2008)         
          Relativistic all-electron 2c calculations           
              An efficient implementation of two-component    
              relativistic exact-decoupling methods for large 
              molecules                                       
              D. Peng, N. Middendorf, F. Weigend, M. Reiher   
              J. Chem. Phys. 138, 184105 (2013)               
                                         


 


              +--------------------------------------------------+
              |      general information about current run       |
              +--------------------------------------------------+

 

 SCF run will be profiled !


 DENSITY CONVERGENCE CHECK SWITCHED ON !
 SCF CONVERGENCE IF RMS(delta[D]) <     0.1000000000E-06

 TPSS meta-GGA functional
 exchange:    LDA + TPSS
 correlation: LDA (PW) + TPSS
 A DFT calculation using the RI-J approximation will be carried out.
 Allocatable memory for RI due to $ricore (MB):        5000


              +--------------------------------------------------+
              | Atomic coordinate, charge and isotop information |
              +--------------------------------------------------+

                    atomic coordinates            atom    charge  isotop
         -7.79991642  -15.63473798  -28.77086683    c      6.000     0
         -9.44353596  -14.51838793  -30.51957404    c      6.000     0
        -11.44494113  -15.96913824  -31.47011385    c      6.000     0
        -11.83016747  -18.44314880  -30.64699828    c      6.000     0
        -10.20612172  -19.51516020  -28.86723342    c      6.000     0
         -8.17614389  -18.10903766  -27.94535698    c      6.000     0
         -9.10964214  -11.79216130  -31.29037444    c      6.000     0
        -10.76593230   -9.93795446  -29.70435186    c      6.000     0
        -10.23232277   -7.21451328  -30.57516034    c      6.000     0
        -15.00213704  -11.41694673  -28.34230151    c      6.000     0
        -17.75826292  -11.67498127  -29.09072755    c      6.000     0
         -8.45505046   -5.97168765  -29.21782297    n      7.000     0
        -13.45629382  -10.37980455  -30.09464456    n      7.000     0
        -14.23775604  -12.17240254  -26.25344927    o      8.000     0
        -11.31875089   -6.33839467  -32.44551489    o      8.000     0
        -18.20305154  -13.68801204  -29.26426677    h      1.000     0
         -8.06460658   -4.16154922  -29.69971447    h      1.000     0
        -18.93931529  -10.89740432  -27.58397142    h      1.000     0
        -18.21795392  -10.73345357  -30.87238024    h      1.000     0
        -14.18139307   -9.56058182  -31.67411167    h      1.000     0
        -10.36090729  -10.18408940  -27.69687689    h      1.000     0
         -9.59015981  -11.52559464  -33.28767134    h      1.000     0
         -7.13695136  -11.21816644  -31.04095704    h      1.000     0
        -12.71235777  -15.14211094  -32.86020017    h      1.000     0
         -6.21401668  -14.54920559  -28.04155916    h      1.000     0
        -13.39752144  -19.53709425  -31.39879558    h      1.000     0
         -6.89874194  -18.93093247  -26.56472118    h      1.000     0
        -10.51402235  -21.43415441  -28.20806671    h      1.000     0
         -7.88050568   -6.63699975  -27.49829502    h      1.000     0
         -7.50192929   -9.30448991  -22.21948869    c      6.000     0
         -9.16726367  -11.38555271  -21.06400242    c      6.000     0
        -13.52984574  -10.67571677  -19.59037130    c      6.000     0
         -8.42156073  -13.95719218  -22.27847649    c      6.000     0
         -9.78992654  -16.17059628  -21.11087518    c      6.000     0
        -12.17392377  -16.90590950  -22.00286749    c      6.000     0
        -13.47907824  -18.88276713  -20.84310666    c      6.000     0
        -12.42088830  -20.15587374  -18.78919923    c      6.000     0
        -10.03294721  -19.46046775  -17.91232662    c      6.000     0
         -8.72943680  -17.48687368  -19.07354632    c      6.000     0
        -16.27005068  -10.44483381  -20.39504503    c      6.000     0
         -5.98438472   -9.66913714  -13.48222842    c      6.000     0
         -8.12955647  -11.25696440  -12.28853566    c      6.000     0
        -11.23039107   -8.07239037  -10.89627993    c      6.000     0
         -8.30495707  -13.90535700  -13.46890774    c      6.000     0
        -10.19384416  -15.60124636  -12.15632664    c      6.000     0
         -9.49419763  -17.01314012  -10.02942476    c      6.000     0
        -11.23189719  -18.57987805   -8.81531352    c      6.000     0
        -13.70395943  -18.75728742   -9.71946810    c      6.000     0
        -14.41915275  -17.36006550  -11.83882998    c      6.000     0
        -12.67723154  -15.79650420  -13.05012742    c      6.000     0
        -13.84125560   -6.96798150  -11.31479380    c      6.000     0
        -11.83168114  -10.85450754  -21.49583129    n      7.000     0
         -5.63554316   -8.44633882  -20.71677091    n      7.000     0
         -5.21765291   -7.72844887  -12.00351961    n      7.000     0
        -10.51759772   -9.88592085  -12.56467378    n      7.000     0
         -7.82268573   -8.56573739  -24.42375596    o      8.000     0
        -12.91885193  -10.66787063  -17.31889970    o      8.000     0
         -5.07159786  -10.13427244  -15.59103806    o      8.000     0
         -9.84877072   -7.38812431   -9.11977863    o      8.000     0
        -15.07104401   -7.59974907   -9.77453094    h      1.000     0
         -4.00798441   -6.43763553  -12.73573557    h      1.000     0
        -13.73083701   -4.90676650  -11.22751869    h      1.000     0
         -4.41531676   -7.15738497  -21.43228547    h      1.000     0
        -17.38537082  -11.81025165  -19.31735879    h      1.000     0
        -16.94974926   -8.55091438  -19.91036996    h      1.000     0
        -14.66786527   -7.55472635  -13.11450283    h      1.000     0
        -11.54870032  -10.19852502  -14.17397968    h      1.000     0
         -7.76770226  -11.41176132  -10.25645268    h      1.000     0
         -8.80074751  -13.72997718  -15.46489506    h      1.000     0
         -6.41696949  -14.74844130  -13.38533838    h      1.000     0
        -13.23217797  -14.73068166  -14.71515000    h      1.000     0
         -7.56582660  -16.89116964   -9.32378591    h      1.000     0
        -16.33630258  -17.49842557  -12.56202250    h      1.000     0
        -10.65528505  -19.66831305   -7.17176201    h      1.000     0
        -15.05895354  -19.98244979   -8.78175009    h      1.000     0
         -6.32640436   -7.24868709  -10.48716746    h      1.000     0
        -16.52885245  -10.77943061  -22.41528321    h      1.000     0
        -12.50097490  -11.07628391  -23.30021928    h      1.000     0
         -8.89567412  -11.45365277  -19.02179617    h      1.000     0
         -8.84094765  -13.84109308  -24.29905293    h      1.000     0
         -6.37360972  -14.18654825  -22.06882649    h      1.000     0
        -12.99822798  -15.92422512  -23.60664971    h      1.000     0
         -6.87055100  -16.94693924  -18.38277205    h      1.000     0
        -15.32761402  -19.43216910  -21.55019116    h      1.000     0
         -9.19848951  -20.43601430  -16.31150182    h      1.000     0
        -13.44691133  -21.68021754  -17.87415226    h      1.000     0
         -5.39500559   -9.04189924  -18.88738562    h      1.000     0
 
       center of nuclear mass  :  -10.63094704  -12.68301352  -20.69530559
       center of nuclear charge:  -10.66409229  -12.69801035  -20.69239988

              +--------------------------------------------------+
              |               basis set information              |
              +--------------------------------------------------+

              we will work with the 1s 3p 5d 7f 9g ... basis set
              ...i.e. with spherical basis functions...

   type   atoms  prim   cont   basis
   ---------------------------------------------------------------------------
    c       33     50     30   cc-pVTZ   [4s3p2d1f|18s5p2d1f]
    n        6     50     30   cc-pVTZ   [4s3p2d1f|18s5p2d1f]
    o        6     50     30   cc-pVTZ   [4s3p2d1f|18s5p2d1f]
    h       42     16     14   cc-pVTZ   [3s2p1d|5s2p1d]
   ---------------------------------------------------------------------------
   total:   87   2922   1938
   ---------------------------------------------------------------------------

   total number of primitive shells          :   86
   total number of contracted shells         :  702
   total number of cartesian basis functions : 2205
   total number of SCF-basis functions       : 1938


 integral neglect threshold       :  0.15E-13
 integral storage threshold THIZE :  0.10E-04
 integral storage threshold THIME :         5

 RI-J AUXILIARY BASIS SET information:

              we will work with the 1s 3p 5d 7f 9g ... basis set
              ...i.e. with spherical basis functions...

   type   atoms  prim   cont   basis
   ---------------------------------------------------------------------------
    c       33     70     49   cc-pVTZ   [6s4p3d1f1g|12s5p4d2f1g]
    n        6     70     49   cc-pVTZ   [6s4p3d1f1g|12s5p4d2f1g]
    o        6     70     49   cc-pVTZ   [6s4p3d1f1g|12s5p4d2f1g]
    h       42     16     11   cc-pVTZ   [3s1p1d|5s2p1d]
   ---------------------------------------------------------------------------
   total:   87   3822   2667
   ---------------------------------------------------------------------------

   total number of primitive shells          :   80
   total number of contracted shells         :  885
   total number of cartesian basis functions : 3249
   total number of SCF-basis functions       : 2667


 symmetry group of the molecule :   c1 

 the group has the following generators :
   c1(z)

    1 symmetry operations found

 there are 1 real representations :   a   

 maximum number of shells which are related by symmetry :  1


    mo occupation :
   irrep   mo's   occupied
    a     1938      165
 
 number of basis functions   :         1938
 number of occupied orbitals :          165
 
  
           ------------------
           density functional
           ------------------
 TPSS meta-GGA functional
 exchange:    LDA + TPSS
 correlation: LDA (PW) + TPSS
 grinp -> nfun, dfgga, dfhybrid 
           5 F F
 iterations will be done with small grid
  
 spherical integration : Lebedev's spherical grid
 spherical gridsize    :           5
    i.e. gridpoints    :         590
 value for diffuse not defined
 radial integration    : Chebyshev 2nd kind (scaling 3)
 radial gridsize       :           8
 integration cells     :          87
 partition function    : becke
 partition sharpness   :           3
  

 <rddim> : input of entry tasksize
           from data group '$pardft' failed !

               Default values taken

 <rddim> : input of entry memdiv
           from data group '$pardft' failed !

               Default values taken
  RIDFT: memory allocation for DFT gridpoints
  MEMORY is divided by 1 as DEFAULT
 Each node can hold at most  the            1 -th part
 of the gridpoints    

 biggest AO integral is expected to be     4.866064444
  
           ------------------------
               RI-J - INFORMATION
           ------------------------
 
 
 **************************************************
 *      MEMORY ALLOCATION FOR PARALLEL RI-DFT     *
 **************************************************
 
 
MEMORY FOR (MU NU/ ALPHA), SEQUENTIAL RUN               4943 MByte
 
            DIFFERENCE IN MEMORY NEED:       DIAG./SLAVE  
 
      TOTAL DIFFERENCE :                    207 MByte
 
      difference in xcore:                   58 MByte
      difference in fatmat:                  55 MByte
      getcor calls skipped by slaves:        95 MByte
 
 
           Integral memory available for diagonal.      4943 MByte
 
           Integral memory available for slave             0 MByte
 
         MEMORY FOR (MU NU/ ALPHA) ON DIAGONALIZER      4943 MByte
 
         MEMORY FOR (MU NU/ ALPHA) ON ONE SLAVE            0 MByte
 
         TOTAL MEMORY FOR (MU NU/ ALPHA),ALL NODES      4943 MByte
 
 Contributions to RI integral batches: 
  neglected integral batches:      134804
  direct contribution:              66213
  memory contribution:       45736
 Memory core needed for (P|Q) and Cholesky     55 MByte
 Memory core minimum needed except of (P|Q)     4 MByte
 Total minimum memory core needed (sum)        59 MByte
     number of direct tasks:         160
  
 ****************************************
 Memory allocated for RI-J  5002 MByte
 ****************************************
                                            

          ------------------------
          nuclear repulsion energy  :   5801.56966915    
          ------------------------

 
          -----------------
          -S integrals
          -----------------

 1e-integrals will be neglected if expon. factor < 0.151563E-14
 
          -----------------
          -T+V integrals
          -----------------

 1e-integrals will be neglected if expon. factor < 0.151563E-14
 Difference densities >>NOT<< switched on in parallel ridft!

 automatic virtual orbital shift switched on 
      shift if e(lumo)-e(homo) < 0.10000000    


 DIIS switched on: error vector is FDS-SDF
 Max. Iterations for DIIS is     :   4
 DIIS matrix (see manual) 
    Scaling factor of diagonals  :  1.200
    threshold for scaling factor :  0.000

 scf convergence criterion : increment of total energy < .1000000D-08
                  and increment of one-electron energy < .1000000D-05

  MOs are in ASCII format !


 reading orbital data $scfmo  from file mos . 

 orbital characterization : scfconv=9
 

 DSCF restart information will be dumped onto file mos


 Starting SCF iterations


 ITERATION  ENERGY          1e-ENERGY        2e-ENERGY     RMS[dD(SAO)]   TOL
   1  -2063.8830025925    -14362.542496     6497.0898246    0.000D+00 0.151D-13
                            Exc = -288.567742651     Coul =  6785.65756724    
                              N = 329.99985861    
                            current damping = 0.700
 
          max. resid. norm for Fia-block=  1.447D-06 for orbital    148a         
          max. resid. fock norm         =  2.502D-06 for orbital   1902a         

 ITERATION  ENERGY          1e-ENERGY        2e-ENERGY     RMS[dD(SAO)]   TOL
   2  -2063.8830025926    -14362.542500     6497.0898278    0.142D-07 0.151D-13
                            Exc = -288.567732632     Coul =  6785.65756042    
                              N = 329.99985861    
                            current damping = 0.700
 
          Norm of current diis error: 0.45234E-04
          max. resid. norm for Fia-block=  6.909D-07 for orbital    153a         
          max. resid. fock norm         =  1.131D-06 for orbital   1845a         

 DENSITY CONVERGED !


 ITERATION  ENERGY          1e-ENERGY        2e-ENERGY     RMS[dD(SAO)]   TOL
   3  -2063.8830025928    -14362.542382     6497.0897102    0.642D-08 0.151D-13
                            Exc = -288.567730379     Coul =  6785.65744059    
                              N = 329.99985861    
                            current damping = 0.750
 
          Norm of current diis error: 0.14600E-04
          max. resid. norm for Fia-block=  2.050D-07 for orbital    138a         
          max. resid. fock norm         =  3.769D-07 for orbital   1900a         

 ENERGY & DENSITY CONVERGED !


 ITERATION  ENERGY          1e-ENERGY        2e-ENERGY     RMS[dD(SAO)]   TOL
   4  -2063.8820948124    -14362.542418     6497.0906542    0.180D-08 0.151D-13
                            Exc = -288.566824390     Coul =  6785.65747859    
                              N = 330.00003560    
                            current damping = 0.800
 
          Norm of current diis error: 0.56492E-05
          max. resid. norm for Fia-block=  1.041D-07 for orbital    153a         
          max. resid. fock norm         =  1.499D-07 for orbital   1868a         

 End of SCF iterations

   convergence criteria satisfied after    4 iterations


                  ------------------------------------------ 
                 |  total energy      =  -2063.88209481242  |
                  ------------------------------------------ 
                 :  kinetic energy    =   2052.01517162148  :
                 :  potential energy  =  -4115.89726643390  :
                 :  virial theorem    =      1.99425019325  :
                 :  wavefunction norm =      1.00000000000  :
                  .......................................... 


 orbitals $scfmo  will be written to file mos

    irrep                161a        162a        163a        164a        165a   
 eigenvalues H         -0.21433    -0.21291    -0.21200    -0.20995    -0.20857
            eV          -5.8323     -5.7936     -5.7689     -5.7132     -5.6756
 occupation              2.0000      2.0000      2.0000      2.0000      2.0000 

    irrep                166a        167a        168a        169a        170a   
 eigenvalues H         -0.04003    -0.03845    -0.03387    -0.03089    -0.02966
            eV          -1.0894     -1.0463     -0.9218     -0.8406     -0.8070
 
 
 ! grave: sending quit signal to master process
 
 
 
 
 ==============================================================================
                           electrostatic moments
 ==============================================================================

 reference point for electrostatic moments:    0.00000   0.00000   0.00000

 
              nuc           elec       ->  total
 ------------------------------------------------------------------------------
                          charge      
 ------------------------------------------------------------------------------
         330.000000    -330.000000      -0.000000
 
 ------------------------------------------------------------------------------
                       dipole moment  
 ------------------------------------------------------------------------------
   x   -3519.150454    3519.058625      -0.091829
   y   -4190.343416    4190.458900       0.115484
   z   -6828.491961    6828.012359      -0.479603
 
   | dipole moment | =     0.5018 a.u. =     1.2754 debye 
 
 ------------------------------------------------------------------------------
                     quadrupole moment
 ------------------------------------------------------------------------------
  xx   40649.770794  -40826.622183    -176.851389
  yy   59166.668457  -59361.667698    -194.999241
  zz  160042.333516 -160240.624686    -198.291170
  xy   45418.509445  -45409.418662       9.090783
  xz   73669.296660  -73654.892739      14.403921
  yz   86106.684288  -86102.963181       3.721106
 
     1/3  trace=    -190.047267
     anisotropy=      36.218897
 
 ==============================================================================
 

    ridft profiling
  --------------------------------------------------------------------
             module   cpu total (s)       %  wall total (s)       %

               RIDFT           609.4  100.00           609.1  100.00
         Ridft_b_scf            52.7    8.65            52.7    8.65
        b_scf_prelim             0.0    0.00             0.0    0.00
        b_scf_molinp             0.0    0.00             0.0    0.00
         b_scf_init0             0.0    0.00             0.0    0.00
        b_scf_auxbas             0.0    0.00             0.0    0.00
      b_scf_symmetry             0.0    0.00             0.0    0.00
         b_scf_cosmo             0.0    0.00             0.0    0.00
        b_scf_params             1.7    0.28             1.7    0.28
          b_scf_ri-j            36.6    6.00            36.6    6.01
    b_scf_ri-j_auxpq            36.6    6.00            36.6    6.00
     ri-j_auxpq_chol             2.7    0.44             2.7    0.44
         b_scf_1elec             1.6    0.26             1.6    0.26
       b_scf_moinput            12.8    2.10            12.8    2.10
     moinput_orthmos             8.5    1.40             8.5    1.40
    b_scf_dft-dstmax             0.0    0.00             0.0    0.00
           Ridft_scf           556.1   91.25           555.7   91.24
          Scf_b_loop             0.0    0.00             0.0    0.00
                noga             0.0    0.00             0.0    0.00
            Scf_loop           553.5   90.82           553.1   90.82
     scf_loop_mkdmat             1.6    0.26             1.6    0.26
       scf_loop_ri-j            53.2    8.73            53.1    8.73
      parlp1.bc.dens             0.3    0.04             0.3    0.04
        parlp1.gs.gp             1.2    0.20             1.2    0.20
        parlp2.bc.gq             0.0    0.00             0.0    0.00
        scf_loop_dft           458.4   75.23           458.1   75.22
      pardft.bc.dens             0.0    0.00             0.0    0.00
        dft_grid_con             4.2    0.70             4.2    0.69
          dft_xcmrhf           453.2   74.36           452.9   74.36
          dft_getval            12.4    2.04            12.4    2.04
          funct2 dst             0.2    0.04             0.2    0.04
      funct2 f2loop1             2.2    0.36             2.2    0.36
      funct2 f2loop2             6.5    1.07             6.5    1.06
          funct2 s+c             3.2    0.53             3.3    0.54
        funct2 cmf_2             2.8    0.46             2.9    0.48
          dft_mkdens           270.4   44.37           270.2   44.36
        dft_mgga-fun             0.5    0.08             0.5    0.08
          dft_mkfock           169.7   27.84           169.5   27.84
     pardft.red.fock           129.1   21.19           129.0   21.19
     scf_loop_energy             0.0    0.00             0.0    0.00
     scf_loop_mkfock             0.0    0.00             0.0    0.00
       scf_loop_diis            22.4    3.67            22.4    3.67
       scf_loop_diag            10.7    1.76            10.7    1.76
         diag_tritrn             4.0    0.66             4.0    0.66
          diag_rdiag             6.7    1.10             6.7    1.10
     scf_loop_modump             6.9    1.13             6.9    1.13
          Scf_a_loop             2.6    0.42             2.6    0.42
         Ridft_a_scf             0.7    0.11             0.7    0.11
         a_scf_fanal             0.6    0.11             0.7    0.11
 


    ------------------------------------------------------------------------
         total  cpu-time : 10 minutes and 12 seconds
         total wall-time : 10 minutes and 12 seconds
    ------------------------------------------------------------------------


   ****  ridft : all done  ****


    2018-02-01 20:26:16.886 

