 operating system is UNIX !

 ridft (c-13-222.gp.local) : TURBOMOLE V7.2 ( 21454 ) 4 Oct 2017 at 12:48:15
 Copyright (C) 2017 TURBOMOLE GmbH, Karlsruhe


    2018-04-28 11:01:48.997 



                                  r i d f t

                        DFT program with RI approximation 
                                for coulomb part 




                                                 
                                 References:     
                                                 
          TURBOMOLE:                             
              R. Ahlrichs, M. Baer, M. Haeser, H. Horn, and
              C. Koelmel
              Electronic structure calculations on workstation
              computers: the program system TURBOMOLE
              Chem. Phys. Lett. 162: 165 (1989)
          Density Functional:                              
              O. Treutler and R. Ahlrichs                      
              Efficient Molecular Numerical Integration Schemes
              J. Chem. Phys. 102: 346 (1995)                   
          Parallel Version:                                
              Performance of parallel TURBOMOLE for Density    
              Functional Calculations                          
              M. v. Arnim and R. Ahlrichs                      
              J. Comp. Chem. 19: 1746 (1998)                   
          RI-J Method:                                     
              Auxiliary Basis Sets to approximate Coulomb      
              Potentials                                       
              Chem. Phys. Lett. 240: 283 (1995)                
              K. Eichkorn, O. Treutler, H. Oehm, M. Haeser     
              and R. Ahlrichs                                  
              Chem. Phys. Lett. 242: 652 (1995)                
                                                           
              Auxiliary Basis Sets for Main Row Atoms and their
              Use to approximate Coulomb Potentials            
              K. Eichkorn, F. Weigend, O. Treutler and         
              R. Ahlrichs                                      
              Theo. Chem. Acc. 97: 119 (1997)                   
                                                           
              Accurate Coulomb-fitting basis sets for H to Rn 
              F. Weigend                                        
              Phys. Chem. Chem. Phys. 8: 1057 (2006)            
                                                           
          Multipole accelerated RI-J (MARI-J):             
              Fast evaluation of the Coulomb potential for     
              electron densities using multipole accelerated   
              resolution of identity approximation             
              M. Sierka, A. Hogekamp and R. Ahlrichs           
              J. Chem. Phys. 118: 9136 (2003)                  
          RI-JK Method:                                     
              A fully direct RI-HF algorithm: Implementation,
              optimised auxiliary basis sets, demonstration of
              accuracy and efficiency                         
              F. Weigend                                      
              Phys. Chem. Chem. Phys. 4: 4285 (2002)           
          Two-component HF and DFT with spin-orbit coupling:  
              Self-consistent treatment of spin-orbit         
              interactions with efficient Hartree-Fock and    
              density functional methods                      
              M. K. Armbruster, F. Weigend, C. van Wüllen and 
              W. Klopper                                      
              Phys. Chem. Chem. Phys. 10: 1748 (2008)         
          Relativistic all-electron 2c calculations           
              An efficient implementation of two-component    
              relativistic exact-decoupling methods for large 
              molecules                                       
              D. Peng, N. Middendorf, F. Weigend, M. Reiher   
              J. Chem. Phys. 138, 184105 (2013)               
                                         




              +--------------------------------------------------+
              |      general information about current run       |
              +--------------------------------------------------+

 

 DENSITY CONVERGENCE CHECK SWITCHED ON !
 SCF CONVERGENCE IF RMS(delta[D]) <     0.1000000000E-06

 A HF calculation using the RI-JK approximation will be carried out.
 Allocatable memory for RI due to $ricore (MB):                   500


              +--------------------------------------------------+
              | Atomic coordinate, charge and isotop information |
              +--------------------------------------------------+

                    atomic coordinates            atom    charge  isotop
          2.28799600    0.05418937    0.62306371    n      7.000     0
          1.15638950   -2.18915137    0.28998181    c      6.000     0
          2.36495050   -3.83524341    0.41440361    h      1.000     0
         -1.41977768   -2.47298927   -0.16787207    c      6.000     0
         -2.21176527   -4.34045397   -0.40323582    h      1.000     0
         -2.92504599   -0.32114057   -0.29567961    c      6.000     0
         -4.93409902   -0.46478701   -0.64015558    h      1.000     0
         -1.78318786    2.02320905    0.03746023    c      6.000     0
         -2.87014308    3.75016205   -0.02200402    h      1.000     0
          0.80827096    2.10913964    0.48631874    c      6.000     0
          1.74741939    3.90805141    0.75125682    h      1.000     0
         -1.34769142   -0.53658644    6.23141599    n      7.000     0
         -3.03878658   -1.35269017    5.88256596    h      1.000     0
         -1.34720975    2.10489125    6.40718131    c      6.000     0
         -3.31230398    3.29201683    6.19014602    o      8.000     0
          1.14627396    3.16140188    6.83721319    c      6.000     0
          1.33773415    5.17815950    7.01837779    h      1.000     0
          3.16804205    1.61429764    6.97236650    c      6.000     0
          5.06509850    2.31097295    7.25285200    h      1.000     0
          2.94493882   -0.95061491    6.75966901    n      7.000     0
          4.48211008   -2.06968682    6.74423441    h      1.000     0
          0.67642288   -2.17370695    6.33186960    c      6.000     0
          0.50230871   -4.45161699    6.07944135    o      8.000     0
 
       center of nuclear mass  :    0.02707001    0.05648175    3.85632629
       center of nuclear charge:    0.03540329    0.06912307    3.81847073

              +--------------------------------------------------+
              |               basis set information              |
              +--------------------------------------------------+

              we will work with the 1s 3p 5d 7f 9g ... basis set
              ...i.e. with spherical basis functions...

   type   atoms  prim   cont   basis
   ---------------------------------------------------------------------------
    n        3     77     57   def2-QZVP   [7s4p3d2f1g|15s8p3d2f1g]
    c        9     77     57   def2-QZVP   [7s4p3d2f1g|15s8p3d2f1g]
    h        9     33     30   def2-QZVP   [4s3p2d1f|7s3p2d1f]
    o        2     77     57   def2-QZVP   [7s4p3d2f1g|15s8p3d2f1g]
   ---------------------------------------------------------------------------
   total:   23   1375   1068
   ---------------------------------------------------------------------------

   total number of primitive shells          :  100
   total number of contracted shells         :  328
   total number of cartesian basis functions : 1323
   total number of SCF-basis functions       : 1068


 integral neglect threshold       :  0.25E-13
 integral storage threshold THIZE :  0.10E-04
 integral storage threshold THIME :         5

 RI-JK AUXILIARY BASIS SET information:

              we will work with the 1s 3p 5d 7f 9g ... basis set
              ...i.e. with spherical basis functions...

   type   atoms  prim   cont   basis
   ---------------------------------------------------------------------------
    n        3     97     77   def2-QZVP   [10s8p4d2f1g|14s10p6d2f1g]
    c        9     97     75   def2-QZVP   [10s8p5d1f1g|14s10p6d2f1g]
    h        9     20     18   def2-QZVP   [2s2p2d|4s2p2d]
    o        2     97     77   def2-QZVP   [10s8p4d2f1g|14s10p6d2f1g]
   ---------------------------------------------------------------------------
   total:   23   1538   1222
   ---------------------------------------------------------------------------

   total number of primitive shells          :  107
   total number of contracted shells         :  404
   total number of cartesian basis functions : 1446
   total number of SCF-basis functions       : 1222


 symmetry group of the molecule :   c1 

 the group has the following generators :
   c1(z)

    1 symmetry operations found

 there are 1 real representations :   a   

 maximum number of shells which are related by symmetry :  1


    mo occupation :
   irrep   mo's   occupied
    a     1068       50
 
 number of basis functions   :                   1068
 number of occupied orbitals :                     50
 

 biggest AO integral is expected to be     6.990327543
  
           ------------------------
               RI-JK - INFORMATION
           ------------------------
 Contributions to RI integral batches: 
  neglected integral batches:                 14100
  direct contribution:                        39856
  memory contribution:                     0
 Memory core needed for (P|Q) and Cholesky     12 MByte
 Memory core minimum needed except of (P|Q)     1 MByte
 Total minimum memory core needed (sum)        12 MByte
  
 ****************************************
 Memory allocated for RI-J    12 MByte
 ****************************************
                                            
 total memory allocated for calculation of  (Q|P)**(-1/2) :   18 MiB

  forming (P|Q)**(-1/2) 
 eigenvalues of original matrix 
 smallest =0.6042297644723E-07  largest = 48.82983481614    
  The symmetry information takes                      1  MB

          ------------------------
          nuclear repulsion energy  :   885.281925645    
          ------------------------


         -----------------
         -S,T+V- integrals
         -----------------

 1e-integrals will be neglected if expon. factor < 0.252605E-14
 
   Difference densities algorithm switched on.
   The maximal number of linear combinations of
   difference densities is                    20 .

 DIIS switched on: error vector is FDS-SDF
 Max. Iterations for DIIS is     :   5
 DIIS matrix (see manual) 
    Scaling factor of diagonals  :  1.200
    threshold for scaling factor :  0.000

 scf convergence criterion : increment of total energy < .1000000D-08
                  and increment of one-electron energy < .1000000D-05

  MOs are in ASCII format !


 automatic virtual orbital shift switched on 
      shift if e(lumo)-e(homo) < 0.10000000    


 reading orbital data $scfmo  from file mos
 orbital characterization : scfconv=9

 DSCF restart information will be dumped onto file mos


 Starting SCF iterations

 
 BLOCKING OF MOS FOR RI-K
 
 
 occupied MOs partitioned into blocks of maximum length 40
 this requires 495 MiB core memory.
 
            MULTIPLE PASS Statistics 
 ----------------------------------------------------
  pass       irrep     lambda      batch : MO  to  MO
 ----------------------------------------------------
   1       1  ->  1    1  -> 40             1  ->  40
   2       1  ->  1   41  -> 50            41  ->  50



 ENERGY & DENSITY CONVERGED !


 ITERATION  ENERGY          1e-ENERGY        2e-ENERGY     RMS[dD(SAO)]   TOL
   1  -659.28487301412    -2658.1536030     1113.5868043    0.000D+00 0.252D-13
                           RI-K = -86.0463320819     Coul =  1199.63313641    
                            current damping = 0.700
 
          max. resid. norm for Fia-block=  2.599D-01 for orbital      2a         
          max. resid. fock norm         =  8.034D-01 for orbital   1068a         

 End of SCF iterations

   convergence criteria satisfied after     1 iterations


                  ------------------------------------------ 
                 |  total energy      =   -659.28487301412  |
                  ------------------------------------------ 
                 :  kinetic energy    =    660.13216673714  :
                 :  potential energy  =  -1319.41703975126  :
                 :  virial theorem    =      2.00128517088  :
                 :  wavefunction norm =      1.00000000000  :
                  .......................................... 


 orbitals $scfmo  will be written to file mos

    irrep                 46a         47a         48a         49a         50a   
 eigenvalues H         -0.47256    -0.33731    -0.34991    -0.44163    -0.40353
            eV         -12.8591     -9.1788     -9.5215    -12.0174    -10.9806
 occupation              2.0000      2.0000      2.0000      2.0000      2.0000 

    irrep                 51a         52a         53a         54a         55a   
 eigenvalues H          0.10115     0.11942     0.13559     0.16966     0.10357
            eV           2.7526      3.2496      3.6896      4.6166      2.8183
 
 
 
 
 ==============================================================================
                           electrostatic moments
 ==============================================================================

 reference point for electrostatic moments:    0.00000   0.00000   0.00000

 
              nuc           elec       ->  total
 ------------------------------------------------------------------------------
                          charge      
 ------------------------------------------------------------------------------
         100.000000    -100.000000      -0.000000
 
 ------------------------------------------------------------------------------
                       dipole moment  
 ------------------------------------------------------------------------------
   x       3.540329      -2.720468       0.819861
   y       6.912307      -6.763374       0.148933
   z     381.847073    -381.836923       0.010150
 
   | dipole moment | =     0.8333 a.u. =     2.1181 debye 
 
 ------------------------------------------------------------------------------
                     quadrupole moment
 ------------------------------------------------------------------------------
  xx     478.935627    -534.700075     -55.764448
  yy     602.818549    -666.366786     -63.548237
  zz    2441.524219   -2501.681968     -60.157749
  xy     -79.746439      84.402781       4.656342
  xz     179.878058    -167.729834      12.148224
  yz     114.288306    -112.466715       1.821590
 
     1/3  trace=     -59.823478
     anisotropy=      23.736662
 
 ==============================================================================
 


    ------------------------------------------------------------------------
         total  cpu-time :  2 minutes and 31 seconds
         total wall-time :  2 minutes and 35 seconds
    ------------------------------------------------------------------------

   ****  ridft : all done  ****


    2018-04-28 11:04:23.501 

