Using Slurm to start processes with PMI2
STARTING ridft ON 8 PROCESSORS!
RUNNING PROGRAM /modfac/apps/TURBOMOLE/7.0_intel_GA/bin/em64t-unknown-linux-gnu_mpi/ridft_mpi.
PLEASE WAIT UNTIL ridft HAS FINISHED.
Look for the output in slave1.output.
  this is node-proc. number 1 running on node c-16-42.local
  the total number of node-proc. spawned is            8
  parallel platform: MPP, or cluster with fast interconnect

 ridft (c-16-42.local) : TURBOMOLE V7.0.2( ) 15 Jan 2016 at 17:47:42
 Copyright (C) 2016 TURBOMOLE GmbH, Karlsruhe


    2016-02-15 19:25:38.237 



                                  r i d f t

                        DFT program with RI approximation 
                                for coulomb part 




                                                 
                                 References:     
                                                 
          TURBOMOLE:                             
              R. Ahlrichs, M. Baer, M. Haeser, H. Horn, and
              C. Koelmel
              Electronic structure calculations on workstation
              computers: the program system TURBOMOLE
              Chem. Phys. Lett. 162: 165 (1989)
          Density Functional:                              
              O. Treutler and R. Ahlrichs                      
              Efficient Molecular Numerical Integration Schemes
              J. Chem. Phys. 102: 346 (1995)                   
          Parallel Version:                                
              Performance of parallel TURBOMOLE for Density    
              Functional Calculations                          
              M. v. Arnim and R. Ahlrichs                      
              J. Comp. Chem. 19: 1746 (1998)                   
          RI-J Method:                                     
              Auxiliary Basis Sets to approximate Coulomb      
              Potentials                                       
              Chem. Phys. Lett. 240: 283 (1995)                
              K. Eichkorn, O. Treutler, H. Oehm, M. Haeser     
              and R. Ahlrichs                                  
              Chem. Phys. Lett. 242: 652 (1995)                
                                                           
              Auxiliary Basis Sets for Main Row Atoms and their
              Use to approximate Coulomb Potentials            
              K. Eichkorn, F. Weigend, O. Treutler and         
              R. Ahlrichs                                      
              Theo. Chem. Acc. 97: 119 (1997)                   
                                                           
              Accurate Coulomb-fitting basis sets for H to Rn 
              F. Weigend                                        
              Phys. Chem. Chem. Phys. 8: 1057 (2006)            
                                                           
          Multipole accelerated RI-J (MARI-J):             
              Fast evaluation of the Coulomb potential for     
              electron densities using multipole accelerated   
              resolution of identity approximation             
              M. Sierka, A. Hogekamp and R. Ahlrichs           
              J. Chem. Phys. 118: 9136 (2003)                  
          RI-JK Method:                                     
              A fully direct RI-HF algorithm: Implementation,
              optimised auxiliary basis sets, demonstration of
              accuracy and efficiency                         
              F. Weigend                                      
              Phys. Chem. Chem. Phys. 4: 4285 (2002)           
          Two-component HF and DFT with spin-orbit coupling:  
              Self-consistent treatment of spin-orbit         
              interactions with efficient Hartree-Fock and    
              density functional methods                      
              M. K. Armbruster, F. Weigend, C. van Wüllen and 
              W. Klopper                                      
              Phys. Chem. Chem. Phys. 10: 1748 (2008)         
          Relativistic all-electron 2c calculations           
              An efficient implementation of two-component    
              relativistic exact-decoupling methods for large 
              molecules                                       
              D. Peng, N. Middendorf, F. Weigend, M. Reiher   
              J. Chem. Phys. 138, 184105 (2013)               
                                         


 


              +--------------------------------------------------+
              |      general information about current run       |
              +--------------------------------------------------+

 

 SCF run will be profiled !


 DENSITY CONVERGENCE CHECK SWITCHED ON !
 SCF CONVERGENCE IF RMS(delta[D]) <     0.1000000000E-06

 TPSS meta-GGA functional
 exchange:    LDA + TPSS
 correlation: LDA (PW) + TPSS
 A DFT calculation using the RI-J approximation will be carried out.
 Allocatable memory for RI due to $ricore (MB):        5000


              +--------------------------------------------------+
              | Atomic coordinate, charge and isotop information |
              +--------------------------------------------------+

                    atomic coordinates            atom    charge  isotop
          5.37744248   -1.46325274   -2.07862316    c      6.000     0
          3.66733481   -0.28338333   -0.32336994    c      6.000     0
          8.94745640    0.29311542    0.09339027    c      6.000     0
          4.69780247    1.19031959    1.67701856    c      6.000     0
          7.27457634    1.46478342    1.82985961    c      6.000     0
          8.04303347   -1.18270400   -1.84153812    c      6.000     0
          3.08554483    2.42769337    3.53216270    n      7.000     0
          4.06423399   -2.74066981   -3.78139868    n      7.000     0
          1.59717763   -2.36162854   -3.10691763    o      8.000     0
          1.31621315   -0.85995767   -0.97341683    n      7.000     0
         10.01530284   -2.64996296   -3.95534797    cl    17.000     0
          0.77949313    2.29407083    3.19187972    o      8.000     0
          4.11616367    3.54291525    5.30899660    o      8.000     0
         10.96385087    0.57485469    0.30209162    h      1.000     0
          8.03451080    2.60855906    3.34882147    h      1.000     0
 
       center of nuclear mass  :    5.27776528   -0.25726803   -0.37634145
       center of nuclear charge:    5.28509005   -0.22160365   -0.32856479

              +--------------------------------------------------+
              |               basis set information              |
              +--------------------------------------------------+

              we will work with the 1s 3p 5d 7f 9g ... basis set
              ...i.e. with spherical basis functions...

   type   atoms  prim   cont   basis
   ---------------------------------------------------------------------------
    c        6     50     30   cc-pVTZ   [4s3p2d1f|18s5p2d1f]
    n        3     50     30   cc-pVTZ   [4s3p2d1f|18s5p2d1f]
    o        3     50     30   cc-pVTZ   [4s3p2d1f|18s5p2d1f]
    cl       1    106     34   cc-pVTZ   [5s4p2d1f|41s16p2d1f]
    h        2     16     14   cc-pVTZ   [3s2p1d|5s2p1d]
   ---------------------------------------------------------------------------
   total:   15    738    422
   ---------------------------------------------------------------------------

   total number of primitive shells          :  146
   total number of contracted shells         :  144
   total number of cartesian basis functions :  489
   total number of SCF-basis functions       :  422


 integral neglect threshold       :  0.68E-13
 integral storage threshold THIZE :  0.10E-04
 integral storage threshold THIME :         5

 RI-J AUXILIARY BASIS SET information:

              we will work with the 1s 3p 5d 7f 9g ... basis set
              ...i.e. with spherical basis functions...

   type   atoms  prim   cont   basis
   ---------------------------------------------------------------------------
    c        6     70     49   cc-pVTZ   [6s4p3d1f1g|12s5p4d2f1g]
    n        3     70     49   cc-pVTZ   [6s4p3d1f1g|12s5p4d2f1g]
    o        3     70     49   cc-pVTZ   [6s4p3d1f1g|12s5p4d2f1g]
    cl       1     77     51   cc-pVTZ   [8s4p3d1f1g|14s5p5d2f1g]
    h        2     16     11   cc-pVTZ   [3s1p1d|5s2p1d]
   ---------------------------------------------------------------------------
   total:   15    949    661
   ---------------------------------------------------------------------------

   total number of primitive shells          :  107
   total number of contracted shells         :  207
   total number of cartesian basis functions :  819
   total number of SCF-basis functions       :  661


 symmetry group of the molecule :   c1 

 the group has the following generators :
   c1(z)

    1 symmetry operations found

 there are 1 real representations :   a   

 maximum number of shells which are related by symmetry :  1


    mo occupation :
   irrep   mo's   occupied
    a      422       50
 
 number of basis functions   :          422
 number of occupied orbitals :           50
 
  
           ------------------
           density functional
           ------------------
 TPSS meta-GGA functional
 exchange:    LDA + TPSS
 correlation: LDA (PW) + TPSS
 grinp -> nfun, dfgga, dfhybrid 
           5 F F
 iterations will be done with small grid
  
 spherical integration : Lebedev's spherical grid
 spherical gridsize    :           5
    i.e. gridpoints    :         590
 value for diffuse not defined
 radial integration    : Chebyshev 2nd kind (scaling 3)
 radial gridsize       :           8
 integration cells     :          15
 partition function    : becke
 partition sharpness   :           3
  

 <rddim> : input of entry tasksize
           from data group '$pardft' failed !

               Default values taken

 <rddim> : input of entry memdiv
           from data group '$pardft' failed !

               Default values taken
  RIDFT: memory allocation for DFT gridpoints
  MEMORY is divided by 1 as DEFAULT
 Each node can hold at most  the            1 -th part
 of the gridpoints    

 biggest AO integral is expected to be    10.299856942
  
           ------------------------
               RI-J - INFORMATION
           ------------------------
 
 
 **************************************************
 *      MEMORY ALLOCATION FOR PARALLEL RI-DFT     *
 **************************************************
 
 
MEMORY FOR (MU NU/ ALPHA), SEQUENTIAL RUN               4997 MByte
 
            DIFFERENCE IN MEMORY NEED:       DIAG./SLAVE  
 
      TOTAL DIFFERENCE :                     11 MByte
 
      difference in xcore:                    4 MByte
      difference in fatmat:                   3 MByte
      getcor calls skipped by slaves:         5 MByte
 
 
           Integral memory available for diagonal.      4997 MByte
 
           Integral memory available for slave             0 MByte
 
         MEMORY FOR (MU NU/ ALPHA) ON DIAGONALIZER      4997 MByte
 
         MEMORY FOR (MU NU/ ALPHA) ON ONE SLAVE            0 MByte
 
         TOTAL MEMORY FOR (MU NU/ ALPHA),ALL NODES      4997 MByte
 
 Contributions to RI integral batches: 
  neglected integral batches:        1622
  direct contribution:                  0
  memory contribution:        8818
 Memory core needed for (P|Q) and Cholesky      4 MByte
 Memory core minimum needed except of (P|Q)     1 MByte
 Total minimum memory core needed (sum)         5 MByte
  
 ****************************************
 Memory allocated for RI-J  5001 MByte
 ****************************************
                                            

          ------------------------
          nuclear repulsion energy  :   847.156780140    
          ------------------------

 
          -----------------
          -S integrals
          -----------------

 1e-integrals will be neglected if expon. factor < 0.683428E-14
 
          -----------------
          -T+V integrals
          -----------------

 1e-integrals will be neglected if expon. factor < 0.683428E-14
 Difference densities >>NOT<< switched on in parallel ridft!

 automatic virtual orbital shift switched on 
      shift if e(lumo)-e(homo) < 0.10000000    


 DIIS switched on: error vector is FDS-SDF
 Max. Iterations for DIIS is     :   4
 DIIS matrix (see manual) 
    Scaling factor of diagonals  :  1.200
    threshold for scaling factor :  0.000

 scf convergence criterion : increment of total energy < .1000000D-08
                  and increment of one-electron energy < .1000000D-05


 <geterg> : there is no data group $energy 

  MOs are in ASCII format !


 reading orbital data $scfmo  from file mos . 

 orbital characterization : expanded
 
 mo provided and orthogonalized by Cholesky decomposition

 DSCF restart information will be dumped onto file mos


 Starting SCF iterations


 ITERATION  ENERGY          1e-ENERGY        2e-ENERGY     RMS[dD(SAO)]   TOL
   1  -1077.4498355080    -3138.9987773     1214.3921617    0.000D+00 0.682D-13
                            Exc = -107.362779119     Coul =  1321.75494080    
                              N = 100.00014454    
                            current damping = 0.700
 
          max. resid. norm for Fia-block=  3.979D-01 for orbital     33a         
          max. resid. fock norm         =  4.499D+00 for orbital    386a         

 ITERATION  ENERGY          1e-ENERGY        2e-ENERGY     RMS[dD(SAO)]   TOL
   2  -1079.7138427176    -3154.4319767     1227.5613539    0.784D-02 0.682D-13
                            Exc = -107.647754345     Coul =  1335.20910823    
                              N = 100.00011437    
                            current damping = 0.650
 
          Norm of current diis error:  2.6431    
          max. resid. norm for Fia-block=  1.493D-01 for orbital     18a         
          max. resid. fock norm         =  4.538D-01 for orbital    412a         

 ITERATION  ENERGY          1e-ENERGY        2e-ENERGY     RMS[dD(SAO)]   TOL
   3  -1080.0186114574    -3158.9236689     1231.7482773    0.367D-02 0.682D-13
                            Exc = -107.993284663     Coul =  1339.74156196    
                              N = 100.00009827    
                            current damping = 0.550
 
          Norm of current diis error:  1.2849    
          max. resid. norm for Fia-block=  5.697D-02 for orbital     45a         
          max. resid. fock norm         =  1.005D-01 for orbital    215a         

 ITERATION  ENERGY          1e-ENERGY        2e-ENERGY     RMS[dD(SAO)]   TOL
   4  -1080.1187423861    -3159.9101537     1232.6346311    0.244D-02 0.682D-13
                            Exc = -107.944878375     Coul =  1340.57950951    
                              N = 100.00009349    
                            current damping = 0.450
 
          Norm of current diis error: 0.56887    
          max. resid. norm for Fia-block=  3.600D-02 for orbital     18a         
          max. resid. fock norm         =  7.020D-02 for orbital    412a         

 ITERATION  ENERGY          1e-ENERGY        2e-ENERGY     RMS[dD(SAO)]   TOL
   5  -1080.1380613688    -3160.7060854     1233.4112439    0.133D-02 0.682D-13
                            Exc = -108.042636247     Coul =  1341.45388016    
                              N = 100.00008940    
                            current damping = 0.350
 
          Norm of current diis error: 0.34441    
          max. resid. norm for Fia-block=  1.080D-02 for orbital     36a         
          max. resid. fock norm         =  2.332D-02 for orbital     25a         
          mo-orthogonalization: Cholesky decomposition

 ITERATION  ENERGY          1e-ENERGY        2e-ENERGY     RMS[dD(SAO)]   TOL
   6  -1080.1431714276    -3160.9294189     1233.6294673    0.610D-03 0.682D-13
                            Exc = -108.050375897     Coul =  1341.67984319    
                              N = 100.00008886    
                            current damping = 0.200
 
          Norm of current diis error: 0.16297    
          max. resid. norm for Fia-block=  6.598D-03 for orbital     49a         
          max. resid. fock norm         =  8.634D-03 for orbital     42a         

 ITERATION  ENERGY          1e-ENERGY        2e-ENERGY     RMS[dD(SAO)]   TOL
   7  -1080.1430958766    -3160.9924121     1233.6925361    0.366D-03 0.682D-13
                            Exc = -108.033658601     Coul =  1341.72619472    
                              N = 100.00008809    
                            current damping = 0.250
 
          Norm of current diis error: 0.17643    
          max. resid. norm for Fia-block=  3.408D-03 for orbital     44a         
          max. resid. fock norm         =  6.136D-03 for orbital    337a         

 ITERATION  ENERGY          1e-ENERGY        2e-ENERGY     RMS[dD(SAO)]   TOL
   8  -1080.1444832613    -3160.9550908     1233.6538274    0.137D-03 0.682D-13
                            Exc = -108.034323176     Coul =  1341.68815055    
                              N = 100.00008827    
                            current damping = 0.300
 
          Norm of current diis error: 0.76075E-01
          max. resid. norm for Fia-block=  2.021D-03 for orbital     44a         
          max. resid. fock norm         =  3.195D-03 for orbital    418a         

 ITERATION  ENERGY          1e-ENERGY        2e-ENERGY     RMS[dD(SAO)]   TOL
   9  -1080.1446936289    -3160.9256204     1233.6241466    0.797D-04 0.682D-13
                            Exc = -108.044351724     Coul =  1341.66849837    
                              N = 100.00008817    
                            current damping = 0.150
 
          Norm of current diis error: 0.37270E-01
          max. resid. norm for Fia-block=  1.001D-03 for orbital     33a         
          max. resid. fock norm         =  1.618D-03 for orbital    338a         

 ITERATION  ENERGY          1e-ENERGY        2e-ENERGY     RMS[dD(SAO)]   TOL
  10  -1080.1447333653    -3160.9624752     1233.6609617    0.423D-04 0.682D-13
                            Exc = -108.041363940     Coul =  1341.70232562    
                              N = 100.00008827    
                            current damping = 0.200
 
          Norm of current diis error: 0.23393E-01
          max. resid. norm for Fia-block=  1.106D-03 for orbital     47a         
          max. resid. fock norm         =  1.590D-03 for orbital    386a         
          mo-orthogonalization: Cholesky decomposition

 ITERATION  ENERGY          1e-ENERGY        2e-ENERGY     RMS[dD(SAO)]   TOL
  11  -1080.1447325692    -3160.9414129     1233.6399001    0.319D-04 0.682D-13
                            Exc = -108.042966988     Coul =  1341.68286714    
                              N = 100.00008823    
                            current damping = 0.250
 
          Norm of current diis error: 0.22324E-01
          max. resid. norm for Fia-block=  6.168D-04 for orbital     47a         
          max. resid. fock norm         =  8.752D-04 for orbital    386a         

 ITERATION  ENERGY          1e-ENERGY        2e-ENERGY     RMS[dD(SAO)]   TOL
  12  -1080.1447587145    -3160.9407736     1233.6392348    0.157D-04 0.682D-13
                            Exc = -108.043008289     Coul =  1341.68224305    
                              N = 100.00008823    
                            current damping = 0.100
 
          Norm of current diis error: 0.78176E-02
          max. resid. norm for Fia-block=  2.604D-04 for orbital     40a         
          max. resid. fock norm         =  4.846D-04 for orbital    413a         

 ITERATION  ENERGY          1e-ENERGY        2e-ENERGY     RMS[dD(SAO)]   TOL
  13  -1080.1447578565    -3160.9469648     1233.6454268    0.105D-04 0.682D-13
                            Exc = -108.041553613     Coul =  1341.68698037    
                              N = 100.00008823    
                            current damping = 0.150
 
          Norm of current diis error: 0.85853E-02
          max. resid. norm for Fia-block=  1.233D-04 for orbital     45a         
          max. resid. fock norm         =  2.357D-04 for orbital    414a         

 ITERATION  ENERGY          1e-ENERGY        2e-ENERGY     RMS[dD(SAO)]   TOL
  14  -1080.1447612180    -3160.9449639     1233.6434226    0.598D-05 0.682D-13
                            Exc = -108.042306049     Coul =  1341.68572860    
                              N = 100.00008823    
                            current damping = 0.200
 
          Norm of current diis error: 0.30594E-02
          max. resid. norm for Fia-block=  1.390D-04 for orbital     44a         
          max. resid. fock norm         =  2.268D-04 for orbital    418a         

 ITERATION  ENERGY          1e-ENERGY        2e-ENERGY     RMS[dD(SAO)]   TOL
  15  -1080.1447608715    -3160.9472615     1233.6457205    0.471D-05 0.682D-13
                            Exc = -108.042182932     Coul =  1341.68790338    
                              N = 100.00008823    
                            current damping = 0.250
 
          Norm of current diis error: 0.39119E-02
          max. resid. norm for Fia-block=  6.780D-05 for orbital     44a         
          max. resid. fock norm         =  1.097D-04 for orbital    418a         
          mo-orthogonalization: Cholesky decomposition

 ITERATION  ENERGY          1e-ENERGY        2e-ENERGY     RMS[dD(SAO)]   TOL
  16  -1080.1447616127    -3160.9457726     1233.6442308    0.261D-05 0.682D-13
                            Exc = -108.042362725     Coul =  1341.68659357    
                              N = 100.00008823    
                            current damping = 0.300
 
          Norm of current diis error: 0.10342E-02
          max. resid. norm for Fia-block=  2.311D-05 for orbital     34a         
          max. resid. fock norm         =  3.776D-05 for orbital    414a         

 ITERATION  ENERGY          1e-ENERGY        2e-ENERGY     RMS[dD(SAO)]   TOL
  17  -1080.1447616583    -3160.9448414     1233.6432996    0.899D-06 0.682D-13
                            Exc = -108.042377850     Coul =  1341.68567748    
                              N = 100.00008823    
                            current damping = 0.150
 
          Norm of current diis error: 0.32610E-03
          max. resid. norm for Fia-block=  1.040D-05 for orbital     50a         
          max. resid. fock norm         =  1.719D-05 for orbital    414a         

 ITERATION  ENERGY          1e-ENERGY        2e-ENERGY     RMS[dD(SAO)]   TOL
  18  -1080.1447616563    -3160.9453211     1233.6437793    0.555D-06 0.682D-13
                            Exc = -108.042377882     Coul =  1341.68615717    
                              N = 100.00008823    
                            current damping = 0.200
 
          Norm of current diis error: 0.36274E-03
          max. resid. norm for Fia-block=  1.012D-05 for orbital     47a         
          max. resid. fock norm         =  1.502D-05 for orbital    387a         

 ITERATION  ENERGY          1e-ENERGY        2e-ENERGY     RMS[dD(SAO)]   TOL
  19  -1080.1447616603    -3160.9452465     1233.6437047    0.345D-06 0.682D-13
                            Exc = -108.042357027     Coul =  1341.68606169    
                              N = 100.00008823    
                            current damping = 0.250
 
          Norm of current diis error: 0.24939E-03
          max. resid. norm for Fia-block=  6.671D-06 for orbital     47a         
          max. resid. fock norm         =  9.287D-06 for orbital    386a         

 ITERATION  ENERGY          1e-ENERGY        2e-ENERGY     RMS[dD(SAO)]   TOL
  20  -1080.1447616633    -3160.9451957     1233.6436539    0.218D-06 0.682D-13
                            Exc = -108.042375077     Coul =  1341.68602894    
                              N = 100.00008823    
                            current damping = 0.100
 
          Norm of current diis error: 0.69111E-04
          max. resid. norm for Fia-block=  3.935D-06 for orbital     47a         
          max. resid. fock norm         =  5.590D-06 for orbital    386a         
          mo-orthogonalization: Cholesky decomposition

 ITERATION  ENERGY          1e-ENERGY        2e-ENERGY     RMS[dD(SAO)]   TOL
  21  -1080.1447616629    -3160.9451045     1233.6435627    0.135D-06 0.682D-13
                            Exc = -108.042377761     Coul =  1341.68594047    
                              N = 100.00008823    
                            current damping = 0.050
 
          Norm of current diis error: 0.10764E-03
          max. resid. norm for Fia-block=  1.795D-06 for orbital     47a         
          max. resid. fock norm         =  2.611D-06 for orbital    387a         
          irrep a   : virtual orbitals shifted by    0.00085

 DENSITY CONVERGED !


 ITERATION  ENERGY          1e-ENERGY        2e-ENERGY     RMS[dD(SAO)]   TOL
  22  -1080.1447616635    -3160.9451204     1233.6435786    0.696D-07 0.682D-13
                            Exc = -108.042372045     Coul =  1341.68595061    
                              N = 100.00008823    
                            current damping = 0.100
 
          Norm of current diis error: 0.35861E-04
          max. resid. norm for Fia-block=  1.108D-06 for orbital     44a         
          max. resid. fock norm         =  1.892D-06 for orbital    340a         

 DENSITY CONVERGED !


 ITERATION  ENERGY          1e-ENERGY        2e-ENERGY     RMS[dD(SAO)]   TOL
  23  -1080.1447616635    -3160.9451495     1233.6436077    0.467D-07 0.682D-13
                            Exc = -108.042373135     Coul =  1341.68598086    
                              N = 100.00008823    
                            current damping = 0.050
 
          Norm of current diis error: 0.31963E-04
          max. resid. norm for Fia-block=  7.780D-07 for orbital     47a         
          max. resid. fock norm         =  1.271D-06 for orbital    340a         
          irrep a   : virtual orbitals shifted by    0.00085

 DENSITY CONVERGED !


 ITERATION  ENERGY          1e-ENERGY        2e-ENERGY     RMS[dD(SAO)]   TOL
  24  -1080.1447616635    -3160.9451584     1233.6436166    0.400D-07 0.682D-13
                            Exc = -108.042373641     Coul =  1341.68599028    
                              N = 100.00008823    
                            current damping = 0.050
 
          Norm of current diis error: 0.18041E-04
          max. resid. norm for Fia-block=  3.890D-07 for orbital     50a         
          max. resid. fock norm         =  6.739D-07 for orbital    414a         
          irrep a   : virtual orbitals shifted by    0.00085

 DENSITY CONVERGED !


 ITERATION  ENERGY          1e-ENERGY        2e-ENERGY     RMS[dD(SAO)]   TOL
  25  -1080.1447616635    -3160.9451454     1233.6436036    0.229D-07 0.682D-13
                            Exc = -108.042374194     Coul =  1341.68597780    
                              N = 100.00008823    
                            current damping = 0.100
 
          Norm of current diis error: 0.10982E-04
          max. resid. norm for Fia-block=  2.353D-07 for orbital     50a         
          max. resid. fock norm         =  4.655D-07 for orbital    414a         
          mo-orthogonalization: Cholesky decomposition

 ENERGY & DENSITY CONVERGED !


 ITERATION  ENERGY          1e-ENERGY        2e-ENERGY     RMS[dD(SAO)]   TOL
  26  -1080.1444451903    -3160.9451513     1233.6439259    0.129D-07 0.682D-13
                            Exc = -108.042056380     Coul =  1341.68598232    
                              N = 99.999995438    
                            current damping = 0.150
 
          Norm of current diis error: 0.62077E-05
          max. resid. norm for Fia-block=  1.339D-07 for orbital     45a         
          max. resid. fock norm         =  2.444D-07 for orbital    413a         

 End of SCF iterations

   convergence criteria satisfied after   26 iterations


                  ------------------------------------------ 
                 |  total energy      =  -1080.14444519027  |
                  ------------------------------------------ 
                 :  kinetic energy    =   1075.57665818733  :
                 :  potential energy  =  -2155.72110337760  :
                 :  virial theorem    =      1.99577113318  :
                 :  wavefunction norm =      1.00000000000  :
                  .......................................... 


 <geterg> : there is no data group $energy 


 <skperg> : $end is missing 


 orbitals $scfmo  will be written to file mos

    irrep                 46a         47a         48a         49a         50a   
 eigenvalues H         -0.30456    -0.28863    -0.27841    -0.25993    -0.25688
            eV          -8.2875     -7.8541     -7.5759     -7.0732     -6.9902
 occupation              2.0000      2.0000      2.0000      2.0000      2.0000 

    irrep                 51a         52a         53a         54a         55a   
 eigenvalues H         -0.16245    -0.11523    -0.06599    -0.04549    -0.03382
            eV          -4.4206     -3.1355     -1.7958     -1.2378     -0.9204
 
 
 ! grave: sending quit signal to master process
 
 
 
 
 ==============================================================================
                           electrostatic moments
 ==============================================================================

 reference point for electrostatic moments:    0.00000   0.00000   0.00000

 
              nuc           elec       ->  total
 ------------------------------------------------------------------------------
                          charge      
 ------------------------------------------------------------------------------
         100.000000    -100.000000      -0.000000
 
 ------------------------------------------------------------------------------
                       dipole moment  
 ------------------------------------------------------------------------------
   x     528.509005    -526.669735       1.839270
   y     -22.160365      22.044342      -0.116023
   z     -32.856479      32.550828      -0.305651
 
   | dipole moment | =     1.8681 a.u. =     4.7482 debye 
 
 ------------------------------------------------------------------------------
                     quadrupole moment
 ------------------------------------------------------------------------------
  xx    3817.788891   -3858.620775     -40.831884
  yy     456.275472    -516.358511     -60.083040
  zz     939.453762   -1003.607700     -64.153938
  xy    -353.885885     355.465938       1.580053
  xz    -559.348433     560.529605       1.181172
  yz     653.368314    -658.239606      -4.871292
 
     1/3  trace=     -55.022954
     anisotropy=      23.418206
 
 ==============================================================================
 

    ridft profiling
  --------------------------------------------------------------------
             module   cpu total (s)       %  wall total (s)       %

               RIDFT           161.6  100.00           161.9  100.00
         Ridft_b_scf             3.9    2.39             3.9    2.39
        b_scf_prelim             0.0    0.00             0.0    0.00
        b_scf_molinp             0.0    0.02             0.0    0.02
         b_scf_init0             0.0    0.00             0.0    0.00
        b_scf_auxbas             0.0    0.01             0.0    0.01
      b_scf_symmetry             0.0    0.00             0.0    0.00
         b_scf_cosmo             0.0    0.00             0.0    0.00
        b_scf_params             0.2    0.14             0.2    0.14
          b_scf_ri-j             3.3    2.06             3.3    2.06
    b_scf_ri-j_auxpq             3.3    2.06             3.3    2.06
     ri-j_auxpq_chol             0.0    0.03             0.0    0.03
         b_scf_1elec             0.1    0.05             0.1    0.05
       b_scf_moinput             0.2    0.10             0.2    0.10
     moinput_orthmos             0.1    0.08             0.1    0.08
    b_scf_dft-dstmax             0.0    0.00             0.0    0.00
           Ridft_scf           157.7   97.57           157.9   97.57
          Scf_b_loop             0.0    0.00             0.0    0.00
                noga             0.0    0.00             0.0    0.00
            Scf_loop           157.6   97.48           157.8   97.48
     scf_loop_mkdmat             0.2    0.13             0.2    0.13
       scf_loop_ri-j             7.6    4.70             7.6    4.70
      parlp1.bc.dens             1.3    0.82             1.3    0.82
        parlp1.gs.gp             0.0    0.00             0.0    0.00
        parlp2.bc.gq             0.0    0.00             0.0    0.00
        scf_loop_dft           141.2   87.37           141.4   87.37
      pardft.bc.dens             0.0    0.00             0.0    0.00
        dft_grid_con             0.2    0.10             0.2    0.10
          dft_xcmrhf           139.0   85.98           139.2   85.97
          dft_getval             6.8    4.21             6.7    4.14
          funct2 dst             0.1    0.06             0.1    0.05
      funct2 f2loop1             2.0    1.24             2.0    1.22
      funct2 f2loop2             2.8    1.74             2.8    1.76
          funct2 s+c             1.6    0.98             1.5    0.94
        funct2 cmf_2             1.3    0.81             1.3    0.78
          dft_mkdens            64.6   39.99            64.8   40.04
        dft_mgga-fun             0.6    0.39             0.6    0.36
          dft_mkfock            66.6   41.20            66.8   41.26
     pardft.red.fock             9.3    5.74             9.3    5.74
     scf_loop_energy             0.0    0.01             0.0    0.01
     scf_loop_mkfock             0.0    0.00             0.0    0.00
       scf_loop_diis             0.9    0.58             0.9    0.58
       scf_loop_diag             4.3    2.64             4.3    2.63
         diag_tritrn             0.8    0.49             0.8    0.49
          diag_rdiag             3.4    2.13             3.4    2.13
     scf_loop_modump             2.9    1.80             2.9    1.80
      scf_loop_ortho             0.3    0.20             0.3    0.20
          Scf_a_loop             0.1    0.09             0.1    0.09
         Ridft_a_scf             0.1    0.03             0.1    0.04
         a_scf_fanal             0.1    0.03             0.1    0.03
 


    ------------------------------------------------------------------------
         total  cpu-time :  2 minutes and 42 seconds
         total wall-time :  2 minutes and 42 seconds
    ------------------------------------------------------------------------


   ****  ridft : all done  ****


    2016-02-15 19:28:20.352 

