
   OpenMP run-time library returned nthreads = 30

 ricc2 (c-15-37.local) : TURBOMOLE V7.2 ( 21471 ) 11 Oct 2017 at 17:04:51
 Copyright (C) 2017 TURBOMOLE GmbH, Karlsruhe


    2018-04-04 17:14:35.709 



                              R I C C 2 - PROGRAM

                          the quantum chemistry groups
                             at the universities in
                           Karlsruhe, Bochum & Mainz
                                   Germany



   *-----------------------------------------------------------------------*
   |                     program will use 30 thread(s)                     |
   *-----------------------------------------------------------------------*


              +--------------------------------------------------+
              | Atomic coordinate, charge and isotop information |
              +--------------------------------------------------+

                    atomic coordinates            atom    charge  isotop
          5.88813734   -0.70500111   -3.88530633    c      6.000     0
          7.46496904   -2.38289009   -5.13073509    c      6.000     0
          6.19761535   -4.75225758   -5.25814494    c      6.000     0
          3.87407689   -4.48234434   -4.08010158    c      6.000     0
          6.25655002    2.06836852   -3.23433815    c      6.000     0
          8.85211165    2.91570881   -4.30422838    c      6.000     0
          4.19501577    3.67170285   -4.42889895    c      6.000     0
          4.06490585    4.65917784   -6.85091128    c      6.000     0
          1.83667183   -6.42713275   -3.52896087    c      6.000     0
          1.66054487   -6.81481300   -0.62701933    c      6.000     0
          2.59980314   -8.95714944   -4.74227316    c      6.000     0
         -0.72601665   -5.65077837   -4.54910354    c      6.000     0
         -2.04838460   -6.39009229   -6.68976864    c      6.000     0
          3.71857385   -2.01252912   -3.25806352    n      7.000     0
          1.98310132    4.30774632   -3.20879383    n      7.000     0
         -2.24478318   -3.97802917   -3.26667210    n      7.000     0
         -4.15907599    4.64798436   -4.41568789    c      6.000     0
         -6.48028542    4.84512158   -5.60879226    c      6.000     0
         -7.71677151    2.47038683   -5.40867641    c      6.000     0
         -6.12996903    0.84925868   -4.10611218    c      6.000     0
         -2.13848754    6.65231739   -4.03003251    c      6.000     0
         -2.13974460    7.53613285   -1.24140136    c      6.000     0
         -2.79846059    8.95469296   -5.68922149    c      6.000     0
          0.44688383    5.68912480   -4.79872978    c      6.000     0
          1.71037524    5.92415029   -7.08301053    c      6.000     0
         -6.53010342   -1.91484081   -3.43211771    c      6.000     0
         -9.11172712   -2.75083009   -4.53092405    c      6.000     0
         -4.48358576   -3.60980256   -4.52650733    c      6.000     0
         -4.41508378   -5.10700055   -6.67533547    c      6.000     0
         -3.97269821    2.20828396   -3.49967860    n      7.000     0
          6.34575111    2.44193288   -0.38789317    c      6.000     0
          6.46192400    4.64729941    1.07351646    c      6.000     0
          6.52036132    0.43558407    1.21210909    n      7.000     0
          6.71927213    3.90486132    3.63441499    c      6.000     0
          6.74847942    1.25794117    3.68513219    c      6.000     0
         -6.62919027   -2.29882688   -0.58046950    c      6.000     0
         -6.88286683   -4.52582839    0.83617046    c      6.000     0
         -6.54204615   -0.33167843    1.07238091    n      7.000     0
         -6.95682671   -3.83118729    3.42368179    c      6.000     0
         -6.71194691   -1.19616926    3.53401960    c      6.000     0
          6.86095942   -0.46080545    5.79072434    c      6.000     0
         -6.40633111    0.44657984    5.69220925    c      6.000     0
          7.08720383    0.09769553    8.02584205    o      8.000     0
         -6.49219102   -0.19914442    7.91542886    o      8.000     0
          6.64746838   -2.94317412    4.99414516    o      8.000     0
         -5.91207736    2.88315326    4.94930277    o      8.000     0
         -5.20137716    4.61259768    6.95610639    c      6.000     0
          6.62421050   -4.79673048    7.00371187    c      6.000     0
         -3.79805299    6.79601003    5.74249842    c      6.000     0
          5.90891401   -7.31357743    5.83219569    c      6.000     0
         -7.13144072   -5.61262007    5.62542875    c      6.000     0
          6.75959021    5.63813159    5.87596073    c      6.000     0
          4.12038686    5.94432367    7.06961147    c      6.000     0
         -4.51637395   -6.37341901    6.65528981    c      6.000     0
         -7.02473319   -7.17245329   -0.17684896    c      6.000     0
          6.24446126    7.31676831    0.14252854    c      6.000     0
          9.31498528   -1.95545823   -5.88328917    h      1.000     0
          6.91294824   -6.46186697   -6.11718603    h      1.000     0
          9.16706939    4.90725357   -3.86821718    h      1.000     0
          8.90569235    2.66076619   -6.35423917    h      1.000     0
         10.36192276    1.79274582   -3.44938126    h      1.000     0
          5.49230340    4.46937291   -8.30021361    h      1.000     0
          0.20941130   -8.22259998   -0.17816968    h      1.000     0
          1.18063681   -5.05205539    0.33889174    h      1.000     0
          3.48813808   -7.46672343    0.09094467    h      1.000     0
          2.79245819   -8.77488393   -6.79269918    h      1.000     0
          1.15872398  -10.38408544   -4.33996149    h      1.000     0
          4.40939192   -9.59764278   -3.97103940    h      1.000     0
         -1.40065386   -7.71858140   -8.10060452    h      1.000     0
          1.56219358    3.88484538   -1.34327131    h      1.000     0
         -1.71532600   -2.97192382   -1.68660340    h      1.000     0
         -7.20937915    6.51244613   -6.53536592    h      1.000     0
         -9.55595727    1.99757262   -6.15930542    h      1.000     0
         -0.73431615    9.03527581   -0.97223098    h      1.000     0
         -1.68925479    5.99272455    0.05090364    h      1.000     0
         -4.01221238    8.27914065   -0.76426059    h      1.000     0
         -2.92312634    8.43875333   -7.68669175    h      1.000     0
         -1.34122735   10.40399610   -5.46637761    h      1.000     0
         -4.61803796    9.74920401   -5.10632734    h      1.000     0
          1.01355427    6.89403705   -8.74037589    h      1.000     0
         -9.12249245   -2.52377794   -6.58537113    h      1.000     0
        -10.62590526   -1.60320879   -3.72039092    h      1.000     0
         -9.45337065   -4.73359669   -4.07621549    h      1.000     0
         -5.90238622   -5.28683590   -8.06451726    h      1.000     0
         -2.44705541    1.48027630   -2.52964106    h      1.000     0
          6.48226196   -1.39395833    0.65771515    h      1.000     0
         -6.22768384    1.48903708    0.57502657    h      1.000     0
         -4.02601229    3.58539466    8.30971824    h      1.000     0
         -6.92452666    5.22097300    7.93380824    h      1.000     0
          5.27000758   -4.19470698    8.44563693    h      1.000     0
          8.50078412   -4.85093127    7.87942904    h      1.000     0
         -2.12171029    6.10476613    4.75288769    h      1.000     0
         -3.20715826    8.13611141    7.20755759    h      1.000     0
         -5.00338125    7.79435423    4.39022116    h      1.000     0
          4.01772574   -7.22508599    5.00338354    h      1.000     0
          5.91844328   -8.78752516    7.28682169    h      1.000     0
          7.24863120   -7.84747545    4.34922478    h      1.000     0
         -8.15857165   -7.31414932    5.03354954    h      1.000     0
         -8.21137019   -4.72431101    7.14789059    h      1.000     0
          7.46137826    7.49463897    5.27407414    h      1.000     0
          8.06347995    4.90374261    7.30394796    h      1.000     0
          2.74330913    6.55993502    5.65827202    h      1.000     0
          4.17210667    7.32415404    8.61589661    h      1.000     0
          3.47719309    4.13405397    7.82962168    h      1.000     0
         -3.34347641   -7.19970451    5.16235008    h      1.000     0
         -4.70150603   -7.75987304    8.18457189    h      1.000     0
         -3.53862740   -4.71351157    7.40203372    h      1.000     0
         -6.17458100   -7.29211994   -2.05696733    h      1.000     0
         -8.98493976   -7.84467075   -0.32037590    h      1.000     0
         -6.01609637   -8.48818237    1.06297989    h      1.000     0
          6.15549118    7.38845944   -1.91903823    h      1.000     0
          7.85037307    8.47030623    0.76942183    h      1.000     0
          4.51739228    8.20878202    0.86280576    h      1.000     0
          2.21107366   -1.24238444   -2.29141503    h      1.000     0
          0.12641946    0.84327464    1.85072377    c      0.000     0
          0.62417666    3.15239373    1.95379794    o      0.000     0
          0.09726621   -0.73161656    4.25299077    c      0.000     0
         -0.34183391   -0.33569482   -0.23102396    o      0.000     0
          1.71111944   -2.02673592    4.21447903    h      0.000     0
         -1.61899500   -1.87693380    4.32292944    h      0.000     0
          0.23542234    0.46209330    5.92860916    h      0.000     0
 
       center of nuclear mass  :   -0.00684897    0.06505749   -0.14317684
       center of nuclear charge:   -0.01524957    0.01220420   -0.27924886

              +--------------------------------------------------+
              |               basis set information              |
              +--------------------------------------------------+

              we will work with the 1s 3p 5d 7f 9g ... basis set
              ...i.e. with spherical basis functions...

   type   atoms  prim   cont   basis
   ---------------------------------------------------------------------------
    c       48     50     30   cc-pVTZ   [4s3p2d1f|18s5p2d1f]
    n        6     50     30   cc-pVTZ   [4s3p2d1f|18s5p2d1f]
    o        6     50     30   cc-pVTZ   [4s3p2d1f|18s5p2d1f]
    h       61     16     14   cc-pVTZ   [3s2p1d|5s2p1d]
   ---------------------------------------------------------------------------
   total:  121   3976   2654
   ---------------------------------------------------------------------------

   total number of primitive shells          :   86
   total number of contracted shells         :  966
   total number of cartesian basis functions : 3015
   total number of SCF-basis functions       : 2654


 symmetry group of the molecule :   c1 

 the group has the following generators :
   c1(z)

    1 symmetry operations found

 there are 1 real representations :   a   


   =========================================================================


     restricted closed shell calculation for the wavefunction models:
               MP2        - Second Order Moeller Plesset PT


     global parameters for ricc2 program:

        hard restart (reuse of interm.) :  disabled
        soft restart (reuse of vectors) :  disabled
        threshold for vector function   :    0.100000E-05
        convergence threshold energy    :    0.100000E-06
        linear dependence threshold     :    0.100000E-13
        global print level              :      1
        maximum number of iterations    :   300
        maximum number DIIS vectors     :    10
        max. dim. of reduced space      :   100
        core memory limit (MB)          : *****


     MP2 energy only: Energy will be calculated directly from T2 amplitudes!

     Scratch Directory : 


   =========================================================================

    der. integral neglect threshold  :  0.10E-07
    integral neglect threshold       :  0.11E-11
    integral storage threshold THIZE :  0.10E-04
    integral storage threshold THIME :         5


                  +------------------------------------------+
                  |     Auxiliary basis set information      |
                  +------------------------------------------+

              we will work with the 1s 3p 5d 7f 9g ... basis set
              ...i.e. with spherical basis functions...

   type   atoms  prim   cont   basis
   ---------------------------------------------------------------------------
    c       48     81     81   cc-pVTZ   [8s6p5d3f1g|8s6p5d3f1g]
    n        6     81     81   cc-pVTZ   [8s6p5d3f1g|8s6p5d3f1g]
    o        6     81     81   cc-pVTZ   [8s6p5d3f1g|8s6p5d3f1g]
    h       61     30     30   cc-pVTZ   [4s3p2d1f|4s3p2d1f]
   ---------------------------------------------------------------------------
   total:  121   6690   6690
   ---------------------------------------------------------------------------

   total number of primitive shells          :   79
   total number of contracted shells         : 1990
   total number of cartesian basis functions : 8195
   total number of SCF-basis functions       : 6690


 maximum number of shells which are related by symmetry :  1


 The symmetry information takes   1 MB

*---------------------------------------------------------------------*
|               simplified C1 algorithm will be applied               |
*---------------------------------------------------------------------*
  MOs are in ASCII format !


 reading orbital data $scfmo  from file mos
 orbital characterization : scfconv=7



              +--------------------------------------------+
              | list of orbitals that will be kept frozen: |
              +--------------------------------------------+
              |   irrep   index      energy     occ/vir    |
              +--------------------------------------------+
              |   a         1      -20.5959     occupied   |
              |   a         2      -20.5951     occupied   |
              |   a         3      -20.5328     occupied   |
              |   a         4      -20.5295     occupied   |
              |   a         5      -15.6182     occupied   |
              |   a         6      -15.6171     occupied   |
              |   a         7      -15.6160     occupied   |
              |   a         8      -15.6157     occupied   |
              |   a         9      -15.6144     occupied   |
              |   a        10      -15.6137     occupied   |
              |   a        11      -11.3807     occupied   |
              |   a        12      -11.3787     occupied   |
              |   a        13      -11.2884     occupied   |
              |   a        14      -11.2863     occupied   |
              |   a        15      -11.2854     occupied   |
              |   a        16      -11.2838     occupied   |
              |   a        17      -11.2825     occupied   |
              |   a        18      -11.2788     occupied   |
              |   a        19      -11.2712     occupied   |
              |   a        20      -11.2701     occupied   |
              |   a        21      -11.2687     occupied   |
              |   a        22      -11.2687     occupied   |
              |   a        23      -11.2686     occupied   |
              |   a        24      -11.2683     occupied   |
              |   a        25      -11.2677     occupied   |
              |   a        26      -11.2655     occupied   |
              |   a        27      -11.2652     occupied   |
              |   a        28      -11.2647     occupied   |
              |   a        29      -11.2581     occupied   |
              |   a        30      -11.2539     occupied   |
              |   a        31      -11.2416     occupied   |
              |   a        32      -11.2379     occupied   |
              |   a        33      -11.2367     occupied   |
              |   a        34      -11.2346     occupied   |
              |   a        35      -11.2308     occupied   |
              |   a        36      -11.2291     occupied   |
              |   a        37      -11.2284     occupied   |
              |   a        38      -11.2274     occupied   |
              |   a        39      -11.2262     occupied   |
              |   a        40      -11.2262     occupied   |
              |   a        41      -11.2255     occupied   |
              |   a        42      -11.2252     occupied   |
              |   a        43      -11.2248     occupied   |
              |   a        44      -11.2220     occupied   |
              |   a        45      -11.2213     occupied   |
              |   a        46      -11.2196     occupied   |
              |   a        47      -11.2191     occupied   |
              |   a        48      -11.2176     occupied   |
              |   a        49      -11.2158     occupied   |
              |   a        50      -11.2158     occupied   |
              |   a        51      -11.2149     occupied   |
              |   a        52      -11.2146     occupied   |
              |   a        53      -11.2142     occupied   |
              |   a        54      -11.2142     occupied   |
              |   a        55      -11.2138     occupied   |
              |   a        56      -11.2107     occupied   |
              +--------------------------------------------+



   Molecular Orbital Statistic:
   ============================

   -----------------------------
   orbitals in total:
   -----------------------------
    frozen occupied :     56
    active occupied :    148
    active virtual  :   2450
    frozen virtual  :      0
    all together    :   2654
   -----------------------------


     time in riccmos       cpu: 32.73 sec    wall:  9.01 sec    ratio:  3.6

     total memory allocated for calculation of (Q|P)**(-1/2) : 513 MiB


     calculation of (P|Q) ...
     time in lp2sym        cpu: 57.35 sec    wall:  1.99 sec    ratio: 28.8


     calculation of the Cholesky decomposition of (P|Q)**(-1) ...
     time in invmetri      cpu: 15 min 43 s  wall:  0 min 36 s  ratio: 26.6

   threshold for RMS(d[D]) in SCF was     :  0.10E-06
   integral neglect threshold             :  0.11E-11
   derivative integral neglect threshold  :  0.10E-07


   =========================================================================

     Energy of reference wave function is -2402.6150444680002
     Maximum orbital residual is           0.2958045796111E-05


     Number of symmetry-nonredundant auxiliary basis functions:     6690

     Block lengths for integral files:
        frozen occupied (BOI):        3 MiB
        active occupied (BJI):        8 MiB
        active virtual  (BAI):      126 MiB
        frozen virtual  (BGI):        0 MiB
               general  (BTI):      136 MiB

   =========================================================================




   **************************************************************************
   *                                                                        *
   *          OPTIMIZATION OF THE GROUND STATE CLUSTER AMPLITUDES           *
   *                                                                        *
   **************************************************************************


   Iter.   MP2 energy       Norm(Omega)    Norm(t1)  Norm(t2)     cpu    wall
   ...........................................................................
    1  -2412.4406341914     ------          0.00000   1.06177 2604.71  112.90
   ...........................................................................


     time in total         cpu:   1 d 19 h 24 min  wall:   0 d  1 h 52 min  ratio: 23.1


     **********************************************************************
     *                                                                    *
     *   RHF  energy                             :  -2402.6150444680      *
     *   MP2 correlation energy (doubles)        :     -9.8255897234      *
     *                                                                    *
     *   Final MP2 energy                        :  -2412.4406341914      *
     *                                                                    *
     *    E(S)   =     -6.0693928985      E(T)   =     -3.7561968250      *
     *    E(OS)  =     -7.3214585068      E(SS)  =     -2.5041312166      *
     *                                                                    *
     *   SCS-MP2 energy                          :  -2412.2355050817      *
     *   (computed with  C(OS) =   1.2000  and  C(SS) =   0.3333)         *
     *                                                                    *
     *   SOS-MP2 energy                          :  -2412.1329405268      *
     *   (computed with  C(OS) =   1.3000)                                *
     *                                                                    *
     *   Norm of MP1 T2 amplitudes               :      1.0617658918      *
     *                                                                    *
     **********************************************************************



    ------------------------------------------------------------------------
         total  cpu-time :   1 days 21 hours  5 minutes and 34 seconds
         total wall-time :  1 hours 57 minutes and 34 seconds
    ------------------------------------------------------------------------

   ****  ricc2 : all done  ****


    2018-04-04 19:12:09.488 

