 this is node-proc. number 0 running on node c-19-293.gp.local
 the total number of node-proc. spawned is  17

 dscfserver (c-19-293.gp.local) : TURBOMOLE V7.2 ( 21471 ) 7 Nov 2017 at 16:15:16
 Copyright (C) 2017 TURBOMOLE GmbH, Karlsruhe


    2018-02-14 23:38:10.024 

 
    0:00:37 ---- Start global counter...
    3:33:55 ---- ... finished.
 
    3:35:14 ---- Start global counter...
    6:53:30 ---- ... finished.
 
    6:54:49 ---- Start global counter...
   10:12:00 ---- ... finished.
 
   10:13:19 ---- Start global counter...
   13:15:25 ---- ... finished.
 
   13:16:47 ---- Start global counter...
   16:15:10 ---- ... finished.
 
   16:16:45 ---- Start global counter...
   18:50:38 ---- ... finished.
 
   18:52:00 ---- Start global counter...
   21:17:22 ---- ... finished.
 
   21:18:45 ---- Start global counter...
   23:34:29 ---- ... finished.
 
   23:35:52 ---- Start global counter...
   25:41:14 ---- ... finished.
 
   25:42:36 ---- Start global counter...
   27:43:49 ---- ... finished.
 
   27:45:25 ---- Start global counter...
   29:35:08 ---- ... finished.
 
   29:36:31 ---- Start global counter...
   31:14:07 ---- ... finished.
 
   31:15:30 ---- Start global counter...
   32:42:34 ---- ... finished.
 
   32:43:57 ---- Start global counter...
   34:05:53 ---- ... finished.
 
   34:07:20 ---- Start global counter...
   35:18:17 ---- ... finished.
 
   35:19:59 ---- Start global counter...
   36:19:17 ---- ... finished.
 
   36:20:44 ---- Start global counter...
   37:11:38 ---- ... finished.
 
   37:12:58 ---- Start global counter...
   38:31:04 ---- ... finished.
 
   38:32:37 ---- Start global counter...
   39:42:08 ---- ... finished.
 
   39:43:37 ---- Start global counter...
   40:53:17 ---- ... finished.
 
   40:54:38 ---- ByeBye Tag received


 ! Total wall-clock time in seconds  :   147277.9
 ! Time (sec) spent in global counter:   145533.5
 ! So-called SERIAL wall-clock time  :     1744.5

  *** Regular termination of server ***
 total turnaround time of dscfserver ******** sec
 cpu elapsed by dscfserver process   ******** sec 

   ***  dscf server : all done  ***


    2018-02-16 16:32:49.747 

