
 eiger (gplogin2.gp.local) : TURBOMOLE V7.3 ( 22118 ) 1 Jul 2018 at 20:38:15
 Copyright (C) 2018 TURBOMOLE GmbH, Karlsruhe


    2019-08-06 11:36:34.285 

                                                                                
  
 HOMO-LUMO Separation
   HOMO:   156.   156 a     -0.18065770 H =     -4.91595 eV
   LUMO:   157.   157 a     -0.08170323 H =     -2.22326 eV
   Gap :                    +0.09895447 H =     +2.69269 eV
 
Number of MOs=   1776, Electrons=    312.00, Symmetry: c1   
 
   Nr.   Orbital    Occupation       Energy
  173.   173 a                     +0.024356 H =        +0.663 eV
  172.   172 a                     +0.021144 H =        +0.575 eV
  171.   171 a                     +0.019557 H =        +0.532 eV
  170.   170 a                     +0.018221 H =        +0.496 eV
  169.   169 a                     +0.013143 H =        +0.358 eV
  168.   168 a                     -0.012851 H =        -0.350 eV
  167.   167 a                     -0.015053 H =        -0.410 eV
  166.   166 a                     -0.026890 H =        -0.732 eV
  165.   165 a                     -0.028553 H =        -0.777 eV
  164.   164 a                     -0.043912 H =        -1.195 eV
  163.   163 a                     -0.047134 H =        -1.283 eV
  162.   162 a                     -0.047718 H =        -1.298 eV
  161.   161 a                     -0.049834 H =        -1.356 eV
  160.   160 a                     -0.075681 H =        -2.059 eV
  159.   159 a                     -0.076077 H =        -2.070 eV
  158.   158 a                     -0.081144 H =        -2.208 eV
  157.   157 a                     -0.081703 H =        -2.223 eV
  156.   156 a        2.000        -0.180658 H =        -4.916 eV
  155.   155 a        2.000        -0.183838 H =        -5.002 eV
  154.   154 a        2.000        -0.186978 H =        -5.088 eV
  153.   153 a        2.000        -0.191371 H =        -5.207 eV
  152.   152 a        2.000        -0.218930 H =        -5.957 eV
  151.   151 a        2.000        -0.223835 H =        -6.091 eV
  150.   150 a        2.000        -0.224979 H =        -6.122 eV
  149.   149 a        2.000        -0.231788 H =        -6.307 eV
  148.   148 a        2.000        -0.237377 H =        -6.459 eV
  147.   147 a        2.000        -0.239144 H =        -6.507 eV
  146.   146 a        2.000        -0.245920 H =        -6.692 eV
  145.   145 a        2.000        -0.247821 H =        -6.744 eV
  144.   144 a        2.000        -0.270873 H =        -7.371 eV
  143.   143 a        2.000        -0.271009 H =        -7.375 eV
  142.   142 a        2.000        -0.271040 H =        -7.375 eV
  141.   141 a        2.000        -0.271224 H =        -7.380 eV


    ------------------------------------------------------------------------
         total  cpu-time :   1.46 seconds
         total wall-time :   1.66 seconds
    ------------------------------------------------------------------------

   ****  eiger : all done  ****


    2019-08-06 11:36:35.932 

