
   OpenMP run-time library returned nthreads =  8
 operating system is UNIX !

 dscf (c-13-221) : TURBOMOLE V7.3 ( 22142 ) 4 Jul 2018 at 18:12:42
 Copyright (C) 2018 TURBOMOLE GmbH, Karlsruhe


    2019-04-02 13:31:27.024 



                             d s c f - program

                   idea & directorship : reinhart ahlrichs
                   program development : marco haeser
                                         michael baer
                           dft version : oliver treutler


                          quantum chemistry group
                          universitaet  karlsruhe
                                  germany




                          References             
                                                 
          TURBOMOLE:                             
              R. Ahlrichs, M. Baer, M. Haeser, H. Horn, and
              C. Koelmel
              Electronic structure calculations on workstation
              computers: the program system TURBOMOLE
              Chem. Phys. Lett. 162: 165 (1989)
          Density Functional:                              
              O. Treutler and R. Ahlrichs                      
              Efficient Molecular Numerical Integration Schemes
              J. Chem. Phys. 102: 346 (1995)                   
          Parallel Version:                                
              Performance of parallel TURBOMOLE for Density    
              Functional Calculations                          
              M. v. Arnim and R. Ahlrichs                      
              J. Comp. Chem. 19: 1746 (1998)                   
                                         




              +--------------------------------------------------+
              | Atomic coordinate, charge and isotop information |
              +--------------------------------------------------+

                    atomic coordinates            atom    charge  isotop
          1.37195489    0.04734424    6.42164927    c      6.000     0
          2.34916579   -1.59858435    5.70879432    h      1.000     0
          2.51639383    1.53454745    7.22915634    h      1.000     0
         -1.13906879    0.23743264    6.32858606    c      6.000     0
         -2.29558664   -1.25068812    5.54075788    h      1.000     0
         -2.10627785    1.88351561    7.05424046    h      1.000     0
 
       center of nuclear mass  :    0.11636842    0.14236102    6.37628460
       center of nuclear charge:    0.11631323    0.14234074    6.37714756

              +--------------------------------------------------+
              |               basis set information              |
              +--------------------------------------------------+

              we will work with the 1s 3p 5d 7f 9g ... basis set
              ...i.e. with spherical basis functions...

   type   atoms  prim   cont   basis
   ---------------------------------------------------------------------------
    c        2     77     57   def2-QZVP   [7s4p3d2f1g|15s8p3d2f1g]
    h        4     33     30   def2-QZVP   [4s3p2d1f|7s3p2d1f]
   ---------------------------------------------------------------------------
   total:    6    286    234
   ---------------------------------------------------------------------------

   total number of primitive shells          :   42
   total number of contracted shells         :   74
   total number of cartesian basis functions :  284
   total number of SCF-basis functions       :  234


 integral neglect threshold       :  0.12E-12
 integral storage threshold THIZE :  0.10E-04
 integral storage threshold THIME :         5


 DENSITY CONVERGENCE CHECK SWITCHED ON !
 SCF CONVERGENCE IF RMS(delta[D]) <     0.1000000000E-06


 symmetry group of the molecule :   c1 

 the group has the following generators :
   c1(z)

    1 symmetry operations found

 there are 1 real representations :   a   

 maximum number of shells which are related by symmetry :  1


    mo occupation :
   irrep   mo's   occupied
    a      234        8
 
 number of basis functions   :                    234
 number of occupied orbitals :                      8
 

 automatic virtual orbital shift switched on 
      shift if e(lumo)-e(homo) < 0.10000000    


          ------------------------
          nuclear repulsion energy  :   33.4040917650    
          ------------------------


         -----------------
         -S,T+V- integrals
         -----------------

 1e-integrals will be neglected if expon. factor < 0.117675E-13
 
   Difference densities algorithm switched on.
   The maximal number of linear combinations of
   difference densities is                    20 .

 DIIS switched on: error vector is FDS-SDF
 Max. Iterations for DIIS is     :   5
 DIIS matrix (see manual) 
    Scaling factor of diagonals  :  1.200
    threshold for scaling factor :  0.000

 scf convergence criterion : increment of total energy < .1000000D-08
                  and increment of one-electron energy < .1000000D-05

  MOs are in ASCII format !


 reading orbital data $scfmo  from file mos
 orbital characterization : scfconv=9

 DSCF restart information will be dumped onto file mos

 
                                              current damping :  0.700
 ITERATION  ENERGY          1e-ENERGY        2e-ENERGY     RMS[dD(SAO)]   TOL
   1  -78.050979549265    -170.41356416     58.958492843    0.000D+00 0.117D-12
          max. resid. norm for Fia-block=  1.994D-01 for orbital      2a         
          max. resid. fock norm         =  6.263D-01 for orbital    232a         
          Delta Eig. =    46.9628594213 eV 
 
                                              current damping :  0.650
 ITERATION  ENERGY          1e-ENERGY        2e-ENERGY     RMS[dD(SAO)]   TOL
   2  -78.066222156859    -170.13440262     58.664088700    0.656D-03 0.760D-13
          Norm of current diis error: 0.41953    
          max. resid. norm for Fia-block=  8.900D-02 for orbital      2a         
          max. resid. fock norm         =  2.519D-01 for orbital    234a         
          Delta Eig. =    19.0507326889 eV 
 
                                              current damping :  0.600
 ITERATION  ENERGY          1e-ENERGY        2e-ENERGY     RMS[dD(SAO)]   TOL
   3  -78.069307962518    -170.16998007     58.696580339    0.311D-03 0.571D-13
          Norm of current diis error: 0.18043    
          max. resid. norm for Fia-block=  3.616D-02 for orbital      2a         
          max. resid. fock norm         =  1.010D-01 for orbital    232a         
          Delta Eig. =     8.0397399138 eV 
 
                                              current damping :  0.650
 ITERATION  ENERGY          1e-ENERGY        2e-ENERGY     RMS[dD(SAO)]   TOL
   4  -78.069947280844    -170.14759589     58.673556839    0.137D-03 0.502D-13
          Norm of current diis error: 0.71916E-01
          max. resid. norm for Fia-block=  1.368D-02 for orbital      2a         
          max. resid. fock norm         =  3.783D-02 for orbital    232a         
          Delta Eig. =     2.9125850330 eV 
 
                                              current damping :  0.500
 ITERATION  ENERGY          1e-ENERGY        2e-ENERGY     RMS[dD(SAO)]   TOL
   5  -78.070053026754    -170.14209208     58.667947290    0.518D-04 0.461D-13
          Norm of current diis error: 0.30092E-01
          max. resid. norm for Fia-block=  5.386D-03 for orbital      2a         
          max. resid. fock norm         =  1.492D-02 for orbital    232a         
 mo-orthogonalization: Cholesky decomposition
          Delta Eig. =     1.2645471788 eV 
 
                                              current damping :  0.350
 ITERATION  ENERGY          1e-ENERGY        2e-ENERGY     RMS[dD(SAO)]   TOL
   6  -78.070073938075    -170.13957880     58.665413097    0.235D-04 0.422D-13
          Norm of current diis error: 0.10950E-01
          max. resid. norm for Fia-block=  1.784D-03 for orbital      2a         
          max. resid. fock norm         =  4.980D-03 for orbital    232a         
          Delta Eig. =     0.4694007167 eV 
 
                                              current damping :  0.200
 ITERATION  ENERGY          1e-ENERGY        2e-ENERGY     RMS[dD(SAO)]   TOL
   7  -78.070077172521    -170.13851625     58.664347316    0.947D-05 0.385D-13
          Norm of current diis error: 0.32852E-02
          max. resid. norm for Fia-block=  4.572D-04 for orbital      2a         
          max. resid. fock norm         =  1.287D-03 for orbital    232a         
          Delta Eig. =     0.1360597609 eV 
 
                                              current damping :  0.050
 ITERATION  ENERGY          1e-ENERGY        2e-ENERGY     RMS[dD(SAO)]   TOL
   8  -78.070077532260    -170.13825464     58.664085342    0.340D-05 0.348D-13
          Norm of current diis error: 0.75617E-03
          max. resid. norm for Fia-block=  8.071D-05 for orbital      8a         
          max. resid. fock norm         =  2.159D-04 for orbital    232a         
          Delta Eig. =     0.0262673456 eV 
 
                                              current damping :  0.050
 ITERATION  ENERGY          1e-ENERGY        2e-ENERGY     RMS[dD(SAO)]   TOL
   9  -78.070077559405    -170.13812988     58.663960560    0.114D-05 0.319D-13
          Norm of current diis error: 0.13655E-03
          max. resid. norm for Fia-block=  1.713D-05 for orbital      8a         
          max. resid. fock norm         =  1.713D-05 for orbital      8a         
          Delta Eig. =     0.0010905578 eV 
 
                                              current damping :  0.050
 ITERATION  ENERGY          1e-ENERGY        2e-ENERGY     RMS[dD(SAO)]   TOL
  10  -78.070077560775    -170.13812755     58.663958226    0.314D-06 0.302D-13
          Norm of current diis error: 0.35951E-04
          max. resid. norm for Fia-block=  6.138D-06 for orbital      8a         
          max. resid. fock norm         =  6.138D-06 for orbital      8a         
 mo-orthogonalization: Cholesky decomposition
          Delta Eig. =     0.0001148885 eV 

 DENSITY CONVERGED !

 
                                              current damping :  0.050
 ITERATION  ENERGY          1e-ENERGY        2e-ENERGY     RMS[dD(SAO)]   TOL
  11  -78.070077560889    -170.13811470     58.663945373    0.981D-07 0.334D-13
          Norm of current diis error: 0.10696E-04
          max. resid. norm for Fia-block=  1.578D-06 for orbital      8a         
          max. resid. fock norm         =  1.578D-06 for orbital      8a         
          Delta Eig. =     0.0000379346 eV 

 DENSITY CONVERGED !

 
                                              current damping :  0.100
 ITERATION  ENERGY          1e-ENERGY        2e-ENERGY     RMS[dD(SAO)]   TOL
  12  -78.070077560896    -170.13811777     58.663948445    0.251D-07 0.336D-13
          Norm of current diis error: 0.24710E-05
          max. resid. norm for Fia-block=  4.105D-07 for orbital      8a         
          max. resid. fock norm         =  4.105D-07 for orbital      8a         
          Delta Eig. =     0.0000148325 eV 

 ENERGY & DENSITY CONVERGED !

 
                                              current damping :  0.150
 ITERATION  ENERGY          1e-ENERGY        2e-ENERGY     RMS[dD(SAO)]   TOL
  13  -78.070077560898    -170.13811589     58.663946561    0.460D-08 0.334D-13
          max. resid. norm for Fia-block=  6.232D-08 for orbital      5a         
          max. resid. fock norm         =  6.232D-08 for orbital      5a         

 convergence criteria satisfied after    13 iterations


                  ------------------------------------------ 
                 |  total energy      =    -78.07007756090  |
                  ------------------------------------------ 
                 :  kinetic energy    =     77.95535335920  :
                 :  potential energy  =   -156.02543092010  :
                 :  virial theorem    =      1.99853049715  :
                 :  wavefunction norm =      1.00000000000  :
                  .......................................... 


 orbitals $scfmo  will be written to file mos

    irrep                  4a          5a          6a          7a          8a   
 eigenvalues H         -0.79365    -0.64447    -0.58809    -0.50866    -0.37706
            eV         -21.5964    -17.5370    -16.0029    -13.8415    -10.2605
 occupation              2.0000      2.0000      2.0000      2.0000      2.0000 

    irrep                  9a         10a         11a         12a         13a   
 eigenvalues H          0.12185     0.12883     0.13343     0.15203     0.18513
            eV           3.3158      3.5057      3.6308      4.1369      5.0377
 
 
 
 
 ==============================================================================
                           electrostatic moments
 ==============================================================================

 reference point for electrostatic moments:    0.00000   0.00000   0.00000

 
              nuc           elec       ->  total
 ------------------------------------------------------------------------------
                          charge      
 ------------------------------------------------------------------------------
          16.000000     -16.000000       0.000000
 
 ------------------------------------------------------------------------------
                       dipole moment  
 ------------------------------------------------------------------------------
   x       1.861012      -1.861409      -0.000397
   y       2.277452      -2.279528      -0.002077
   z     102.034361    -102.030044       0.004317
 
   | dipole moment | =     0.0048 a.u. =     0.0122 debye 
 
 ------------------------------------------------------------------------------
                     quadrupole moment
 ------------------------------------------------------------------------------
  xx      40.635370     -49.691705      -9.056335
  yy      10.373854     -20.092463      -9.718609
  zz     653.044826    -664.405429     -11.360603
  xy      -2.222946       2.130250      -0.092696
  xz      13.633938     -13.470118       0.163820
  yz      19.164352     -18.119614       1.044738
 
     1/3  trace=     -10.045182
     anisotropy=       2.757340
 
 ==============================================================================
 


    ------------------------------------------------------------------------
         total  cpu-time :  3 minutes and 48 seconds
         total wall-time :  38.78 seconds
    ------------------------------------------------------------------------

   ****  dscf : all done  ****


    2019-04-02 13:32:05.787 

