 hostname is         gplogin1.local

 eiger (gplogin1.local) : TURBOMOLE V7.0.2( ) 8 Jan 2016 at 10:54:38
 Copyright (C) 2016 TURBOMOLE GmbH, Karlsruhe


    2017-11-14 00:14:11.161 

                                                                                
  
 HOMO-LUMO Separation
   HOMO:    21.    21 a     -0.14217213 H =     -3.86870 eV
   LUMO:    22.    22 a     -0.08845575 H =     -2.40700 eV
   Gap :                    +0.05371638 H =     +1.46170 eV
 
Number of MOs=   2688, Electrons=     42.00, Symmetry: c1   
 
   Nr.   Orbital    Occupation       Energy
   38.    38 a                     +0.078618 H =        +2.139 eV
   37.    37 a                     +0.077177 H =        +2.100 eV
   36.    36 a                     +0.075750 H =        +2.061 eV
   35.    35 a                     +0.065187 H =        +1.774 eV
   34.    34 a                     +0.060436 H =        +1.645 eV
   33.    33 a                     +0.059741 H =        +1.626 eV
   32.    32 a                     +0.057735 H =        +1.571 eV
   31.    31 a                     +0.049281 H =        +1.341 eV
   30.    30 a                     +0.039359 H =        +1.071 eV
   29.    29 a                     +0.039128 H =        +1.065 eV
   28.    28 a                     +0.036082 H =        +0.982 eV
   27.    27 a                     +0.034849 H =        +0.948 eV
   26.    26 a                     +0.018698 H =        +0.509 eV
   25.    25 a                     +0.001957 H =        +0.053 eV
   24.    24 a                     -0.011415 H =        -0.311 eV
   23.    23 a                     -0.014706 H =        -0.400 eV
   22.    22 a                     -0.088456 H =        -2.407 eV
   21.    21 a        2.000        -0.142172 H =        -3.869 eV
   20.    20 a        2.000        -0.177262 H =        -4.824 eV
   19.    19 a        2.000        -0.184074 H =        -5.009 eV
   18.    18 a        2.000        -0.281462 H =        -7.659 eV
   17.    17 a        2.000        -0.296915 H =        -8.079 eV
   16.    16 a        2.000        -0.340677 H =        -9.270 eV
   15.    15 a        2.000        -0.354246 H =        -9.640 eV
   14.    14 a        2.000        -0.356828 H =        -9.710 eV
   13.    13 a        2.000        -0.425347 H =       -11.574 eV
   12.    12 a        2.000        -0.629533 H =       -17.130 eV
   11.    11 a        2.000        -0.817966 H =       -22.258 eV
   10.    10 a        2.000        -0.920434 H =       -25.046 eV
    9.     9 a        2.000        -1.109403 H =       -30.188 eV
    8.     8 a        2.000        -1.113099 H =       -30.289 eV
    7.     7 a        2.000        -1.113423 H =       -30.298 eV
    6.     6 a        2.000        -2.163718 H =       -58.878 eV
