
   OpenMP run-time library returned nthreads = 28

 rirpa (c-19-413) : TURBOMOLE V7.3.1 () 25 Feb 2019 at 10:13:53
 Copyright (C) 2019 TURBOMOLE GmbH, Karlsruhe


    2019-11-27 01:28:47.533 

 
 
    *************************************************************************
    *************************** PROGRAM RIRPA *******************************
    ******                                                             ******
    ******              H. Eshuis, J. E. Bates and F. Furche           ******
    ******                                                             ******
    ****** Nov 2011                                                    ******
    ****** Copyright TURBOMOLE GmbH                                    ******
    *************************************************************************
    
    
                                References:                                  
    
                   RIRPA:                                                    
                     H. Eshuis, J. Yarkony and F. Furche                     
                     Fast computation of molecular random phase              
                     approximation correlation energies using resolution     
                     of the identity imaginary frequency integration         
                     J. Chem. Phys. 132: 234114 (2010)                       
    
                     H. Eshuis, J. E. Bates and F. Furche                    
                     Electron correlation methods based on                   
                     the random phase approximation                          
                     Theor. Chem. Acc.  131: 1084 (2012)                     
    
                   TWO-COMPONENT RIRPA:                                      
                     M. Kuehn                                                
                     Correlation energies from the                           
                     two-component random-phase approximation                
                     J. Chem. Theory Comput. 10: 623 (2014)                  
    
                   RIRPA GRADIENTS:                                          
                     Asbjoern M. Burow, Jefferson E. Bates, Filipp Furche*,  
                     and Henk Eshuis                                         
                     Analytical First-Order Molecular Properties and Forces  
                     within the Adiabatic Connection Random Phase            
                     Approximation                                           
                     J. Chem. Theory Comput. 10: 180 (2014)                  
    
    
    
      ... OpenMP parallelization enabled, threads:   28

   *-----------------------------------------------------------------------*
   |                     program will use 28 thread(s)                     |
   *-----------------------------------------------------------------------*
 
                FOUND RI-J FLAG
 
  HF exact exchange energy will be computed using RI-J.
 
  The HXX energy will NOT be computed due to nohxx option. 
 


              +--------------------------------------------------+
              | Atomic coordinate, charge and isotop information |
              +--------------------------------------------------+

                    atomic coordinates            atom    charge  isotop
         -1.02245371    0.05589092   -0.39494346    n      7.000     0
          0.10498062   -1.48554792   -0.24621874    h      1.000     0
         -2.77727268   -0.51912374    0.10042644    h      1.000     0
         -0.14890903    1.96983231    1.39548501    c      6.000     0
         -1.36089182    3.62716636    1.26985866    h      1.000     0
         -0.09591908    1.36782711    3.37413347    h      1.000     0
          1.75070035    2.56360964    0.87305194    h      1.000     0
          4.42545556   -2.37500800    0.05698091    n      7.000     0
          5.06500751   -0.83990019   -1.85487860    c      6.000     0
          4.03951509   -1.11303739   -3.60359593    h      1.000     0
          6.90055380    1.03496097   -1.66521245    c      6.000     0
          7.32546333    2.21479313   -3.27686669    h      1.000     0
          8.14936055    1.35534786    0.62563534    c      6.000     0
          9.58149695    2.79576767    0.84556947    h      1.000     0
          7.50660250   -0.22250265    2.62708766    c      6.000     0
          8.41856242   -0.05155379    4.44632825    h      1.000     0
          5.64752477   -2.04568965    2.25068562    c      6.000     0
          5.10690373   -3.29999085    3.77495886    h      1.000     0
 
       center of nuclear mass  :    4.33755557   -0.10254272    0.39458465
       center of nuclear charge:    4.24392321   -0.04369362    0.42441206
              +-------------------------------------------------+
              |        Rotational Constants Section             |
              +-------------------------------------------------+
                                   Center of Mass [a.u]:
               4.33755556695176        -0.10254272277345         0.39458464894452
                     Principal Moments of Inertia [a.u.]
             564.94258259085188      1491.58760413178561      1544.15576386923590
                       Rotational constants A,B,C [a.u.]
               0.00088504569386         0.00033521329798         0.00032380153071
                     Rotational constants A,B,C [cm**-1]
               0.10655894661077         0.04035947089510         0.03898550127197
                        Rotational constants A,B,C [MHz]
            3194.55685263347686      1209.94649832220398      1168.75592526874834

   * BASIS SET information:

              +--------------------------------------------------+
              |               basis set information              |
              +--------------------------------------------------+

              we will work with the 1s 3p 5d 7f 9g ... basis set
              ...i.e. with spherical basis functions...

   type   atoms  prim   cont   basis
   ---------------------------------------------------------------------------
    n        2     50     30   cc-pVTZ   [4s3p2d1f|18s5p2d1f]
    h       10     16     14   cc-pVTZ   [3s2p1d|5s2p1d]
    c        6     50     30   cc-pVTZ   [4s3p2d1f|18s5p2d1f]
   ---------------------------------------------------------------------------
   total:   18    560    380
   ---------------------------------------------------------------------------

   total number of primitive shells          :   60
   total number of contracted shells         :  140
   total number of cartesian basis functions :  430
   total number of SCF-basis functions       :  380


   * AUXILIARY BASIS SET information:

              +--------------------------------------------------+
              |               basis set information              |
              +--------------------------------------------------+

              we will work with the 1s 3p 5d 7f 9g ... basis set
              ...i.e. with spherical basis functions...

   type   atoms  prim   cont   basis
   ---------------------------------------------------------------------------
    n        2     81     81   cc-pVTZ   [8s6p5d3f1g|8s6p5d3f1g]
    h       10     30     30   cc-pVTZ   [4s3p2d1f|4s3p2d1f]
    c        6     81     81   cc-pVTZ   [8s6p5d3f1g|8s6p5d3f1g]
   ---------------------------------------------------------------------------
   total:   18    948    948
   ---------------------------------------------------------------------------

   total number of primitive shells          :   56
   total number of contracted shells         :  284
   total number of cartesian basis functions : 1158
   total number of SCF-basis functions       :  948


   * RIJ AUXILIARY BASIS SET information:

              +--------------------------------------------------+
              |               basis set information              |
              +--------------------------------------------------+

              we will work with the 1s 3p 5d 7f 9g ... basis set
              ...i.e. with spherical basis functions...

   type   atoms  prim   cont   basis
   ---------------------------------------------------------------------------
    n        2     70     49   cc-pVTZ   [6s4p3d1f1g|12s5p4d2f1g]
    h       10     16     11   cc-pVTZ   [3s1p1d|5s2p1d]
    c        6     70     49   cc-pVTZ   [6s4p3d1f1g|12s5p4d2f1g]
   ---------------------------------------------------------------------------
   total:   18    720    502
   ---------------------------------------------------------------------------

   total number of primitive shells          :   56
   total number of contracted shells         :  170
   total number of cartesian basis functions :  608
   total number of SCF-basis functions       :  502

  No keyword $dft found! - HARTREE FOCK CALCULATION

 reading orbital data $scfmo  from file mos
 orbital characterization : scfconv=9

 integral neglect threshold       :  0.31E+02

 scfconv                     9

 MAXIMUM CORE MEMORY WHICH CAN BE ALLOCATED DYNAMICALLY = 84000 MiB
              ( or 11010048000 double words per process)


 there are 1 real representations :   a   

 maximum number of shells which are related by symmetry :  1

 entered riccmos at 2019-11-27 01:28:47.730
  MOs are in ASCII format !


 reading orbital data $scfmo  from file mos
 orbital characterization : scfconv=9
 time elapsed for calculating density matrices :   0.177 sec



              +--------------------------------------------+
              | list of orbitals that will be kept frozen: |
              +--------------------------------------------+
              |   irrep   index      energy     occ/vir    |
              +--------------------------------------------+
              |   a         1      -15.5681     occupied   |
              |   a         2      -15.5169     occupied   |
              |   a         3      -11.2778     occupied   |
              |   a         4      -11.2756     occupied   |
              |   a         5      -11.2621     occupied   |
              |   a         6      -11.2437     occupied   |
              |   a         7      -11.2427     occupied   |
              |   a         8      -11.2256     occupied   |
              +--------------------------------------------+



   Molecular Orbital Statistic:
   ============================

   -----------------------------
   orbitals in total:
   -----------------------------
    frozen occupied :      8
    active occupied :     22
    active virtual  :    350
    frozen virtual  :      0
    all together    :    380
   -----------------------------


     time in riccmoinp     cpu:  2.58 sec    wall:  0.09 sec    ratio: 28.1
     time in scfdens       cpu:  0.18 sec    wall:  0.01 sec    ratio: 29.8
     time in mkiao         cpu:  0.00 sec    wall:  0.00 sec    ratio:  0.0
     time in rir12loc      cpu:  0.00 sec    wall:  0.00 sec    ratio:  0.0
     time in riccmos       cpu:  3.36 sec    wall:  0.12 sec    ratio: 28.0
 leave riccmos at 2019-11-27 01:28:47.850

     total memory allocated for calculation of (Q|P)**(-1/2) : 11 MiB


     calculation of (P|Q) ...
     time in lp2sym        cpu:  0.74 sec    wall:  0.03 sec    ratio: 27.5


     calculation of the Cholesky decomposition of (P|Q)**(-1) ...
     time in invmetri      cpu:  1.74 sec    wall:  0.07 sec    ratio: 26.7

   threshold for RMS(d[D]) in SCF was     :  0.10E-06
   integral neglect threshold             :  0.29E-13
   derivative integral neglect threshold  :  0.10E-06


 setting up bound for integral derivative estimation

 increment for numerical differentiation : 0.00050000
 total memory allocated for calculation of (Q|P)**(-1/2) : 11 MiB
 Dividing biap into                  16589  block chunks,
 using                     2 MiB per block
 Reserved                  41993 MiB for BLAS routines
 Estimated total memory usage:                  83995 MiB
 number of passes for ispin    1
 =    1
 
 Number of eigenvalues < 6e-3:                      0
 
 
            -----------------------------
            Complex frequency integration
            -----------------------------
 
 Number of Clenshaw-Curtis nodes:                    100
 Optimized scaling parameter    :    1.00000000000000     
 Sensitivity measure            :  -8.746892099509296E-013
 
 Done with rirpa frequency point #                     1
 Done with rirpa frequency point #                     2
 Done with rirpa frequency point #                     3
 Done with rirpa frequency point #                     4
 Done with rirpa frequency point #                     5
 Done with rirpa frequency point #                     6
 Done with rirpa frequency point #                     7
 Done with rirpa frequency point #                     8
 Done with rirpa frequency point #                     9
 Done with rirpa frequency point #                    10
 Done with rirpa frequency point #                    11
 Done with rirpa frequency point #                    12
 Done with rirpa frequency point #                    13
 Done with rirpa frequency point #                    14
 Done with rirpa frequency point #                    15
 Done with rirpa frequency point #                    16
 Done with rirpa frequency point #                    17
 Done with rirpa frequency point #                    18
 Done with rirpa frequency point #                    19
 Done with rirpa frequency point #                    20
 Done with rirpa frequency point #                    21
 Done with rirpa frequency point #                    22
 Done with rirpa frequency point #                    23
 Done with rirpa frequency point #                    24
 Done with rirpa frequency point #                    25
 Done with rirpa frequency point #                    26
 Done with rirpa frequency point #                    27
 Done with rirpa frequency point #                    28
 Done with rirpa frequency point #                    29
 Done with rirpa frequency point #                    30
 Done with rirpa frequency point #                    31
 Done with rirpa frequency point #                    32
 Done with rirpa frequency point #                    33
 Done with rirpa frequency point #                    34
 Done with rirpa frequency point #                    35
 Done with rirpa frequency point #                    36
 Done with rirpa frequency point #                    37
 Done with rirpa frequency point #                    38
 Done with rirpa frequency point #                    39
 Done with rirpa frequency point #                    40
 Done with rirpa frequency point #                    41
 Done with rirpa frequency point #                    42
 Done with rirpa frequency point #                    43
 Done with rirpa frequency point #                    44
 Done with rirpa frequency point #                    45
 Done with rirpa frequency point #                    46
 Done with rirpa frequency point #                    47
 Done with rirpa frequency point #                    48
 Done with rirpa frequency point #                    49
 Done with rirpa frequency point #                    50
 Done with rirpa frequency point #                    51
 Done with rirpa frequency point #                    52
 Done with rirpa frequency point #                    53
 Done with rirpa frequency point #                    54
 Done with rirpa frequency point #                    55
 Done with rirpa frequency point #                    56
 Done with rirpa frequency point #                    57
 Done with rirpa frequency point #                    58
 Done with rirpa frequency point #                    59
 Done with rirpa frequency point #                    60
 Done with rirpa frequency point #                    61
 Done with rirpa frequency point #                    62
 Done with rirpa frequency point #                    63
 Done with rirpa frequency point #                    64
 Done with rirpa frequency point #                    65
 Done with rirpa frequency point #                    66
 Done with rirpa frequency point #                    67
 Done with rirpa frequency point #                    68
 Done with rirpa frequency point #                    69
 Done with rirpa frequency point #                    70
 Done with rirpa frequency point #                    71
 Done with rirpa frequency point #                    72
 Done with rirpa frequency point #                    73
 Done with rirpa frequency point #                    74
 Done with rirpa frequency point #                    75
 Done with rirpa frequency point #                    76
 Done with rirpa frequency point #                    77
 Done with rirpa frequency point #                    78
 Done with rirpa frequency point #                    79
 Done with rirpa frequency point #                    80
 Done with rirpa frequency point #                    81
 Done with rirpa frequency point #                    82
 Done with rirpa frequency point #                    83
 Done with rirpa frequency point #                    84
 Done with rirpa frequency point #                    85
 Done with rirpa frequency point #                    86
 Done with rirpa frequency point #                    87
 Done with rirpa frequency point #                    88
 Done with rirpa frequency point #                    89
 Done with rirpa frequency point #                    90
 Done with rirpa frequency point #                    91
 Done with rirpa frequency point #                    92
 Done with rirpa frequency point #                    93
 Done with rirpa frequency point #                    94
 Done with rirpa frequency point #                    95
 Done with rirpa frequency point #                    96
 Done with rirpa frequency point #                    97
 Done with rirpa frequency point #                    98
 Done with rirpa frequency point #                    99
 Done with rirpa frequency point #                   100
 


 RI-RPA correlation energy: -0.1637284765382917E+01
 
 
 HXX Energy calculation skipped due to nohxx option
 

                  --------------------------------------------------- 
                 |  HXX+RIRPA total energy     =     -1.63728476538  |
                  ---------------------------------------------------- 
                 :  RIRPA correlation energy   =     -1.63728476538  :
                 :  HXX total energy           =      0.00000000000  :
                 :  Hartree energy             =      0.00000000000  :
                 :  Exact Exchange energy      =      0.00000000000  :
                  .................................................... 


    ------------------------------------------------------------------------
    Rirpa profiling                cpu                    wall         ratio
    ------------------------------------------------------------------------
    module                         sec     %               sec     %
    ------------------------------------------------------------------------
    RIRPA                       189.9  100.00            7.1  100.00  26.7
    STARTUP                       5.1    2.67            0.2    2.72  26.3
    riccmos                       3.4    1.77            0.1    1.69  28.0
    riccaux                       2.5    1.33            0.1    1.31  27.3
    riccbound                     5.5    2.88            0.5    6.73  11.4
    ccmkbaoi                     11.9    6.28            0.4    6.32  26.6
    cc3idxnrm                     1.0    0.53            0.0    0.51  28.0
    ecrpa                       160.2   84.37            5.7   80.55  28.0
    tread                        51.2   26.94            1.8   25.82  27.9
    tqbuild                      64.1   33.74            2.3   32.18  28.0
    trpaln                       15.3    8.05            0.5    7.64  28.1
    ------------------------------------------------------------------------
    sum                         510.0  268.57           18.9  265.51  27.0
    ------------------------------------------------------------------------


    ------------------------------------------------------------------------
         total  cpu-time :  3 minutes and 11 seconds
         total wall-time :   7.16 seconds
    ------------------------------------------------------------------------

   ****  rirpa : all done  ****


    2019-11-27 01:28:54.646 

