
 eiger (gplogin3.local) : TURBOMOLE V7.2 ( 21285 ) 30 Jun 2017 at 11:51:10
 Copyright (C) 2017 TURBOMOLE GmbH, Karlsruhe


    2017-11-10 14:01:14.838 

                                                                                
  
 HOMO-LUMO Separation
   HOMO:    24.    24 a     -0.21959780 H =     -5.97556 eV
   LUMO:    25.    25 a     +0.00386863 H =     +0.10527 eV
   Gap :                    +0.22346643 H =     +6.08083 eV
 
Number of MOs=    320, Electrons=     48.00, Symmetry: c1   
 
   Nr.   Orbital    Occupation       Energy
   41.    41 a                     +0.242478 H =        +6.598 eV
   40.    40 a                     +0.238238 H =        +6.483 eV
   39.    39 a                     +0.204875 H =        +5.575 eV
   38.    38 a                     +0.175197 H =        +4.767 eV
   37.    37 a                     +0.161498 H =        +4.395 eV
   36.    36 a                     +0.151389 H =        +4.119 eV
   35.    35 a                     +0.130300 H =        +3.546 eV
   34.    34 a                     +0.129589 H =        +3.526 eV
   33.    33 a                     +0.101540 H =        +2.763 eV
   32.    32 a                     +0.097741 H =        +2.660 eV
   31.    31 a                     +0.094616 H =        +2.575 eV
   30.    30 a                     +0.084658 H =        +2.304 eV
   29.    29 a                     +0.064873 H =        +1.765 eV
   28.    28 a                     +0.060771 H =        +1.654 eV
   27.    27 a                     +0.044339 H =        +1.207 eV
   26.    26 a                     +0.035559 H =        +0.968 eV
   25.    25 a                     +0.003869 H =        +0.105 eV
   24.    24 a        2.000        -0.219598 H =        -5.976 eV
   23.    23 a        2.000        -0.266052 H =        -7.240 eV
   22.    22 a        2.000        -0.277027 H =        -7.538 eV
   21.    21 a        2.000        -0.292570 H =        -7.961 eV
   20.    20 a        2.000        -0.294782 H =        -8.021 eV
   19.    19 a        2.000        -0.306087 H =        -8.329 eV
   18.    18 a        2.000        -0.317470 H =        -8.639 eV
   17.    17 a        2.000        -0.335623 H =        -9.133 eV
   16.    16 a        2.000        -0.375062 H =       -10.206 eV
   15.    15 a        2.000        -0.405945 H =       -11.046 eV
   14.    14 a        2.000        -0.430980 H =       -11.728 eV
   13.    13 a        2.000        -0.455807 H =       -12.403 eV
   12.    12 a        2.000        -0.501511 H =       -13.647 eV
   11.    11 a        2.000        -0.513379 H =       -13.970 eV
   10.    10 a        2.000        -0.629592 H =       -17.132 eV
    9.     9 a        2.000        -0.640137 H =       -17.419 eV


    ------------------------------------------------------------------------
         total  cpu-time :   0.09 seconds
         total wall-time :   0.10 seconds
    ------------------------------------------------------------------------

   ****  eiger : all done  ****


    2017-11-10 14:01:14.915 

