 operating system is UNIX !

 dscf (gplogin2.gp.local) : TURBOMOLE V7.3 ( 22118 ) 1 Jul 2018 at 20:38:15
 Copyright (C) 2018 TURBOMOLE GmbH, Karlsruhe


    2019-02-08 17:18:10.490 

no calculation of wave function, analysis of properties only


                             d s c f - program

                   idea & directorship : reinhart ahlrichs
                   program development : marco haeser
                                         michael baer
                           dft version : oliver treutler


                          quantum chemistry group
                          universitaet  karlsruhe
                                  germany




                          References             
                                                 
          TURBOMOLE:                             
              R. Ahlrichs, M. Baer, M. Haeser, H. Horn, and
              C. Koelmel
              Electronic structure calculations on workstation
              computers: the program system TURBOMOLE
              Chem. Phys. Lett. 162: 165 (1989)
          Density Functional:                              
              O. Treutler and R. Ahlrichs                      
              Efficient Molecular Numerical Integration Schemes
              J. Chem. Phys. 102: 346 (1995)                   
          Parallel Version:                                
              Performance of parallel TURBOMOLE for Density    
              Functional Calculations                          
              M. v. Arnim and R. Ahlrichs                      
              J. Comp. Chem. 19: 1746 (1998)                   
                                         




              +--------------------------------------------------+
              | Atomic coordinate, charge and isotop information |
              +--------------------------------------------------+

                    atomic coordinates            atom    charge  isotop
         -0.20018604   -7.87471963   -2.09254772    c      6.000     0
          0.14048088   -7.78855065    2.40059653    c      6.000     0
          1.20752687   -2.47808280    6.62432958    c      6.000     0
          0.38048851   -6.37138420    4.80489514    c      6.000     0
         -0.43160402   -6.54951225   -4.54962049    c      6.000     0
         -1.22658032   -2.72228674   -6.51743765    c      6.000     0
         -0.03156601  -11.49360139    0.22424241    c      6.000     0
          1.95946924    0.20465048    6.21240842    c      6.000     0
          4.31732221    0.74017558    5.08327056    c      6.000     0
          0.29504563    2.18507429    6.88434032    c      6.000     0
         -1.95586029   -0.01922565   -6.21154766    c      6.000     0
         -0.27677211    1.91863032   -6.96582757    c      6.000     0
         -4.30915690    0.58110258   -5.10539054    c      6.000     0
          5.05336242    3.34022784    4.68510069    c      6.000     0
         -5.02577334    3.20106925   -4.81811512    c      6.000     0
          1.05924493    4.77693321    6.48480601    c      6.000     0
         -1.02176169    4.53059988   -6.67688095    c      6.000     0
         -0.03204465   -6.47630691    0.12819203    c      6.000     0
         -3.37852768    5.09837874   -5.63582048    c      6.000     0
          3.41979449    5.28253776    5.42038007    c      6.000     0
         -0.90650469   -3.81776637   -8.90981543    c      6.000     0
          0.87956774   -3.47807057    9.05696306    c      6.000     0
         -6.03177816   -1.30074758   -4.22509558    c      6.000     0
          6.02647310   -1.19023914    4.28514102    c      6.000     0
          2.20139976    1.40987732   -7.89054036    c      6.000     0
         -2.18657799    1.73429082    7.82943670    c      6.000     0
          0.06252407   -7.52664554    7.15917791    c      6.000     0
         -0.12262301   -7.79697437   -6.85758807    c      6.000     0
         -7.37731692    3.80103816   -3.65444222    c      6.000     0
          7.40953243    3.87269520    3.49808695    c      6.000     0
          0.71116379    6.47359495   -7.36886379    c      6.000     0
         -0.65946218    6.76025040    7.09305437    c      6.000     0
          0.30013978   -6.03371594    9.31290024    c      6.000     0
         -0.34821139   -6.38598709   -9.06716633    c      6.000     0
         -8.27391543   -0.64638514   -3.09874551    c      6.000     0
          8.27388125   -0.60099858    3.13375965    c      6.000     0
          3.82390490    3.33956272   -8.51760555    c      6.000     0
         -8.95648947    1.93031696   -2.79979377    c      6.000     0
         -3.79490143    3.70072318    8.37336760    c      6.000     0
          8.97558501    1.95564500    2.72601583    c      6.000     0
         -3.02420885    6.24525058    8.01874392    c      6.000     0
          3.07161725    5.90234954   -8.27221529    c      6.000     0
         -0.96623821   -4.06816982   -4.38705349    n      7.000     0
          0.93463579   -3.90248213    4.54701095    n      7.000     0
          0.10554206  -10.33600376    2.46911960    n      7.000     0
         -0.16571397  -10.42291322   -2.06350296    n      7.000     0
         -5.52888817   -3.27555082   -4.41711073    h      1.000     0
         -0.03511093   -4.43927831    0.08728609    h      1.000     0
          2.83236466   -0.53545467   -8.03468801    h      1.000     0
          5.50935321   -3.15139416    4.56123835    h      1.000     0
         -2.83184000   -0.19847335    8.05601913    h      1.000     0
         -9.52895647   -2.10940058   -2.39820891    h      1.000     0
         -3.92715037    7.06644070   -5.40605537    h      1.000     0
          3.98257509    7.23493035    5.10669474    h      1.000     0
         -0.35721702   -9.53005090    7.25230480    h      1.000     0
          0.28148120   -9.80567179   -6.87338031    h      1.000     0
         -1.12559083   -2.67141720  -10.59669494    h      1.000     0
        -10.72589693    2.41303543   -1.87962821    h      1.000     0
          1.10912985   -2.26969258   10.69853495    h      1.000     0
          7.92573692    5.83551597    3.18331781    h      1.000     0
         -7.87967444    5.77922830   -3.42525112    h      1.000     0
         -0.05921975    8.69924848    6.77637008    h      1.000     0
          0.12561351    8.42869880   -7.13412106    h      1.000     0
         -0.03362509  -13.54968985    0.26382633    h      1.000     0
          9.51807018   -2.10170030    2.49641206    h      1.000     0
         -5.69172448    3.30384552    9.04846421    h      1.000     0
          5.71802144    2.90061961   -9.17403300    h      1.000     0
         10.75009737    2.38566125    1.78965968    h      1.000     0
         -4.33369591    7.76892151    8.42994064    h      1.000     0
          4.39168670    7.39749361   -8.74903426    h      1.000     0
         -0.10685690   -7.27991648  -10.89910092    h      1.000     0
          0.05173235   -6.85454176   11.17779719    h      1.000     0
          2.44708640    1.91961895   -1.11989624    c      6.000     0
         -2.43984093    1.98960179    1.05034308    c      6.000     0
         -1.16926833   -0.35056112    0.56103313    c      6.000     0
          1.16264323   -0.38495217   -0.51252382    c      6.000     0
         -1.17079523    4.30208170    0.41170836    c      6.000     0
          1.19557964    4.26912272   -0.59197886    c      6.000     0
         -4.85912328    2.00530366    2.12114805    c      6.000     0
          4.86350260    1.86690873   -2.19625118    c      6.000     0
          6.07016858   -0.44533712   -2.81739403    c      6.000     0
         -6.08756385   -0.26716773    2.83899207    c      6.000     0
         -6.18254576    4.29560535    2.54802137    c      6.000     0
          6.20609564    4.12426322   -2.72505056    c      6.000     0
          7.03568300   -2.35386544   -3.33760336    n      7.000     0
         -7.24292873    6.19716894    2.87564012    n      7.000     0
          7.28384225    5.99998349   -3.13476183    n      7.000     0
         -7.07120857   -2.14339154    3.43688136    n      7.000     0
         -2.11281301   -2.10434673    1.04105016    h      1.000     0
         -2.12183961    6.08049497    0.78457728    h      1.000     0
          2.15902028    6.02050259   -1.05111198    h      1.000     0
          2.09896318   -2.16664634   -0.89310536    h      1.000     0
 
       center of nuclear mass  :   -0.00096570   -0.18204794    0.00350054
       center of nuclear charge:   -0.00086614   -0.16435788    0.00316069

              +--------------------------------------------------+
              |               basis set information              |
              +--------------------------------------------------+

              we will work with the 1s 3p 5d 7f 9g ... basis set
              ...i.e. with spherical basis functions...

   type   atoms  prim   cont   basis
   ---------------------------------------------------------------------------
    c       54     50     30   cc-pVTZ   [4s3p2d1f|18s5p2d1f]
    n        8     50     30   cc-pVTZ   [4s3p2d1f|18s5p2d1f]
    h       30     16     14   cc-pVTZ   [3s2p1d|5s2p1d]
   ---------------------------------------------------------------------------
   total:   92   3580   2280
   ---------------------------------------------------------------------------

   total number of primitive shells          :   60
   total number of contracted shells         :  800
   total number of cartesian basis functions : 2620
   total number of SCF-basis functions       : 2280


 integral neglect threshold       :  0.13E-13
 integral storage threshold THIZE :  0.10E-04
 integral storage threshold THIME :         5


 DENSITY CONVERGENCE CHECK SWITCHED ON !
 SCF CONVERGENCE IF RMS(delta[D]) <     0.1000000000E-06


 symmetry group of the molecule :   c1 

 the group has the following generators :
   c1(z)

    1 symmetry operations found

 there are 1 real representations :   a   

 maximum number of shells which are related by symmetry :  1


    mo occupation :
   irrep   mo's   occupied
    a     2280      205
 
 number of basis functions   :                   2280
 number of occupied orbitals :                    205
 

 automatic virtual orbital shift switched on 
      shift if e(lumo)-e(homo) < 0.10000000    


          ------------------------
          nuclear repulsion energy  :   9061.01319575    
          ------------------------


         -----------------
         -S,T+V- integrals
         -----------------

 1e-integrals will be neglected if expon. factor < 0.127556E-14
 
   Difference densities algorithm switched on.
   The maximal number of linear combinations of
   difference densities is                    20 .

 DIIS switched on: error vector is FDS-SDF
 Max. Iterations for DIIS is     :   5
 DIIS matrix (see manual) 
    Scaling factor of diagonals  :  1.200
    threshold for scaling factor :  0.000

 scf convergence criterion : increment of total energy < .1000000D-08
                  and increment of one-electron energy < .1000000D-05

  MOs are in ASCII format !


 reading orbital data $scfmo  from file mos
 orbital characterization : scfconv=9
 
 
 
 ==============================================================================
                           electrostatic moments
 ==============================================================================

 reference point for electrostatic moments:    0.00000   0.00000   0.00000

 
              nuc           elec       ->  total
 ------------------------------------------------------------------------------
                          charge      
 ------------------------------------------------------------------------------
         410.000000    -410.000000      -0.000000
 
 ------------------------------------------------------------------------------
                       dipole moment  
 ------------------------------------------------------------------------------
   x      -0.355116       0.358036       0.002919
   y     -67.386730      67.509201       0.122471
   z       1.295884      -1.293569       0.002315
 
   | dipole moment | =     0.1225 a.u. =     0.3114 debye 
 
 ------------------------------------------------------------------------------
                     quadrupole moment
 ------------------------------------------------------------------------------
  xx    7494.438467   -7780.869793    -286.431326
  yy    9778.576878  -10038.491313    -259.914435
  zz   11667.510866  -11916.474955    -248.964089
  xy       6.880920      -6.630666       0.250253
  xz     437.888587    -432.424611       5.463976
  yz      28.431625     -28.307840       0.123785
 
     1/3  trace=    -265.103283
     anisotropy=      34.687515



 ==============================================================================
                  MULLIKEN POPULATION ANALYSIS (CAO-BASIS)
 ==============================================================================

         BRUTTO POPULATIONS  
 
       values displayed are larger than   0.010000
 
 
 atomic populations from total density:
 
 atom      charge    n(s)      n(p)      n(d)      n(f)      n(g)
     1c      0.20636   3.09865   2.53561   0.14449   0.01488
     2c      0.20832   3.09759   2.53473   0.14449   0.01488
     3c     -0.02040   3.24312   2.60317   0.15932   0.01478
     4c      0.08118   3.15211   2.61813   0.13382   0.01477
     5c      0.08102   3.15159   2.61868   0.13394   0.01477
     6c     -0.02127   3.24386   2.60323   0.15941   0.01478
     7c      0.06302   3.21658   2.53927   0.16532   0.01581
     8c      0.03590   3.03294   2.81809   0.10172   0.01134
     9c     -0.01485   3.06298   2.84867   0.09105   0.01215
    10c      0.02381   3.03945   2.83358   0.09107   0.01209
    11c      0.03562   3.03328   2.81808   0.10167   0.01134
    12c      0.02373   3.03935   2.83380   0.09103   0.01209
    13c     -0.01394   3.06231   2.84843   0.09105   0.01215
    14c      0.10853   3.03853   2.75392   0.08688   0.01213
    15c      0.10801   3.03877   2.75423   0.08687   0.01213
    16c      0.12400   3.04258   2.73424   0.08703   0.01216
    17c      0.12400   3.04278   2.73405   0.08702   0.01216
    18c     -0.33126   3.30030   2.94639   0.07452   0.01005
    19c     -0.24826   3.31599   2.83180   0.09051   0.00996
    20c     -0.24856   3.31614   2.83196   0.09051   0.00996
    21c     -0.16674   3.23916   2.83123   0.08657   0.00977
    22c     -0.16684   3.23951   2.83096   0.08660   0.00977
    23c     -0.13244   3.21582   2.81923   0.08774   0.00966
    24c     -0.13185   3.21525   2.81918   0.08777   0.00966
    25c     -0.18671   3.24707   2.84138   0.08861   0.00965
    26c     -0.18629   3.24720   2.84083   0.08861   0.00965
    27c     -0.15895   3.24268   2.82254   0.08400   0.00973
    28c     -0.15926   3.24293   2.82260   0.08399   0.00973
    29c     -0.16628   3.26162   2.80357   0.09138   0.00971
    30c     -0.16644   3.26173   2.80367   0.09134   0.00971
    31c     -0.17464   3.25381   2.82036   0.09078   0.00970
    32c     -0.17452   3.25378   2.82027   0.09078   0.00970
    33c     -0.15595   3.28899   2.76104   0.09611   0.00981
    34c     -0.15619   3.28923   2.76101   0.09614   0.00981
    35c     -0.17861   3.29454   2.77953   0.09484   0.00969
    36c     -0.17869   3.29453   2.77964   0.09482   0.00969
    37c     -0.18173   3.27798   2.79774   0.09630   0.00971
    38c     -0.18162   3.27277   2.80456   0.09464   0.00965
    39c     -0.18258   3.27866   2.79792   0.09629   0.00971
    40c     -0.18128   3.27264   2.80437   0.09462   0.00965
    41c     -0.15080   3.26681   2.78112   0.09318   0.00969
    42c     -0.15058   3.26670   2.78101   0.09317   0.00970
    43n     -0.22098   3.47544   3.67212   0.06834   0.00507
    44n     -0.22210   3.47537   3.67329   0.06836   0.00507
    45n     -0.26909   3.48220   3.71925   0.06286   0.00478
    46n     -0.26905   3.48205   3.71935   0.06287   0.00478
    47h      0.17103   0.79814   0.02846   0.00237
    48h      0.18704   0.77552   0.03487   0.00257
    49h      0.18672   0.78529   0.02573   0.00226
    50h      0.17100   0.79816   0.02847   0.00237
    51h      0.18648   0.78552   0.02574   0.00226
    52h      0.16782   0.80449   0.02543   0.00225
    53h      0.14448   0.82558   0.02754   0.00240
    54h      0.14451   0.82558   0.02752   0.00240
    55h      0.18663   0.78424   0.02681   0.00232
    56h      0.18672   0.78416   0.02681   0.00232
    57h      0.18476   0.78747   0.02550   0.00227
    58h      0.17317   0.79981   0.02480   0.00222
    59h      0.18473   0.78749   0.02550   0.00227
    60h      0.15961   0.81202   0.02608   0.00228
    61h      0.15958   0.81205   0.02609   0.00228
    62h      0.14973   0.82088   0.02707   0.00232
    63h      0.14965   0.82095   0.02708   0.00232
    64h      0.15418   0.82388   0.01946   0.00249
    65h      0.16767   0.80464   0.02544   0.00225
    66h      0.17017   0.80196   0.02563   0.00224
    67h      0.16992   0.80219   0.02566   0.00224
    68h      0.17301   0.79995   0.02481   0.00222
    69h      0.16394   0.80804   0.02576   0.00227
    70h      0.16375   0.80821   0.02577   0.00227
    71h      0.16776   0.80421   0.02581   0.00222
    72h      0.16783   0.80415   0.02581   0.00222
    73c      0.18128   3.01846   2.67978   0.10849   0.01198
    74c      0.18135   3.01776   2.68040   0.10851   0.01198
    75c     -0.15342   3.29051   2.77018   0.08276   0.00997
    76c     -0.15221   3.29271   2.76678   0.08275   0.00997
    77c     -0.17164   3.31988   2.75532   0.08664   0.00980
    78c     -0.17144   3.31967   2.75533   0.08665   0.00980
    79c      0.12611   2.97491   2.80531   0.08406   0.00961
    80c      0.12586   2.97470   2.80575   0.08408   0.00961
    81c     -0.00602   3.09894   2.77559   0.11410   0.01738
    82c     -0.00610   3.09875   2.77584   0.11413   0.01738
    83c     -0.05426   3.15345   2.76849   0.11490   0.01743
    84c     -0.05413   3.15324   2.76854   0.11493   0.01743
    85n     -0.16040   3.63800   3.46157   0.05745   0.00337
    86n     -0.16070   3.63163   3.46836   0.05733   0.00338
    87n     -0.16055   3.63152   3.46832   0.05732   0.00338
    88n     -0.16051   3.63798   3.46171   0.05745   0.00337
    89h      0.18558   0.77955   0.03247   0.00240
    90h      0.17974   0.79107   0.02687   0.00231
    91h      0.17986   0.79096   0.02687   0.00231
    92h      0.18497   0.78017   0.03246   0.00240
 
 moments (from total density versus population analysis)
 <charge> =            -0.000000           -0.000000
 <x   >   =             0.002919            0.007822
 <y   >   =             0.122471            0.740279
 <z   >   =             0.002315           -0.002445
 
 
 ==============================================================================
 


    ------------------------------------------------------------------------
         total  cpu-time :  18.32 seconds
         total wall-time :  19.04 seconds
    ------------------------------------------------------------------------

   ****  dscf : all done  ****


    2019-02-08 17:18:29.496 

