 hostname is         gplogin1.local

 eiger (gplogin1.local) : TURBOMOLE V7.0.2( ) 8 Jan 2016 at 10:54:38
 Copyright (C) 2016 TURBOMOLE GmbH, Karlsruhe


    2017-11-13 23:40:30.598 

                                                                                
  
 HOMO-LUMO Separation
   HOMO:    80.    80 a     -0.25839992 H =     -7.03142 eV
   LUMO:    81.    81 a     -0.18010027 H =     -4.90078 eV
   Gap :                    +0.07829966 H =     +2.13064 eV
 
Number of MOs=   1461, Electrons=    160.00, Symmetry: c1   
 
   Nr.   Orbital    Occupation       Energy
   97.    97 a                     +0.044706 H =        +1.217 eV
   96.    96 a                     +0.044012 H =        +1.198 eV
   95.    95 a                     +0.039016 H =        +1.062 eV
   94.    94 a                     +0.035539 H =        +0.967 eV
   93.    93 a                     +0.022624 H =        +0.616 eV
   92.    92 a                     +0.014682 H =        +0.400 eV
   91.    91 a                     +0.005789 H =        +0.158 eV
   90.    90 a                     +0.000480 H =        +0.013 eV
   89.    89 a                     -0.011793 H =        -0.321 eV
   88.    88 a                     -0.028285 H =        -0.770 eV
   87.    87 a                     -0.051732 H =        -1.408 eV
   86.    86 a                     -0.092261 H =        -2.511 eV
   85.    85 a                     -0.097774 H =        -2.661 eV
   84.    84 a                     -0.145025 H =        -3.946 eV
   83.    83 a                     -0.151257 H =        -4.116 eV
   82.    82 a                     -0.166145 H =        -4.521 eV
   81.    81 a                     -0.180100 H =        -4.901 eV
   80.    80 a        2.000        -0.258400 H =        -7.031 eV
   79.    79 a        2.000        -0.270819 H =        -7.369 eV
   78.    78 a        2.000        -0.274828 H =        -7.478 eV
   77.    77 a        2.000        -0.277605 H =        -7.554 eV
   76.    76 a        2.000        -0.282637 H =        -7.691 eV
   75.    75 a        2.000        -0.289284 H =        -7.872 eV
   74.    74 a        2.000        -0.291788 H =        -7.940 eV
   73.    73 a        2.000        -0.294716 H =        -8.020 eV
   72.    72 a        2.000        -0.305551 H =        -8.314 eV
   71.    71 a        2.000        -0.306525 H =        -8.341 eV
   70.    70 a        2.000        -0.308866 H =        -8.405 eV
   69.    69 a        2.000        -0.316408 H =        -8.610 eV
   68.    68 a        2.000        -0.320588 H =        -8.724 eV
   67.    67 a        2.000        -0.332465 H =        -9.047 eV
   66.    66 a        2.000        -0.366313 H =        -9.968 eV
   65.    65 a        2.000        -0.384518 H =       -10.463 eV
