
 eiger (gplogin3.local) : TURBOMOLE V7.2 ( 21285 ) 30 Jun 2017 at 11:51:10
 Copyright (C) 2017 TURBOMOLE GmbH, Karlsruhe


    2017-11-11 17:47:57.909 

                                                                                
  
 HOMO-LUMO Separation
   HOMO:    30.    30 a     -0.16380001 H =     -4.45723 eV
   LUMO:    31.    31 a     -0.05310194 H =     -1.44498 eV
   Gap :                    +0.11069807 H =     +3.01225 eV
 
Number of MOs=    694, Electrons=     60.00, Symmetry: c1   
 
   Nr.   Orbital    Occupation       Energy
   47.    47 a                     +0.146010 H =        +3.973 eV
   46.    46 a                     +0.135336 H =        +3.683 eV
   45.    45 a                     +0.112244 H =        +3.054 eV
   44.    44 a                     +0.096987 H =        +2.639 eV
   43.    43 a                     +0.088785 H =        +2.416 eV
   42.    42 a                     +0.086311 H =        +2.349 eV
   41.    41 a                     +0.074935 H =        +2.039 eV
   40.    40 a                     +0.069944 H =        +1.903 eV
   39.    39 a                     +0.056381 H =        +1.534 eV
   38.    38 a                     +0.056003 H =        +1.524 eV
   37.    37 a                     +0.040979 H =        +1.115 eV
   36.    36 a                     +0.029419 H =        +0.801 eV
   35.    35 a                     +0.015485 H =        +0.421 eV
   34.    34 a                     +0.002184 H =        +0.059 eV
   33.    33 a                     -0.014146 H =        -0.385 eV
   32.    32 a                     -0.021825 H =        -0.594 eV
   31.    31 a                     -0.053102 H =        -1.445 eV
   30.    30 a        2.000        -0.163800 H =        -4.457 eV
   29.    29 a        2.000        -0.163951 H =        -4.461 eV
   28.    28 a        2.000        -0.181988 H =        -4.952 eV
   27.    27 a        2.000        -0.326974 H =        -8.897 eV
   26.    26 a        2.000        -0.335372 H =        -9.126 eV
   25.    25 a        2.000        -0.342022 H =        -9.307 eV
   24.    24 a        2.000        -0.359586 H =        -9.785 eV
   23.    23 a        2.000        -0.385131 H =       -10.480 eV
   22.    22 a        2.000        -0.409824 H =       -11.152 eV
   21.    21 a        2.000        -0.416488 H =       -11.333 eV
   20.    20 a        2.000        -0.465973 H =       -12.680 eV
   19.    19 a        2.000        -0.476722 H =       -12.972 eV
   18.    18 a        2.000        -0.512898 H =       -13.957 eV
   17.    17 a        2.000        -0.557004 H =       -15.157 eV
   16.    16 a        2.000        -0.570334 H =       -15.520 eV
   15.    15 a        2.000        -0.596358 H =       -16.228 eV


    ------------------------------------------------------------------------
         total  cpu-time :   0.25 seconds
         total wall-time :   0.34 seconds
    ------------------------------------------------------------------------

   ****  eiger : all done  ****


    2017-11-11 17:47:58.232 

