STARTING ridft ON 32 PROCESSORS!
RUNNING PROGRAM /sopt/TURBOMOLE/7.3-official/bin/em64t-unknown-linux-gnu_smp/ridft_mpi.
           SMPCPUS    set: Shared-memory Parallelization with  32 CPUs.

           SMP Parallelization Reference:
           C. van Wullen, J. Comput. Chem. 32 (2011) 1195--1201
 operating system is UNIX !

 ridft (c-15-34) : TURBOMOLE V7.3 ( 22118 ) 1 Jul 2018 at 20:38:15
 Copyright (C) 2018 TURBOMOLE GmbH, Karlsruhe


    2019-03-12 12:41:55.696 



                                  r i d f t

                        DFT program with RI approximation 
                                for coulomb part 




                                                 
                                 References:     
                                                 
          TURBOMOLE:                             
              R. Ahlrichs, M. Baer, M. Haeser, H. Horn, and
              C. Koelmel
              Electronic structure calculations on workstation
              computers: the program system TURBOMOLE
              Chem. Phys. Lett. 162: 165 (1989)
          Density Functional:                              
              O. Treutler and R. Ahlrichs                      
              Efficient Molecular Numerical Integration Schemes
              J. Chem. Phys. 102: 346 (1995)                   
          Parallel Version:                                
              Performance of parallel TURBOMOLE for Density    
              Functional Calculations                          
              M. v. Arnim and R. Ahlrichs                      
              J. Comp. Chem. 19: 1746 (1998)                   
          RI-J Method:                                     
              Auxiliary Basis Sets to approximate Coulomb      
              Potentials                                       
              Chem. Phys. Lett. 240: 283 (1995)                
              K. Eichkorn, O. Treutler, H. Oehm, M. Haeser     
              and R. Ahlrichs                                  
              Chem. Phys. Lett. 242: 652 (1995)                
                                                           
              Auxiliary Basis Sets for Main Row Atoms and their
              Use to approximate Coulomb Potentials            
              K. Eichkorn, F. Weigend, O. Treutler and         
              R. Ahlrichs                                      
              Theo. Chem. Acc. 97: 119 (1997)                   
                                                           
              Accurate Coulomb-fitting basis sets for H to Rn 
              F. Weigend                                        
              Phys. Chem. Chem. Phys. 8: 1057 (2006)            
                                                           
          Multipole accelerated RI-J (MARI-J):             
              Fast evaluation of the Coulomb potential for     
              electron densities using multipole accelerated   
              resolution of identity approximation             
              M. Sierka, A. Hogekamp and R. Ahlrichs           
              J. Chem. Phys. 118: 9136 (2003)                  
          RI-JK Method:                                     
              A fully direct RI-HF algorithm: Implementation,
              optimised auxiliary basis sets, demonstration of
              accuracy and efficiency                         
              F. Weigend                                      
              Phys. Chem. Chem. Phys. 4: 4285 (2002)           
          Two-component HF and DFT with spin-orbit coupling:  
              Self-consistent treatment of spin-orbit         
              interactions with efficient Hartree-Fock and    
              density functional methods                      
              M. K. Armbruster, F. Weigend, C. van Wüllen and 
              W. Klopper                                      
              Phys. Chem. Chem. Phys. 10: 1748 (2008)         
          Two-component difference density and DIIS algorithm 
              Efficient two-component self-consistent field   
              procedures and gradients: implementation in     
              TURBOMOLE and application to Au20-              
              A. Baldes, F. Weigend                           
              Mol. Phys. 111: 2617 (2013)                     
          Relativistic all-electron 2c calculations           
              An efficient implementation of two-component    
              relativistic exact-decoupling methods for large 
              molecules                                       
              D. Peng, N. Middendorf, F. Weigend, M. Reiher   
              J. Chem. Phys. 138: 184105 (2013)               
          Finite nucleus model and SNSO approximation         
              Efficient implementation of one- and two-       
              component analytical energy gradients in exact  
              two-component theory                            
              Y. J. Franzke, N. Middendorf, F. Weigend        
              J. Chem. Phys. 148: 104110 (2018)               
                                         




              +--------------------------------------------------+
              |      general information about current run       |
              +--------------------------------------------------+

 
 PBE functional
 exchange:    LDA + PBE
 correlation: LDA (PW) + PBE
 A DFT calculation using the RI-J approximation will be carried out.
 Allocatable memory for RI due to $ricore (MB):                  8000


              +--------------------------------------------------+
              | Atomic coordinate, charge and isotop information |
              +--------------------------------------------------+

                    atomic coordinates            atom    charge  isotop
         -2.00633963    2.45124044    0.55191342    c      6.000     0
         -0.67682642    4.29054497    1.00498030    o      8.000     0
         -1.11362225    0.17936857    0.00715982    o      8.000     0
          0.76427263    0.24136077    0.03479333    h      1.000     0
         -4.83472787    2.53705149    0.55984520    c      6.000     0
         -5.47264306    4.43606407    0.97947593    h      1.000     0
         -5.54235751    1.93203795   -1.27177728    h      1.000     0
         -5.55052620    1.21870410    1.96447819    h      1.000     0
          5.27110465    2.09460881    0.51246303    c      6.000     0
          3.94145864    0.25531098    0.05933014    o      8.000     0
          4.37834826    4.36688238    1.05628553    o      8.000     0
          2.50036009    4.30471373    1.02907252    h      1.000     0
          8.09948128    2.00786519    0.50875087    c      6.000     0
          8.73741420    0.11564614    0.05989273    h      1.000     0
          8.82040905    3.35023770   -0.86974557    h      1.000     0
          8.80154536    2.57987493    2.35322819    h      1.000     0
 
       center of nuclear mass  :    1.63235355    2.27284584    0.53266127
       center of nuclear charge:    1.63235080    2.27281391    0.53280155

              +--------------------------------------------------+
              |               basis set information              |
              +--------------------------------------------------+

              we will work with the 1s 3p 5d 7f 9g ... basis set
              ...i.e. with spherical basis functions...

   type   atoms  prim   cont   basis
   ---------------------------------------------------------------------------
    c        4     77     57   def2-QZVP   [7s4p3d2f1g|15s8p3d2f1g]
    o        4     77     57   def2-QZVP   [7s4p3d2f1g|15s8p3d2f1g]
    h        8     33     30   def2-QZVP   [4s3p2d1f|7s3p2d1f]
   ---------------------------------------------------------------------------
   total:   16    880    696
   ---------------------------------------------------------------------------

   total number of primitive shells          :   71
   total number of contracted shells         :  216
   total number of cartesian basis functions :  856
   total number of SCF-basis functions       :  696


 integral neglect threshold       :  0.39E-11
 integral storage threshold THIZE :  0.10E-04
 integral storage threshold THIME :         5

 RI-J AUXILIARY BASIS SET information:

              we will work with the 1s 3p 5d 7f 9g ... basis set
              ...i.e. with spherical basis functions...

   type   atoms  prim   cont   basis
   ---------------------------------------------------------------------------
    c        4     70     49   def2-QZVP   [6s4p3d1f1g|12s5p4d2f1g]
    o        4     70     49   def2-QZVP   [6s4p3d1f1g|12s5p4d2f1g]
    h        8     16     11   def2-QZVP   [3s1p1d|5s2p1d]
   ---------------------------------------------------------------------------
   total:   16    688    480
   ---------------------------------------------------------------------------

   total number of primitive shells          :   56
   total number of contracted shells         :  160
   total number of cartesian basis functions :  584
   total number of SCF-basis functions       :  480


 symmetry group of the molecule :   c1 

 the group has the following generators :
   c1(z)

    1 symmetry operations found

 there are 1 real representations :   a   

 maximum number of shells which are related by symmetry :  1


    mo occupation :
   irrep   mo's   occupied
    a      696       32
 
 number of basis functions   :                    696
 number of occupied orbitals :                     32
 
  
           ------------------
           density functional
           ------------------
 PBE functional
 exchange:    LDA + PBE
 correlation: LDA (PW) + PBE

 iterations will be done with small grid
  
 spherical integration : Lebedev's spherical grid
 spherical gridsize    :                     4
    i.e. gridpoints    :                   434
 value for diffuse not defined
 radial integration    : Chebyshev 2nd kind (scaling 3)
 radial gridsize       :                     6
 integration cells     :                    16
 partition function    : becke
 partition sharpness   :                     3
  

 biggest AO integral is expected to be     6.990327543
  
           ------------------------
               RI-J - INFORMATION
           ------------------------
 Contributions to RI integral batches: 
  neglected integral batches:                  6688
  direct contribution:                            0
  memory contribution:                 16748
 Memory core needed for (P|Q) and Cholesky      2 MByte
 Memory core minimum needed except of (P|Q)     3 MByte
 Total minimum memory core needed (sum)         4 MByte
  
 ****************************************
 Memory allocated for RI-J  1150 MByte
 ****************************************
                                            

          ------------------------
          nuclear repulsion energy  :   381.474676136    
          ------------------------

   .------------------------------.
   |            DFT-D4            |
   |          ==========          |
   |  E. Caldeweyher,  S. Grimme  |
   |   University of Bonn, MCTC   |
   |     02/2018, Version 1.0     |
   '------------------------------'
  This code comes without any warranty

 Cite this work as:
   E. Caldeweyher, C. Bannwarth, and S. Grimme,
   J. Chem. Phys., 2017, 147, 034112.
   E. Caldeweyher, S. Ehlert, and S. Grimme,
   J. Chem. Phys., in preparation.

 Contributions:
   P. Shushkov - GBSA(H2O)
   S. Ehlert   - MBD, DFA fit

number of atoms            :    16
number of electrons        :    48
charge                     :  0
spin                       : 0.0
 Found param_gfn2.xtb file !
========================================================================
    G F N  parametrization, version 3
   Geometries Frequencies Non-covalent interactions
 /sopt/TURBOMOLE/7.3-official/parameter/param_gfn2.xtb
========================================================================
 method parameters:
------------------------------------------------------------------------
k(s)        :               1.8500
k(p)        :               2.2300
k(d)        :               2.2300
k(f)        :               2.0000
kEN (H0ij)  :              -2.0000
D3 a1       :               0.5200
D3 a2       :               5.0000
D3 s8       :               2.7000
D3atm       :               5.0000
alphaj      :               2.0000
AESdamp     :               4.0000
AESrad      :               3.0000
expscalexp  :               5.0000
------------------------------------------------------------------------
------------------------------------------------------------------------
 xTB basis
------------------------------------------------------------------------
  Z AO/shell   Hii/eV     exponent
  1     Wed Apr 25 08:07:45 CEST 2018   EN: 2.200 GM2: 0.406  GM3: 0.0800  RAES: 1.40
     1s    -10.707211    1.230000
  6     Wed Apr 25 08:07:45 CEST 2018   EN: 2.550 GM2: 0.538  GM3: 0.1500  RAES: 3.00
     2s    -13.970922    2.096432
     2p    -10.063292    1.800000
  8     Wed Apr 25 08:07:45 CEST 2018   EN: 3.440 GM2: 0.452  GM3:-0.0517  RAES: 1.80
     2s    -20.229985    2.439742
     2p    -15.503117    2.137023
------------------------------------------------------------------------
 DFT-D4 reference setup
------------------------------------------------------------------------
 C      q(ref)        CN(ref)   cov. CN(ref)  alpha(AIM,ref)
     0.0000000      0.0000000      0.0000000     12.3555336
    -0.1299310      0.9367838      0.9179641     12.6203061
    -0.0788263      1.9884028      1.9096951      9.3103249
    -0.0767301      2.9881158      2.8401678      8.8356702
    -0.0945886      3.9165802      3.7567914      6.6924619
    -0.0285648      3.3673832      3.0308559      8.9184424
     0.0506204      0.9979550      0.8555886      7.7402501
 O      q(ref)        CN(ref)   cov. CN(ref)  alpha(AIM,ref)
     0.0000000      0.0000000      0.0000000      5.1967092
    -0.3306800      0.9547795      0.8033980      6.0646315
    -0.5637321      1.9239773      1.6098510      6.6505011
     0.0000000      0.9835639      0.9794547      5.1987934
 H      q(ref)        CN(ref)   cov. CN(ref)  alpha(AIM,ref)
     0.0000000      0.0000000      0.0000000      5.0540161
     0.0000000      0.8115055      0.8943405      2.7207580
 no old-style atom pair restraing (fixing) potential
------------------------------------------------------------------------
 SCC calculation
------------------------------------------------------------------------

------------------------------------------------------------------------
 Dispersion Energy Calculation
 * damping parameters for pbe-D4
 s6       :    1.0000
 s8       :    0.9516
 a1       :    0.4044
 a2       :    4.6501
========================================================================
 Edisp  /kcal,au:    -6.9747  -0.01111497
------------------------------------------------------------------------
 E(2)   /kcal,au:    -6.9649  -0.01109924
 Emany  /kcal,au:    -0.0099  -0.00001573
 Eresp  /kcal,au:     0.0000   0.00000000
========================================================================
 nuclear repulsion energy                  =     381.474676136
 empirical dispersive energy correction    =      -0.011114970
 nuclear repulsion + dispersion correction =     381.463561166


         -----------------
         -S,T+V- integrals
         -----------------

 1e-integrals will be neglected if expon. factor < 0.390416E-12
 Difference densities >>NOT<< switched on in parallel ridft!

 DIIS switched on: error vector is FDS-SDF
 Max. Iterations for DIIS is     :   4
 DIIS matrix (see manual) 
    Scaling factor of diagonals  :  1.200
    threshold for scaling factor :  0.000

 scf convergence criterion : increment of total energy < .1000000D-06
                  and increment of one-electron energy < .1000000D-03

  MOs are in ASCII format !


 automatic virtual orbital shift switched on 
      shift if e(lumo)-e(homo) < 0.10000000    


 reading orbital data $scfmo  from file mos
 orbital characterization : expanded
 mo provided and orthogonalized by Cholesky decomposition

 DSCF restart information will be dumped onto file mos


 Starting SCF iterations

          Overall gridpoints after grid construction =         42979

 ITERATION  ENERGY          1e-ENERGY        2e-ENERGY     NORM[dD(SAO)]  TOL
   1  -455.86802695963    -1376.0961232     538.76453512    0.000D+00 0.389D-11
                            Exc = -58.4986877251     Coul =  597.263222843    
                              N = 63.999853896    
                            current damping = 0.700
 
          max. resid. norm for Fia-block=  8.317D-01 for orbital     12a         
          max. resid. fock norm         =  6.567D+01 for orbital    608a         

 ITERATION  ENERGY          1e-ENERGY        2e-ENERGY     NORM[dD(SAO)]  TOL
   2  -457.63652485671    -1379.8515446     540.75145859    0.000D+00 0.389D-11
                            Exc = -58.2597960945     Coul =  599.011254680    
                              N = 63.999833558    
                            current damping = 0.650
 
          Norm of current diis error:  3.2808    
          max. resid. norm for Fia-block=  1.607D-01 for orbital      3a         
          max. resid. fock norm         =  3.166D-01 for orbital    574a         

 ITERATION  ENERGY          1e-ENERGY        2e-ENERGY     NORM[dD(SAO)]  TOL
   3  -457.85185051886    -1382.4308822     543.11547053    0.000D+00 0.389D-11
                            Exc = -58.5688838487     Coul =  601.684354383    
                              N = 63.999831277    
                            current damping = 0.550
 
          Norm of current diis error:  1.4989    
          max. resid. norm for Fia-block=  6.461D-02 for orbital      3a         
          max. resid. fock norm         =  7.810D-02 for orbital     74a         

 ITERATION  ENERGY          1e-ENERGY        2e-ENERGY     NORM[dD(SAO)]  TOL
   4  -457.91477667306    -1381.7180709     542.33973310    0.000D+00 0.389D-11
                            Exc = -58.4619041925     Coul =  600.801637291    
                              N = 63.999818480    
                            current damping = 0.600
 
          Norm of current diis error: 0.58497    
          max. resid. norm for Fia-block=  2.652D-02 for orbital     10a         
          max. resid. fock norm         =  4.968D-02 for orbital    366a         

 ITERATION  ENERGY          1e-ENERGY        2e-ENERGY     NORM[dD(SAO)]  TOL
   5  -457.92314045576    -1382.6781318     543.29143022    0.000D+00 0.389D-11
                            Exc = -58.5791923002     Coul =  601.870622519    
                              N = 63.999819974    
                            current damping = 0.650
 
          Norm of current diis error: 0.32142    
          max. resid. norm for Fia-block=  1.196D-02 for orbital     31a         
          max. resid. fock norm         =  1.603D-02 for orbital    693a         
          mo-orthogonalization: Cholesky decomposition

 ITERATION  ENERGY          1e-ENERGY        2e-ENERGY     NORM[dD(SAO)]  TOL
   6  -457.92612300503    -1382.5753701     543.18568594    0.000D+00 0.389D-11
                            Exc = -58.5663459365     Coul =  601.752031873    
                              N = 63.999817969    
                            current damping = 0.700
 
          Norm of current diis error: 0.15548    
          max. resid. norm for Fia-block=  5.369D-03 for orbital     28a         
          max. resid. fock norm         =  8.455D-03 for orbital    696a         

 ITERATION  ENERGY          1e-ENERGY        2e-ENERGY     NORM[dD(SAO)]  TOL
   7  -457.92681191860    -1382.4576853     543.06731225    0.000D+00 0.389D-11
                            Exc = -58.5525756610     Coul =  601.619887907    
                              N = 63.999816940    
                            current damping = 0.550
 
          Norm of current diis error: 0.44163E-01
          max. resid. norm for Fia-block=  1.941D-03 for orbital     10a         
          max. resid. fock norm         =  2.920D-03 for orbital    573a         

 ITERATION  ENERGY          1e-ENERGY        2e-ENERGY     NORM[dD(SAO)]  TOL
   8  -457.92686772986    -1382.5168560     543.12642713    0.000D+00 0.389D-11
                            Exc = -58.5612067799     Coul =  601.687633911    
                              N = 63.999817060    
                            current damping = 0.600
 
          Norm of current diis error: 0.15043E-01
          max. resid. norm for Fia-block=  5.156D-04 for orbital     18a         
          max. resid. fock norm         =  6.885D-04 for orbital     18a         

 ITERATION  ENERGY          1e-ENERGY        2e-ENERGY     NORM[dD(SAO)]  TOL
   9  -457.92687515434    -1382.5405710     543.15013471    0.000D+00 0.389D-11
                            Exc = -58.5628262802     Coul =  601.712960986    
                              N = 63.999817003    
                            current damping = 0.450
 
          Norm of current diis error: 0.61470E-02
          max. resid. norm for Fia-block=  2.881D-04 for orbital     31a         
          max. resid. fock norm         =  3.721D-04 for orbital     81a         

 ITERATION  ENERGY          1e-ENERGY        2e-ENERGY     NORM[dD(SAO)]  TOL
  10  -457.92687559880    -1382.5220912     543.13165441    0.000D+00 0.389D-11
                            Exc = -58.5612236631     Coul =  601.692878077    
                              N = 63.999816911    
                            current damping = 0.500
 
          Norm of current diis error: 0.53664E-02
          max. resid. norm for Fia-block=  1.849D-04 for orbital     30a         
          max. resid. fock norm         =  3.192D-04 for orbital    693a         
          mo-orthogonalization: Cholesky decomposition

 ITERATION  ENERGY          1e-ENERGY        2e-ENERGY     NORM[dD(SAO)]  TOL
  11  -457.92687617647    -1382.5258118     543.13537444    0.000D+00 0.389D-11
                            Exc = -58.5617464591     Coul =  601.697120899    
                              N = 63.999816925    
                            current damping = 0.550
 
          Norm of current diis error: 0.31857E-02
          max. resid. norm for Fia-block=  1.132D-04 for orbital     30a         
          max. resid. fock norm         =  1.787D-04 for orbital    664a         

 ITERATION  ENERGY          1e-ENERGY        2e-ENERGY     NORM[dD(SAO)]  TOL
  12  -457.92687637486    -1382.5325394     543.14210182    0.000D+00 0.389D-11
                            Exc = -58.5625166629     Coul =  601.704618488    
                              N = 63.999816948    
                            current damping = 0.400
 
          Norm of current diis error: 0.15598E-02
          max. resid. norm for Fia-block=  3.953D-05 for orbital     16a         
          max. resid. fock norm         =  4.912D-05 for orbital     16a         

 ITERATION  ENERGY          1e-ENERGY        2e-ENERGY     NORM[dD(SAO)]  TOL
  13  -457.92687643146    -1382.5309870     543.14054937    0.000D+00 0.389D-11
                            Exc = -58.5622167536     Coul =  601.702766128    
                              N = 63.999816931    
                            current damping = 0.450
 
          Norm of current diis error: 0.51474E-03
          max. resid. norm for Fia-block=  1.073D-05 for orbital     19a         
          max. resid. fock norm         =  1.637D-05 for orbital    312a         

 ITERATION  ENERGY          1e-ENERGY        2e-ENERGY     NORM[dD(SAO)]  TOL
  14  -457.92687643695    -1382.5302741     543.13983654    0.000D+00 0.389D-11
                            Exc = -58.5621787381     Coul =  601.702015275    
                              N = 63.999816930    
                            current damping = 0.300
 
          Norm of current diis error: 0.10028E-03
          max. resid. norm for Fia-block=  4.118D-06 for orbital     32a         
          max. resid. fock norm         =  5.861D-06 for orbital    637a         

 ENERGY CONVERGED !

          Overall gridpoints after grid construction =        156424

 ITERATION  ENERGY          1e-ENERGY        2e-ENERGY     NORM[dD(SAO)]  TOL
  15  -457.92681112990    -1382.5305299     543.14015757    0.000D+00 0.389D-11
                            Exc = -58.5621432583     Coul =  601.702300825    
                              N = 63.999997966    
                            current damping = 0.350
 
          Norm of current diis error: 0.72895E-04
          max. resid. norm for Fia-block=  1.338D-06 for orbital     31a         
          max. resid. fock norm         =  2.203D-06 for orbital    693a         

 End of SCF iterations

   convergence criteria satisfied after    15 iterations


                  ------------------------------------------ 
                 |  total energy      =   -457.92681112990  |
                  ------------------------------------------ 
                 :  kinetic energy    =    456.31239054096  :
                 :  potential energy  =   -914.23920167086  :
                 :  virial theorem    =      1.99647450084  :
                 :  wavefunction norm =      1.00000000000  :
                  .......................................... 


 <geterg> : there is no data group $energy 


 <skperg> : $end is missing 


 orbitals $scfmo  will be written to file mos

    irrep                 28a         29a         30a         31a         32a   
 eigenvalues H         -0.32770    -0.29364    -0.28375    -0.25409    -0.24528
            eV          -8.9173     -7.9904     -7.7212     -6.9142     -6.6745
 occupation              2.0000      2.0000      2.0000      2.0000      2.0000 

    irrep                 33a         34a         35a         36a         37a   
 eigenvalues H         -0.04890    -0.03923     0.00210     0.01138     0.05733
            eV          -1.3307     -1.0675      0.0572      0.3097      1.5600
 
 
 
 
 ==============================================================================
                           electrostatic moments
 ==============================================================================

 reference point for electrostatic moments:    0.00000   0.00000   0.00000

 
              nuc           elec       ->  total
 ------------------------------------------------------------------------------
                          charge      
 ------------------------------------------------------------------------------
          64.000000     -64.000000      -0.000000
 
 ------------------------------------------------------------------------------
                       dipole moment  
 ------------------------------------------------------------------------------
   x     104.470451    -104.470374       0.000077
   y     145.460090    -145.460617      -0.000527
   z      34.099299     -34.097447       0.001852
 
   | dipole moment | =     0.0019 a.u. =     0.0049 debye 
 
 ------------------------------------------------------------------------------
                     quadrupole moment
 ------------------------------------------------------------------------------
  xx    1345.864054   -1370.657824     -24.793770
  yy     487.169781    -527.433591     -40.263811
  zz      37.665145     -72.538080     -34.872935
  xy     219.362291    -219.578898      -0.216607
  xz      58.358656     -58.362233      -0.003577
  yz     112.621386    -114.002552      -1.381166
 
     1/3  trace=     -33.310172
     anisotropy=      13.814857
 
 ==============================================================================
 


    ------------------------------------------------------------------------
         total  cpu-time :  4 minutes and  6 seconds
         total wall-time :  1 minutes and  6 seconds
    ------------------------------------------------------------------------

   ****  ridft : all done  ****


    2019-03-12 12:43:01.492 

