STARTING ridft ON 32 PROCESSORS!
RUNNING PROGRAM /sopt/TURBOMOLE/7.3-official/bin/em64t-unknown-linux-gnu_smp/ridft_mpi.
           SMPCPUS    set: Shared-memory Parallelization with  32 CPUs.

           SMP Parallelization Reference:
           C. van Wullen, J. Comput. Chem. 32 (2011) 1195--1201
 operating system is UNIX !

 ridft (c-13-38) : TURBOMOLE V7.3 ( 22118 ) 1 Jul 2018 at 20:38:15
 Copyright (C) 2018 TURBOMOLE GmbH, Karlsruhe


    2019-03-12 22:17:25.823 



                                  r i d f t

                        DFT program with RI approximation 
                                for coulomb part 




                                                 
                                 References:     
                                                 
          TURBOMOLE:                             
              R. Ahlrichs, M. Baer, M. Haeser, H. Horn, and
              C. Koelmel
              Electronic structure calculations on workstation
              computers: the program system TURBOMOLE
              Chem. Phys. Lett. 162: 165 (1989)
          Density Functional:                              
              O. Treutler and R. Ahlrichs                      
              Efficient Molecular Numerical Integration Schemes
              J. Chem. Phys. 102: 346 (1995)                   
          Parallel Version:                                
              Performance of parallel TURBOMOLE for Density    
              Functional Calculations                          
              M. v. Arnim and R. Ahlrichs                      
              J. Comp. Chem. 19: 1746 (1998)                   
          RI-J Method:                                     
              Auxiliary Basis Sets to approximate Coulomb      
              Potentials                                       
              Chem. Phys. Lett. 240: 283 (1995)                
              K. Eichkorn, O. Treutler, H. Oehm, M. Haeser     
              and R. Ahlrichs                                  
              Chem. Phys. Lett. 242: 652 (1995)                
                                                           
              Auxiliary Basis Sets for Main Row Atoms and their
              Use to approximate Coulomb Potentials            
              K. Eichkorn, F. Weigend, O. Treutler and         
              R. Ahlrichs                                      
              Theo. Chem. Acc. 97: 119 (1997)                   
                                                           
              Accurate Coulomb-fitting basis sets for H to Rn 
              F. Weigend                                        
              Phys. Chem. Chem. Phys. 8: 1057 (2006)            
                                                           
          Multipole accelerated RI-J (MARI-J):             
              Fast evaluation of the Coulomb potential for     
              electron densities using multipole accelerated   
              resolution of identity approximation             
              M. Sierka, A. Hogekamp and R. Ahlrichs           
              J. Chem. Phys. 118: 9136 (2003)                  
          RI-JK Method:                                     
              A fully direct RI-HF algorithm: Implementation,
              optimised auxiliary basis sets, demonstration of
              accuracy and efficiency                         
              F. Weigend                                      
              Phys. Chem. Chem. Phys. 4: 4285 (2002)           
          Two-component HF and DFT with spin-orbit coupling:  
              Self-consistent treatment of spin-orbit         
              interactions with efficient Hartree-Fock and    
              density functional methods                      
              M. K. Armbruster, F. Weigend, C. van Wüllen and 
              W. Klopper                                      
              Phys. Chem. Chem. Phys. 10: 1748 (2008)         
          Two-component difference density and DIIS algorithm 
              Efficient two-component self-consistent field   
              procedures and gradients: implementation in     
              TURBOMOLE and application to Au20-              
              A. Baldes, F. Weigend                           
              Mol. Phys. 111: 2617 (2013)                     
          Relativistic all-electron 2c calculations           
              An efficient implementation of two-component    
              relativistic exact-decoupling methods for large 
              molecules                                       
              D. Peng, N. Middendorf, F. Weigend, M. Reiher   
              J. Chem. Phys. 138: 184105 (2013)               
          Finite nucleus model and SNSO approximation         
              Efficient implementation of one- and two-       
              component analytical energy gradients in exact  
              two-component theory                            
              Y. J. Franzke, N. Middendorf, F. Weigend        
              J. Chem. Phys. 148: 104110 (2018)               
                                         




              +--------------------------------------------------+
              |      general information about current run       |
              +--------------------------------------------------+

 
 PBE functional
 exchange:    LDA + PBE
 correlation: LDA (PW) + PBE
 A DFT calculation using the RI-J approximation will be carried out.
 Allocatable memory for RI due to $ricore (MB):                  8000


              +--------------------------------------------------+
              | Atomic coordinate, charge and isotop information |
              +--------------------------------------------------+

                    atomic coordinates            atom    charge  isotop
         -1.33588556    0.08660684    0.01206799    o      8.000     0
          0.50195589    0.13551253    0.00253090    h      1.000     0
         -2.03461270   -2.48294105    0.00305055    c      6.000     0
         -4.08733321   -2.57606667    0.01108405    h      1.000     0
         -1.36703912   -3.48588648   -1.67759209    h      1.000     0
         -1.35319467   -3.50132394    1.66877893    h      1.000     0
 
       center of nuclear mass  :   -1.62806855   -1.18406200    0.00732033
       center of nuclear charge:   -1.62224288   -1.31291978    0.00664716

              +--------------------------------------------------+
              |               basis set information              |
              +--------------------------------------------------+

              we will work with the 1s 3p 5d 7f 9g ... basis set
              ...i.e. with spherical basis functions...

   type   atoms  prim   cont   basis
   ---------------------------------------------------------------------------
    o        1     68     48   def2-QZVP   [7s4p3d2f|15s8p3d2f]
    h        4     26     23   def2-QZVP   [4s3p2d|7s3p2d]
    c        1     68     48   def2-QZVP   [7s4p3d2f|15s8p3d2f]
   ---------------------------------------------------------------------------
   total:    6    240    188
   ---------------------------------------------------------------------------

   total number of primitive shells          :   68
   total number of contracted shells         :   68
   total number of cartesian basis functions :  214
   total number of SCF-basis functions       :  188


 integral neglect threshold       :  0.16E-10
 integral storage threshold THIZE :  0.10E-04
 integral storage threshold THIME :         5

 RI-J AUXILIARY BASIS SET information:

              we will work with the 1s 3p 5d 7f 9g ... basis set
              ...i.e. with spherical basis functions...

   type   atoms  prim   cont   basis
   ---------------------------------------------------------------------------
    o        1     70     49   def2-QZVP   [6s4p3d1f1g|12s5p4d2f1g]
    h        4     16     11   def2-QZVP   [3s1p1d|5s2p1d]
    c        1     70     49   def2-QZVP   [6s4p3d1f1g|12s5p4d2f1g]
   ---------------------------------------------------------------------------
   total:    6    204    142
   ---------------------------------------------------------------------------

   total number of primitive shells          :   56
   total number of contracted shells         :   50
   total number of cartesian basis functions :  170
   total number of SCF-basis functions       :  142


 symmetry group of the molecule :   c1 

 the group has the following generators :
   c1(z)

    1 symmetry operations found

 there are 1 real representations :   a   

 maximum number of shells which are related by symmetry :  1


    mo occupation :
   irrep   mo's   occupied
    a      188        9
 
 number of basis functions   :                    188
 number of occupied orbitals :                      9
 
  
           ------------------
           density functional
           ------------------
 PBE functional
 exchange:    LDA + PBE
 correlation: LDA (PW) + PBE

 iterations will be done with small grid
  
 spherical integration : Lebedev's spherical grid
 spherical gridsize    :                     4
    i.e. gridpoints    :                   434
 value for diffuse not defined
 radial integration    : Chebyshev 2nd kind (scaling 3)
 radial gridsize       :                     6
 integration cells     :                     6
 partition function    : becke
 partition sharpness   :                     3
  

 biggest AO integral is expected to be     6.990327543
  
           ------------------------
               RI-J - INFORMATION
           ------------------------
 Contributions to RI integral batches: 
  neglected integral batches:                    42
  direct contribution:                            0
  memory contribution:                  2304
 Memory core needed for (P|Q) and Cholesky      1 MByte
 Memory core minimum needed except of (P|Q)     1 MByte
 Total minimum memory core needed (sum)         1 MByte
  
 ****************************************
 Memory allocated for RI-J    30 MByte
 ****************************************
                                            

          ------------------------
          nuclear repulsion energy  :   40.4246707723    
          ------------------------

  _________________________________
 |                                 |
 |         DFTD3 V3.1 Rev 0        |
 | S.Grimme, University Bonn       |
 |            June  2014           |
 |   see standalone version        |
 |       dftd3 -h for options      |
 |_________________________________|
 
 Please cite DFT-D3 work done with this code as:
 S. Grimme, J. Antony, S. Ehrlich and H. Krieg,
 J. Chem. Phys, 132 (2010), 154104.
 If used with BJ-damping cite also
 S. Grimme, S. Ehrlich and L. Goerigk,
 J. Comput. Chem. 32 (2011), 1456-1465
 For DFT-D2 the reference is
 S. Grimme, J. Comput. Chem., 27 (2006), 1787-1799
 
C6 coefficients used:
                     2  C6 for element                      1
Z=  1 CN= 0.912     C6(AA)=    3.03
Z=  1 CN= 0.000     C6(AA)=    7.59
                     5  C6 for element                      6
Z=  6 CN= 0.000     C6(AA)=   49.11
Z=  6 CN= 0.987     C6(AA)=   43.25
Z=  6 CN= 1.998     C6(AA)=   29.36
Z=  6 CN= 2.999     C6(AA)=   25.78
Z=  6 CN= 3.984     C6(AA)=   18.21
                     3  C6 for element                      8
Z=  8 CN= 0.000     C6(AA)=   15.51
Z=  8 CN= 0.993     C6(AA)=   12.82
Z=  8 CN= 1.989     C6(AA)=   10.37

#           XYZ [au]              R0(AA) [Ang.]  CN          C6(AA)     C8(AA)   C10(AA) [au]
  1  -1.33589   0.08661   0.01207   o   0.510  1.991        10.4       210.1      5194.4
  2   0.50196   0.13551   0.00253   h   0.395  1.007         3.1        37.3       552.6
  3  -2.03461  -2.48294   0.00305   c   0.610  3.986        18.3       530.4     18792.2
  4  -4.08733  -2.57607   0.01108   h   0.395  0.996         3.1        37.4       553.5
  5  -1.36704  -3.48589  -1.67759   h   0.395  0.995         3.1        37.4       553.7
  6  -1.35319  -3.50132   1.66878   h   0.395  0.995         3.1        37.4       553.7

molecular C6(AA) [au] =       208.71

           DFT-D V3(BJ)
 DF pbe                                               
 parameters
 s6       :    1.0000
 s8       :    0.7875
 a1       :    0.4289
 a2       :    4.4407
 k1-k3    :   16.0000    1.3333   -4.0000
 
 Edisp /kcal,au:    -1.1923 -0.00190006

 E6    /kcal :    -0.8846
 E8    /kcal :    -0.3077
 % E8        : 25.81
 nuclear repulsion energy                  =      40.424670772
 empirical dispersive energy correction    =      -0.001900057
 nuclear repulsion + dispersion correction =      40.422770715


         -----------------
         -S,T+V- integrals
         -----------------

 1e-integrals will be neglected if expon. factor < 0.156166E-11
 Difference densities >>NOT<< switched on in parallel ridft!

 DIIS switched on: error vector is FDS-SDF
 Max. Iterations for DIIS is     :   4
 DIIS matrix (see manual) 
    Scaling factor of diagonals  :  1.200
    threshold for scaling factor :  0.000

 scf convergence criterion : increment of total energy < .1000000D-06
                  and increment of one-electron energy < .1000000D-03

  MOs are in ASCII format !


 automatic virtual orbital shift switched on 
      shift if e(lumo)-e(homo) < 0.10000000    


 reading orbital data $scfmo  from file mos
 orbital characterization : expanded
 mo provided and orthogonalized by Cholesky decomposition

 DSCF restart information will be dumped onto file mos


 Starting SCF iterations

          Overall gridpoints after grid construction =         14547

 ITERATION  ENERGY          1e-ENERGY        2e-ENERGY     NORM[dD(SAO)]  TOL
   1  -115.17841073597    -236.41298886     80.811807410    0.000D+00 0.156D-10
                            Exc = -15.2614160836     Coul =  96.0732234931    
                              N = 18.000116413    
                            current damping = 0.700
 
          max. resid. norm for Fia-block=  8.427D-01 for orbital      3a         
          max. resid. fock norm         =  6.232D+01 for orbital    182a         

 ITERATION  ENERGY          1e-ENERGY        2e-ENERGY     NORM[dD(SAO)]  TOL
   2  -115.56076362974    -236.64156887     80.658034527    0.000D+00 0.156D-10
                            Exc = -15.2464130475     Coul =  95.9044475746    
                              N = 18.000072280    
                            current damping = 0.650
 
          Norm of current diis error:  1.6747    
          max. resid. norm for Fia-block=  1.379D-01 for orbital      1a         
          max. resid. fock norm         =  2.445D-01 for orbital    121a         

 ITERATION  ENERGY          1e-ENERGY        2e-ENERGY     NORM[dD(SAO)]  TOL
   3  -115.62012524759    -237.23835066     81.195454696    0.000D+00 0.156D-10
                            Exc = -15.3459969731     Coul =  96.5414516694    
                              N = 18.000057129    
                            current damping = 0.600
 
          Norm of current diis error: 0.78496    
          max. resid. norm for Fia-block=  5.617D-02 for orbital      1a         
          max. resid. fock norm         =  5.910D-02 for orbital      1a         

 ITERATION  ENERGY          1e-ENERGY        2e-ENERGY     NORM[dD(SAO)]  TOL
   4  -115.63840007146    -236.93992662     80.878755833    0.000D+00 0.156D-10
                            Exc = -15.3206562060     Coul =  96.1994120393    
                              N = 18.000047147    
                            current damping = 0.650
 
          Norm of current diis error: 0.31424    
          max. resid. norm for Fia-block=  2.185D-02 for orbital      3a         
          max. resid. fock norm         =  4.052D-02 for orbital    121a         

 ITERATION  ENERGY          1e-ENERGY        2e-ENERGY     NORM[dD(SAO)]  TOL
   5  -115.64146337774    -237.25609731     81.191863215    0.000D+00 0.156D-10
                            Exc = -15.3632971530     Coul =  96.5551603678    
                              N = 18.000045076    
                            current damping = 0.700
 
          Norm of current diis error: 0.12944    
          max. resid. norm for Fia-block=  9.133D-03 for orbital      8a         
          max. resid. fock norm         =  1.031D-02 for orbital      8a         
          mo-orthogonalization: Cholesky decomposition

 ITERATION  ENERGY          1e-ENERGY        2e-ENERGY     NORM[dD(SAO)]  TOL
   6  -115.64213024323    -237.14856609     81.083665135    0.000D+00 0.156D-10
                            Exc = -15.3535355105     Coul =  96.4372006455    
                              N = 18.000043861    
                            current damping = 0.750
 
          Norm of current diis error: 0.51738E-01
          max. resid. norm for Fia-block=  3.417D-03 for orbital      1a         
          max. resid. fock norm         =  5.019D-03 for orbital    121a         

 ITERATION  ENERGY          1e-ENERGY        2e-ENERGY     NORM[dD(SAO)]  TOL
   7  -115.64223120720    -237.17600672     81.111004796    0.000D+00 0.156D-10
                            Exc = -15.3574620900     Coul =  96.4684668862    
                              N = 18.000043414    
                            current damping = 0.800
 
          Norm of current diis error: 0.20497E-01
          max. resid. norm for Fia-block=  1.459D-03 for orbital      1a         
          max. resid. fock norm         =  2.252D-03 for orbital    121a         

 ITERATION  ENERGY          1e-ENERGY        2e-ENERGY     NORM[dD(SAO)]  TOL
   8  -115.64224844818    -237.17864601     81.113626842    0.000D+00 0.156D-10
                            Exc = -15.3582265065     Coul =  96.4718533481    
                              N = 18.000043274    
                            current damping = 0.650
 
          Norm of current diis error: 0.93569E-02
          max. resid. norm for Fia-block=  6.490D-04 for orbital      1a         
          max. resid. fock norm         =  8.963D-04 for orbital    121a         

 ITERATION  ENERGY          1e-ENERGY        2e-ENERGY     NORM[dD(SAO)]  TOL
   9  -115.64225229057    -237.18193072     81.116907716    0.000D+00 0.156D-10
                            Exc = -15.3587723277     Coul =  96.4756800434    
                              N = 18.000043182    
                            current damping = 0.500
 
          Norm of current diis error: 0.34951E-02
          max. resid. norm for Fia-block=  2.597D-04 for orbital      1a         
          max. resid. fock norm         =  3.492D-04 for orbital      8a         

 ITERATION  ENERGY          1e-ENERGY        2e-ENERGY     NORM[dD(SAO)]  TOL
  10  -115.64225286570    -237.18042099     81.115397414    0.000D+00 0.156D-10
                            Exc = -15.3586991489     Coul =  96.4740965625    
                              N = 18.000043149    
                            current damping = 0.550
 
          Norm of current diis error: 0.15865E-02
          max. resid. norm for Fia-block=  1.095D-04 for orbital      5a         
          max. resid. fock norm         =  1.886D-04 for orbital    121a         
          mo-orthogonalization: Cholesky decomposition

 ITERATION  ENERGY          1e-ENERGY        2e-ENERGY     NORM[dD(SAO)]  TOL
  11  -115.64225294162    -237.18277121     81.117747558    0.000D+00 0.156D-10
                            Exc = -15.3589901928     Coul =  96.4767377508    
                              N = 18.000043141    
                            current damping = 0.600
 
          Norm of current diis error: 0.68436E-03
          max. resid. norm for Fia-block=  4.323D-05 for orbital      8a         
          max. resid. fock norm         =  4.423D-05 for orbital      8a         

 ITERATION  ENERGY          1e-ENERGY        2e-ENERGY     NORM[dD(SAO)]  TOL
  12  -115.64225295914    -237.18208404     81.117060361    0.000D+00 0.156D-10
                            Exc = -15.3589165187     Coul =  96.4759768800    
                              N = 18.000043134    
                            current damping = 0.650
 
          Norm of current diis error: 0.18521E-03
          max. resid. norm for Fia-block=  1.254D-05 for orbital      4a         
          max. resid. fock norm         =  2.462D-05 for orbital    121a         

 ENERGY CONVERGED !

          Overall gridpoints after grid construction =         55734

 ITERATION  ENERGY          1e-ENERGY        2e-ENERGY     NORM[dD(SAO)]  TOL
  13  -115.64223238759    -237.18203200     81.117028893    0.000D+00 0.156D-10
                            Exc = -15.3588966772     Coul =  96.4759255701    
                              N = 17.999999624    
                            current damping = 0.500
 
          Norm of current diis error: 0.73761E-04
          max. resid. norm for Fia-block=  4.545D-06 for orbital      1a         
          max. resid. fock norm         =  5.989D-06 for orbital      8a         

 End of SCF iterations

   convergence criteria satisfied after    13 iterations


                  ------------------------------------------ 
                 |  total energy      =   -115.64223238759  |
                  ------------------------------------------ 
                 :  kinetic energy    =    115.20761488780  :
                 :  potential energy  =   -230.84984727539  :
                 :  virial theorem    =      1.99624170607  :
                 :  wavefunction norm =      1.00000000000  :
                  .......................................... 


 orbitals $scfmo  will be written to file mos

    irrep                  5a          6a          7a          8a          9a   
 eigenvalues H         -0.46096    -0.39097    -0.38145    -0.29437    -0.23000
            eV         -12.5434    -10.6390    -10.3798     -8.0103     -6.2586
 occupation              2.0000      2.0000      2.0000      2.0000      2.0000 

    irrep                 10a         11a         12a         13a         14a   
 eigenvalues H         -0.00697     0.02901     0.07210     0.07350     0.09391
            eV          -0.1897      0.7895      1.9619      2.0000      2.5554
 
 
 
 
 ==============================================================================
                           electrostatic moments
 ==============================================================================

 reference point for electrostatic moments:    0.00000   0.00000   0.00000

 
              nuc           elec       ->  total
 ------------------------------------------------------------------------------
                          charge      
 ------------------------------------------------------------------------------
          18.000000     -18.000000      -0.000000
 
 ------------------------------------------------------------------------------
                       dipole moment  
 ------------------------------------------------------------------------------
   x     -29.200372      29.620667       0.420295
   y     -23.632556      23.163628      -0.468928
   z       0.119649      -0.124279      -0.004630
 
   | dipole moment | =     0.6297 a.u. =     1.6006 debye 
 
 ------------------------------------------------------------------------------
                     quadrupole moment
 ------------------------------------------------------------------------------
  xx      59.772799     -69.307179      -9.534380
  yy      68.115140     -77.725067      -9.609927
  zz       5.600489     -16.005331     -10.404843
  xy      49.485946     -48.273808       1.212138
  xz      -0.175094       0.178633       0.003539
  yz      -0.060335       0.056013      -0.004322
 
     1/3  trace=      -9.849717
     anisotropy=       2.259553
 
 ==============================================================================
 


    ------------------------------------------------------------------------
         total  cpu-time :  20.03 seconds
         total wall-time :   4.87 seconds
    ------------------------------------------------------------------------

   ****  ridft : all done  ****


    2019-03-12 22:17:30.650 

