
   OpenMP run-time library returned nthreads = 28
 operating system is UNIX !

 dscf (c-19-413) : TURBOMOLE V7.3 ( 22142 ) 4 Jul 2018 at 18:12:42
 Copyright (C) 2018 TURBOMOLE GmbH, Karlsruhe


    2019-03-27 01:43:13.607 



                             d s c f - program

                   idea & directorship : reinhart ahlrichs
                   program development : marco haeser
                                         michael baer
                           dft version : oliver treutler


                          quantum chemistry group
                          universitaet  karlsruhe
                                  germany




                          References             
                                                 
          TURBOMOLE:                             
              R. Ahlrichs, M. Baer, M. Haeser, H. Horn, and
              C. Koelmel
              Electronic structure calculations on workstation
              computers: the program system TURBOMOLE
              Chem. Phys. Lett. 162: 165 (1989)
          Density Functional:                              
              O. Treutler and R. Ahlrichs                      
              Efficient Molecular Numerical Integration Schemes
              J. Chem. Phys. 102: 346 (1995)                   
          Parallel Version:                                
              Performance of parallel TURBOMOLE for Density    
              Functional Calculations                          
              M. v. Arnim and R. Ahlrichs                      
              J. Comp. Chem. 19: 1746 (1998)                   
                                         




              +--------------------------------------------------+
              | Atomic coordinate, charge and isotop information |
              +--------------------------------------------------+

                    atomic coordinates            atom    charge  isotop
         12.07912944   15.52410018   67.70888734    n      7.000     0
         13.54177747   13.46240897   67.12118251    c      6.000     0
         13.13737608   11.49709379   68.53280794    n      7.000     0
         11.23253213   12.26054315   70.17875940    c      6.000     0
         10.08735810   11.00198555   72.19509718    c      6.000     0
         10.37837592    8.85903611   72.95665681    o      8.000     0
          8.30534635   12.58746577   73.45554451    n      7.000     0
          7.71008262   15.03844057   72.86594996    c      6.000     0
          6.03956472   16.29699817   74.30781100    n      7.000     0
          8.75321145   16.23652693   70.91386286    n      7.000     0
         10.54656155   14.74553301   69.69687923    c      6.000     0
         12.01865821   17.22485370   66.83961332    h      1.000     0
          7.37938055   11.71819175   74.95220761    h      1.000     0
         14.91749809   13.54933637   65.60940161    h      1.000     0
          5.66539895   18.09601745   73.80325412    h      1.000     0
          5.23265166   15.52032073   75.88951177    h      1.000     0
         12.59502468   16.72974545   76.63406387    n      0.000     0
         14.42805902   15.56756388   75.36038845    c      0.000     0
         14.75309192   13.19406786   76.02746178    n      0.000     0
         12.97296990   12.78588702   77.90018038    c      0.000     0
         12.41739042   10.60514306   79.29857771    c      0.000     0
         13.42272472    8.47542171   79.17385579    o      0.000     0
         10.43506771   11.07190541   81.03523603    n      0.000     0
          9.27288613   13.39437883   81.39995317    c      0.000     0
          7.68551618   13.56067473   83.24810533    n      0.000     0
          9.73397931   15.39748853   80.03746063    n      0.000     0
         11.63882325   14.95340289   78.33103793    c      0.000     0
         11.89015683   18.48530103   76.36383303    h      0.000     0
          9.94940809    9.57902177   82.19363815    h      0.000     0
         15.49953374   16.50297832   73.89207125    h      0.000     0
          7.29812233   12.11881369   84.47264787    h      0.000     0
          6.75766065   15.21418510   83.45219575    h      0.000     0
         12.86336579   15.26142825   86.55512606    n      0.000     0
         14.55278095   15.34268647   84.64272322    c      0.000     0
         15.43906251   13.15249388   84.13438689    n      0.000     0
         14.35624943   11.53299859   85.85214794    c      0.000     0
         14.70395904    8.81557241   86.24332125    c      0.000     0
         16.07401049    7.31324013   84.91673351    o      0.000     0
         13.30745143    7.93684976   88.31257137    n      0.000     0
         11.72197120    9.45429984   89.73175569    c      0.000     0
         10.56923826    8.28266964   91.65927635    n      0.000     0
         11.37615132   11.91094382   89.28200087    n      0.000     0
         12.76321030   12.79344592   87.35448022    c      0.000     0
         11.85047258   16.70328929   87.29589871    h      0.000     0
         13.35469458    6.00365992   88.64516317    h      0.000     0
         14.97607960   17.06989616   83.63360946    h      0.000     0
         10.68451156    6.37026679   91.96163253    h      0.000     0
          9.28989367    9.30690120   92.63437503    h      0.000     0
 
       center of nuclear mass  :   11.73728514   12.53882133   79.06923679
       center of nuclear charge:   10.06606234   13.47474065   70.99393395

              +--------------------------------------------------+
              |               basis set information              |
              +--------------------------------------------------+

              we will work with the 1s 3p 5d 7f 9g ... basis set
              ...i.e. with spherical basis functions...

   type   atoms  prim   cont   basis
   ---------------------------------------------------------------------------
    n       15     77     55   cc-pVQZ   [5s4p3d2f1g|21s6p3d2f1g]
    c       15     77     55   cc-pVQZ   [5s4p3d2f1g|21s6p3d2f1g]
    o        3     77     55   cc-pVQZ   [5s4p3d2f1g|21s6p3d2f1g]
    h       15     32     30   cc-pVQZ   [4s3p2d1f|6s3p2d1f]
   ---------------------------------------------------------------------------
   total:   48   3021   2265
   ---------------------------------------------------------------------------

   total number of primitive shells          :  111
   total number of contracted shells         :  645
   total number of cartesian basis functions : 2835
   total number of SCF-basis functions       : 2265


 integral neglect threshold       :  0.12E-13
 integral storage threshold THIZE :  0.10E-04
 integral storage threshold THIME :         5


 DENSITY CONVERGENCE CHECK SWITCHED ON !
 SCF CONVERGENCE IF RMS(delta[D]) <     0.1000000000E-06


 symmetry group of the molecule :   c1 

 the group has the following generators :
   c1(z)

    1 symmetry operations found

 there are 1 real representations :   a   

 maximum number of shells which are related by symmetry :  1


    mo occupation :
   irrep   mo's   occupied
    a     2265       39
 
 number of basis functions   :                   2265
 number of occupied orbitals :                     39
 

 automatic virtual orbital shift switched on 
      shift if e(lumo)-e(homo) < 0.10000000    


          ------------------------
          nuclear repulsion energy  :   594.696983853    
          ------------------------


         -----------------
         -S,T+V- integrals
         -----------------

 1e-integrals will be neglected if expon. factor < 0.117882E-14
 
   Difference densities algorithm switched on.
   The maximal number of linear combinations of
   difference densities is                    20 .

 DIIS switched on: error vector is FDS-SDF
 Max. Iterations for DIIS is     :   5
 DIIS matrix (see manual) 
    Scaling factor of diagonals  :  1.200
    threshold for scaling factor :  0.000

 scf convergence criterion : increment of total energy < .1000000D-08
                  and increment of one-electron energy < .1000000D-05

  MOs are in ASCII format !


 reading orbital data $scfmo  from file mos
 orbital characterization : expanded
 mo provided and orthogonalized by Cholesky decomposition

 DSCF restart information will be dumped onto file mos

 
                                              current damping :  0.700
 ITERATION  ENERGY          1e-ENERGY        2e-ENERGY     RMS[dD(SAO)]   TOL
   1  -537.24322110925    -1903.9955820     772.05537702    0.000D+00 0.118D-13
          max. resid. norm for Fia-block=  3.804D-01 for orbital     31a         
          max. resid. fock norm         =  2.730D+01 for orbital   2130a         
          Delta Eig. =  1916.0038226864 eV 
 
                                              current damping :  0.650
 ITERATION  ENERGY          1e-ENERGY        2e-ENERGY     RMS[dD(SAO)]   TOL
   2  -539.09755533236    -1910.9804879     777.18594867    0.241D-02 0.953D-14
          Norm of current diis error:  4.7348    
          max. resid. norm for Fia-block=  1.837D-01 for orbital      1a         
          max. resid. fock norm         =  2.934D-01 for orbital   2145a         
          Delta Eig. =   812.7085501225 eV 
 
                                              current damping :  0.550
 ITERATION  ENERGY          1e-ENERGY        2e-ENERGY     RMS[dD(SAO)]   TOL
   3  -539.47484929605    -1913.8354251     779.66359199    0.108D-02 0.616D-14
          Norm of current diis error:  2.2259    
          max. resid. norm for Fia-block=  8.427D-02 for orbital     13a         
          max. resid. fock norm         =  8.960D-02 for orbital     13a         
          Delta Eig. =   340.7446241523 eV 
 
                                              current damping :  0.450
 ITERATION  ENERGY          1e-ENERGY        2e-ENERGY     RMS[dD(SAO)]   TOL
   4  -539.58401223117    -1914.7941762     780.51318016    0.548D-03 0.506D-14
          Norm of current diis error: 0.92978    
          max. resid. norm for Fia-block=  3.731D-02 for orbital     13a         
          max. resid. fock norm         =  4.475D-02 for orbital   1990a         
          Delta Eig. =   129.2056454748 eV 
 
                                              current damping :  0.300
 ITERATION  ENERGY          1e-ENERGY        2e-ENERGY     RMS[dD(SAO)]   TOL
   5  -539.60893622705    -1915.1310254     780.82510535    0.327D-03 0.440D-14
          Norm of current diis error: 0.35348    
          max. resid. norm for Fia-block=  1.581D-02 for orbital     33a         
          max. resid. fock norm         =  1.683D-02 for orbital     13a         
 mo-orthogonalization: Cholesky decomposition
          Delta Eig. =    44.7102021185 eV 
 
                                              current damping :  0.150
 ITERATION  ENERGY          1e-ENERGY        2e-ENERGY     RMS[dD(SAO)]   TOL
   6  -539.61392504136    -1915.2546487     780.94373980    0.184D-03 0.399D-14
          Norm of current diis error: 0.11556    
          max. resid. norm for Fia-block=  6.050D-03 for orbital     33a         
          max. resid. fock norm         =  6.348D-03 for orbital     33a         
          Delta Eig. =    11.6555511726 eV 
 
                                              current damping :  0.050
 ITERATION  ENERGY          1e-ENERGY        2e-ENERGY     RMS[dD(SAO)]   TOL
   7  -539.61473287336    -1915.2779695     780.96625277    0.773D-04 0.372D-14
          Norm of current diis error: 0.39042E-01
          max. resid. norm for Fia-block=  2.941D-03 for orbital     39a         
          max. resid. fock norm         =  2.982D-03 for orbital     39a         
          Delta Eig. =     1.6615116815 eV 
 
                                              current damping :  0.050
 ITERATION  ENERGY          1e-ENERGY        2e-ENERGY     RMS[dD(SAO)]   TOL
   8  -539.61486979498    -1915.2833053     780.97145168    0.257D-04 0.356D-14
          Norm of current diis error: 0.16239E-01
          max. resid. norm for Fia-block=  1.377D-03 for orbital     39a         
          max. resid. fock norm         =  1.558D-03 for orbital     29a         
          Delta Eig. =     0.0885843757 eV 
 
                                              current damping :  0.100
 ITERATION  ENERGY          1e-ENERGY        2e-ENERGY     RMS[dD(SAO)]   TOL
   9  -539.61489477285    -1915.2787630     780.96688437    0.815D-05 0.346D-14
          Norm of current diis error: 0.80204E-02
          max. resid. norm for Fia-block=  7.191D-04 for orbital     39a         
          max. resid. fock norm         =  7.726D-04 for orbital     39a         
          Delta Eig. =     0.0402485243 eV 
 
                                              current damping :  0.150
 ITERATION  ENERGY          1e-ENERGY        2e-ENERGY     RMS[dD(SAO)]   TOL
  10  -539.61490009230    -1915.2813677     780.96948380    0.269D-05 0.340D-14
          Norm of current diis error: 0.40442E-02
          max. resid. norm for Fia-block=  3.817D-04 for orbital     39a         
          max. resid. fock norm         =  4.021D-04 for orbital     35a         
 mo-orthogonalization: Cholesky decomposition
          Delta Eig. =     0.0212439525 eV 
 
                                              current damping :  0.200
 ITERATION  ENERGY          1e-ENERGY        2e-ENERGY     RMS[dD(SAO)]   TOL
  11  -539.61490143980    -1915.2801018     780.96821653    0.213D-05 0.335D-14
          Norm of current diis error: 0.13585E-02
          max. resid. norm for Fia-block=  1.803D-04 for orbital     39a         
          max. resid. fock norm         =  1.823D-04 for orbital     39a         
          Delta Eig. =     0.0026345323 eV 
 
                                              current damping :  0.250
 ITERATION  ENERGY          1e-ENERGY        2e-ENERGY     RMS[dD(SAO)]   TOL
  12  -539.61490166032    -1915.2802202     780.96833467    0.917D-06 0.329D-14
          Norm of current diis error: 0.51333E-03
          max. resid. norm for Fia-block=  6.794D-05 for orbital     39a         
          max. resid. fock norm         =  6.820D-05 for orbital     39a         
          Delta Eig. =     0.0009027656 eV 
 
                                              current damping :  0.300
 ITERATION  ENERGY          1e-ENERGY        2e-ENERGY     RMS[dD(SAO)]   TOL
  13  -539.61490168944    -1915.2801564     780.96827089    0.346D-06 0.325D-14
          Norm of current diis error: 0.22458E-03
          max. resid. norm for Fia-block=  2.500D-05 for orbital     39a         
          max. resid. fock norm         =  2.520D-05 for orbital     39a         
          Delta Eig. =     0.0005692795 eV 
 
                                              current damping :  0.350
 ITERATION  ENERGY          1e-ENERGY        2e-ENERGY     RMS[dD(SAO)]   TOL
  14  -539.61490169414    -1915.2801624     780.96827685    0.150D-06 0.322D-14
          Norm of current diis error: 0.95040E-04
          max. resid. norm for Fia-block=  9.830D-06 for orbital     39a         
          max. resid. fock norm         =  9.864D-06 for orbital     39a         
          Delta Eig. =     0.0002147156 eV 

 DENSITY CONVERGED !

 
                                              current damping :  0.400
 ITERATION  ENERGY          1e-ENERGY        2e-ENERGY     RMS[dD(SAO)]   TOL
  15  -539.61490169489    -1915.2801533     780.96826774    0.483D-07 0.335D-14
          Norm of current diis error: 0.43824E-04
          max. resid. norm for Fia-block=  5.334D-06 for orbital     38a         
          max. resid. fock norm         =  5.509D-06 for orbital     38a         
 mo-orthogonalization: Cholesky decomposition
          Delta Eig. =     0.0000510441 eV 

 ENERGY & DENSITY CONVERGED !

 
                                              current damping :  0.450
 ITERATION  ENERGY          1e-ENERGY        2e-ENERGY     RMS[dD(SAO)]   TOL
  16  -539.61490169503    -1915.2801558     780.96827021    0.206D-07 0.335D-14
          max. resid. norm for Fia-block=  1.627D-06 for orbital     38a         
          max. resid. fock norm         =  1.632D-06 for orbital     38a         

 convergence criteria satisfied after    16 iterations


                  ------------------------------------------ 
                 |  total energy      =   -539.61490169503  |
                  ------------------------------------------ 
                 :  kinetic energy    =    538.68218920047  :
                 :  potential energy  =  -1078.29709089549  :
                 :  virial theorem    =      1.99827152198  :
                 :  wavefunction norm =      1.00000000000  :
                  .......................................... 


 <geterg> : there is no data group $energy 


 orbitals $scfmo  will be written to file mos

    irrep                 35a         36a         37a         38a         39a   
 eigenvalues H         -0.43677    -0.42909    -0.42580    -0.40649    -0.29924
            eV         -11.8853    -11.6761    -11.5867    -11.0611     -8.1428
 occupation              2.0000      2.0000      2.0000      2.0000      2.0000 

    irrep                 40a         41a         42a         43a         44a   
 eigenvalues H          0.03452     0.06061     0.07270     0.08107     0.08750
            eV           0.9392      1.6492      1.9781      2.2062      2.3811
 
 
 
 
 ==============================================================================
                           electrostatic moments
 ==============================================================================

 reference point for electrostatic moments:    0.00000   0.00000   0.00000

 
              nuc           elec       ->  total
 ------------------------------------------------------------------------------
                          charge      
 ------------------------------------------------------------------------------
          78.000000     -78.000000       0.000000
 
 ------------------------------------------------------------------------------
                       dipole moment  
 ------------------------------------------------------------------------------
   x     785.152862    -786.468599      -1.315737
   y    1051.029770   -1048.458021       2.571750
   z    5537.526848   -5537.208859       0.317989
 
   | dipole moment | =     2.9062 a.u. =     7.3869 debye 
 
 ------------------------------------------------------------------------------
                     quadrupole moment
 ------------------------------------------------------------------------------
  xx    8338.464835   -8405.766347     -67.301511
  yy   14616.816198  -14601.695117      15.121080
  zz  393626.440565 -393616.773023       9.667543
  xy   10415.235937  -10403.959652      11.276285
  xz   55326.372695  -55427.371935    -100.999241
  yz   74575.980987  -74389.357686     186.623301
 
     1/3  trace=     -14.170963
     anisotropy=     376.619839
 
 ==============================================================================
 


    ------------------------------------------------------------------------
         total  cpu-time :   1 days 15 hours  4 minutes and 58 seconds
         total wall-time :  1 hours 25 minutes and 48 seconds
    ------------------------------------------------------------------------

   ****  dscf : all done  ****


    2019-03-27 03:09:01.651 

