
   OpenMP run-time library returned nthreads = 28

 data group $actual step is not empty 
 due to the abend of rirpa


 rirpa (c-14-38) : TURBOMOLE V7.3 ( 22142 ) 4 Jul 2018 at 18:12:42
 Copyright (C) 2018 TURBOMOLE GmbH, Karlsruhe


    2019-03-01 10:56:47.162 

 
 
    *************************************************************************
    *************************** PROGRAM RIRPA *******************************
    ******                                                             ******
    ******              H. Eshuis, J. E. Bates and F. Furche           ******
    ******                                                             ******
    ****** Nov 2011                                                    ******
    ****** Copyright TURBOMOLE GmbH                                    ******
    *************************************************************************
    
    
                                References:                                  
    
                   RIRPA:                                                    
                     H. Eshuis, J. Yarkony and F. Furche                     
                     Fast computation of molecular random phase              
                     approximation correlation energies using resolution     
                     of the identity imaginary frequency integration         
                     J. Chem. Phys. 132: 234114 (2010)                       
    
                     H. Eshuis, J. E. Bates and F. Furche                    
                     Electron correlation methods based on                   
                     the random phase approximation                          
                     Theor. Chem. Acc.  131: 1084 (2012)                     
    
                   TWO-COMPONENT RIRPA:                                      
                     M. Kuehn                                                
                     Correlation energies from the                           
                     two-component random-phase approximation                
                     J. Chem. Theory Comput. 10: 623 (2014)                  
    
                   RIRPA GRADIENTS:                                          
                     Asbjoern M. Burow, Jefferson E. Bates, Filipp Furche*,  
                     and Henk Eshuis                                         
                     Analytical First-Order Molecular Properties and Forces  
                     within the Adiabatic Connection Random Phase            
                     Approximation                                           
                     J. Chem. Theory Comput. 10: 180 (2014)                  
    
    
    
      ... OpenMP parallelization enabled, threads:   28

   *-----------------------------------------------------------------------*
   |                     program will use 28 thread(s)                     |
   *-----------------------------------------------------------------------*
 
                FOUND RI-J FLAG
 
  HF exact exchange energy will be computed using RI-J.
 
  The HXX energy will NOT be computed due to nohxx option. 
 


              +--------------------------------------------------+
              | Atomic coordinate, charge and isotop information |
              +--------------------------------------------------+

                    atomic coordinates            atom    charge  isotop
          6.05659189   -0.94048895   -4.35480813    c      6.000     0
          7.49962662   -2.53265446   -5.84947775    c      6.000     0
          6.18012529   -4.87531841   -6.04637788    c      6.000     0
          3.96656005   -4.66464663   -4.65960429    c      6.000     0
          6.42436698    1.79798203   -3.59417940    c      6.000     0
          9.07738196    2.66591966   -4.49760076    c      6.000     0
          4.43700767    3.41137206   -4.89113411    c      6.000     0
          4.50257883    4.42215176   -7.30482428    c      6.000     0
          1.88514808   -6.56016261   -4.13169381    c      6.000     0
          1.73699803   -7.08664932   -1.25279560    c      6.000     0
          2.51832904   -9.05559727   -5.48368597    c      6.000     0
         -0.64075295   -5.59626660   -5.09386150    c      6.000     0
         -1.99428580   -6.23438912   -7.24654003    c      6.000     0
          3.92163817   -2.26122403   -3.65805003    n      7.000     0
          2.11854219    4.01750368   -3.85982585    n      7.000     0
         -2.06216339   -3.83183561   -3.80426755    n      7.000     0
         -3.91783079    4.84255687   -4.57716225    c      6.000     0
         -6.49117714    5.35603384   -4.40570077    c      6.000     0
         -7.79988974    3.00395119   -4.33751600    c      6.000     0
         -6.01029284    1.08346078   -4.43579244    c      6.000     0
         -1.74797667    6.70337984   -4.89577494    c      6.000     0
         -1.42553625    8.27662569   -2.43621438    c      6.000     0
         -2.47096983    8.55352329   -7.03988900    c      6.000     0
          0.72535695    5.44738358   -5.55838143    c      6.000     0
          2.17770611    5.69745616   -7.72232265    c      6.000     0
         -6.37705258   -1.73026089   -3.95463425    c      6.000     0
         -8.94169076   -2.54048547   -5.12766108    c      6.000     0
         -4.30254376   -3.36355888   -5.05971943    c      6.000     0
         -4.29310159   -4.83827197   -7.22400518    c      6.000     0
         -3.67566487    2.24167950   -4.56805342    n      7.000     0
          6.38858894    2.07426602   -0.73596175    c      6.000     0
          6.36277500    4.21756192    0.82399973    c      6.000     0
          6.83851488    0.02927768    0.75978099    n      7.000     0
          6.84100511    3.39257236    3.33556150    c      6.000     0
          7.12616251    0.75961049    3.25103206    c      6.000     0
         -6.55501806   -2.12478905   -1.09642806    c      6.000     0
         -6.51959921   -4.28526775    0.41638225    c      6.000     0
         -7.02010736   -0.08550083    0.43477021    n      7.000     0
         -7.07490658   -3.51386973    2.94265858    c      6.000     0
         -7.39764716   -0.89298541    2.90946676    c      6.000     0
          7.64410523   -1.05781758    5.21820343    c      6.000     0
         -7.76535338    0.91165175    4.91149480    c      6.000     0
          8.05623684   -0.57723657    7.45297736    o      8.000     0
         -8.35156648    0.48033527    7.10358177    o      8.000     0
          7.64428665   -3.46725220    4.27852444    o      8.000     0
         -7.33950547    3.36065213    4.05036823    o      8.000     0
         -7.80979450    5.37854477    5.88685588    c      6.000     0
          8.16515392   -5.48501931    6.07708097    c      6.000     0
         -6.87136406    7.81209282    4.70474429    c      6.000     0
          7.43599124   -7.95100247    4.81528474    c      6.000     0
         -7.15695316   -5.21084738    5.20910747    c      6.000     0
          6.96452503    5.04158557    5.63832198    c      6.000     0
          4.43782184    5.14437392    7.07591983    c      6.000     0
         -4.55158175   -5.51188746    6.46645904    c      6.000     0
         -6.01187267   -6.95325655   -0.39750406    c      6.000     0
          5.95720012    6.90800520    0.02134905    c      6.000     0
          1.46621179   -2.75248977    7.65079812    c      6.000     0
          1.28737432   -2.13045025    5.10073749    c      6.000     0
          0.29962023   -1.23487408    9.46856742    c      6.000     0
          0.00052923    0.05207755    4.34399601    c      6.000     0
         -1.02348263    0.92491072    8.72447582    c      6.000     0
         -1.13924409    1.57794195    6.17720516    c      6.000     0
         -0.10402960    0.74837421    1.59232937    c      6.000     0
         -0.65014532    3.02318744    1.01454498    o      8.000     0
          0.36854886   -0.95827276   -0.01398108    o      8.000     0
          9.28565613   -2.06932957   -6.72633419    h      1.000     0
          6.79321048   -6.52714517   -7.08117689    h      1.000     0
          9.37092176    4.64626899   -3.99670878    h      1.000     0
          9.25944118    2.46053765   -6.54473838    h      1.000     0
         10.52759429    1.51461458   -3.58182930    h      1.000     0
          6.05144490    4.26291571   -8.62750194    h      1.000     0
          0.27982670   -8.50438954   -0.86582365    h      1.000     0
          1.29265351   -5.37395795   -0.18598621    h      1.000     0
          3.56089979   -7.80730168   -0.59452269    h      1.000     0
          2.69181223   -8.78824248   -7.52610908    h      1.000     0
          1.03007454  -10.44399733   -5.12328603    h      1.000     0
          4.30965795   -9.80198284   -4.76987810    h      1.000     0
         -1.41868545   -7.59066178   -8.66231010    h      1.000     0
          2.57356174   -1.58252655   -2.43153520    h      1.000     0
          1.50846242    3.56438868   -2.07498195    h      1.000     0
         -1.52444497   -2.96927802   -2.15453012    h      1.000     0
         -7.34447551    7.21300451   -4.45711214    h      1.000     0
         -9.82595381    2.75349830   -4.23634640    h      1.000     0
         -0.03208176    9.77368137   -2.73859505    h      1.000     0
         -0.74610593    7.10366656   -0.87359857    h      1.000     0
         -3.22303730    9.16990622   -1.92035885    h      1.000     0
         -2.76745327    7.54429127   -8.81873341    h      1.000     0
         -0.97296619    9.95460907   -7.29972141    h      1.000     0
         -4.21638726    9.54412258   -6.55212251    h      1.000     0
          1.64796304    6.73091949   -9.40282530    h      1.000     0
         -8.92269148   -2.23985922   -7.17117518    h      1.000     0
        -10.47974873   -1.43506770   -4.30717737    h      1.000     0
         -9.28166111   -4.53743262   -4.73455741    h      1.000     0
         -5.79670197   -4.95706858   -8.60287613    h      1.000     0
         -1.99662600    1.31515907   -4.61185182    h      1.000     0
          6.96297247   -1.77329282    0.13383818    h      1.000     0
         -7.85907237    1.47963155   -0.30429348    h      1.000     0
         -6.80560794    4.91755805    7.62909624    h      1.000     0
         -9.83801452    5.43325233    6.26877102    h      1.000     0
          7.07441050   -5.13118966    7.79448202    h      1.000     0
         10.17804572   -5.42364362    6.55270679    h      1.000     0
         -4.81349990    7.78559081    4.43759822    h      1.000     0
         -7.28545848    9.39743953    5.96327192    h      1.000     0
         -7.81805652    8.18461347    2.90008922    h      1.000     0
          5.41727994   -7.97830075    4.36471608    h      1.000     0
          7.84188395   -9.52262344    6.09853259    h      1.000     0
          8.50913504   -8.23602480    3.07031263    h      1.000     0
         -7.85924735   -7.06987279    4.62290866    h      1.000     0
         -8.49428123   -4.44789121    6.58775211    h      1.000     0
          7.50517407    6.95760353    5.06300307    h      1.000     0
          8.43286051    4.33632749    6.91350534    h      1.000     0
          2.91723795    5.81407688    5.84346925    h      1.000     0
          4.57682062    6.41539211    8.70577975    h      1.000     0
          3.91792017    3.26151990    7.74681143    h      1.000     0
         -3.16477089   -6.27087100    5.13349873    h      1.000     0
         -4.67172345   -6.79492574    8.08647037    h      1.000     0
         -3.85279099   -3.68449622    7.12510105    h      1.000     0
         -5.91542246   -7.10980179   -2.45297909    h      1.000     0
         -7.50152793   -8.21941343    0.28654148    h      1.000     0
         -4.21575455   -7.64081271    0.36993221    h      1.000     0
          6.09687785    7.11359742   -2.02839699    h      1.000     0
          7.35662936    8.16073709    0.89359529    h      1.000     0
          4.08350239    7.59033417    0.58730028    h      1.000     0
          2.49262025   -4.43260770    8.22903698    h      1.000     0
          2.16565425   -3.29952619    3.66593136    h      1.000     0
          0.41879929   -1.73420128   11.45650829    h      1.000     0
         -1.93838164    2.10982054   10.12927379    h      1.000     0
         -2.09070617    3.29920439    5.59812713    h      1.000     0
         -4.47717701    4.53608054    0.66086160    na    11.000     0
 
       center of nuclear mass  :   -0.09748777    0.10733744   -0.05051306
       center of nuclear charge:   -0.08319036    0.09224148   -0.03653370
              +-------------------------------------------------+
              |        Rotational Constants Section             |
              +-------------------------------------------------+
                                   Center of Mass [a.u]:
              -0.09748776909078         0.10733743923825        -0.05051306122885
                     Principal Moments of Inertia [a.u.]
           40034.64084508358792     45932.07479793081438     49849.01801723481185
                       Rotational constants A,B,C [a.u.]
               0.00001248918410         0.00001088563933         0.00001003028785
                     Rotational constants A,B,C [cm**-1]
               0.00150368993516         0.00131062415015         0.00120764036868
                        Rotational constants A,B,C [MHz]
              45.07949017311314        39.29152354862405        36.20414745052928

   * BASIS SET information:

              +--------------------------------------------------+
              |               basis set information              |
              +--------------------------------------------------+

              we will work with the 1s 3p 5d 7f 9g ... basis set
              ...i.e. with spherical basis functions...

   type   atoms  prim   cont   basis
   ---------------------------------------------------------------------------
    c       53     50     30   cc-pVTZ   [4s3p2d1f|18s5p2d1f]
    n        6     50     30   cc-pVTZ   [4s3p2d1f|18s5p2d1f]
    o        6     50     30   cc-pVTZ   [4s3p2d1f|18s5p2d1f]
    h       63     16     14   cc-pVTZ   [3s2p1d|5s2p1d]
    na       1    115     34   cc-pVTZ   [5s4p2d1f|44s18p2d1f]
   ---------------------------------------------------------------------------
   total:  129   4373   2866
   ---------------------------------------------------------------------------

   total number of primitive shells          :  151
   total number of contracted shells         : 1040
   total number of cartesian basis functions : 3259
   total number of SCF-basis functions       : 2866


   * AUXILIARY BASIS SET information:

              +--------------------------------------------------+
              |               basis set information              |
              +--------------------------------------------------+

              we will work with the 1s 3p 5d 7f 9g ... basis set
              ...i.e. with spherical basis functions...

   type   atoms  prim   cont   basis
   ---------------------------------------------------------------------------
    c       53     81     81   cc-pVTZ   [8s6p5d3f1g|8s6p5d3f1g]
    n        6     81     81   cc-pVTZ   [8s6p5d3f1g|8s6p5d3f1g]
    o        6     81     81   cc-pVTZ   [8s6p5d3f1g|8s6p5d3f1g]
    h       63     30     30   cc-pVTZ   [4s3p2d1f|4s3p2d1f]
    na       1    122    122   cc-pVTZ   [10s8p7d5f2g|10s8p7d5f2g]
   ---------------------------------------------------------------------------
   total:  129   7277   7277
   ---------------------------------------------------------------------------

   total number of primitive shells          :  111
   total number of contracted shells         : 2157
   total number of cartesian basis functions : 8926
   total number of SCF-basis functions       : 7277


   * RIJ AUXILIARY BASIS SET information:

              +--------------------------------------------------+
              |               basis set information              |
              +--------------------------------------------------+

              we will work with the 1s 3p 5d 7f 9g ... basis set
              ...i.e. with spherical basis functions...

   type   atoms  prim   cont   basis
   ---------------------------------------------------------------------------
    c       53     70     49   cc-pVTZ   [6s4p3d1f1g|12s5p4d2f1g]
    n        6     70     49   cc-pVTZ   [6s4p3d1f1g|12s5p4d2f1g]
    o        6     70     49   cc-pVTZ   [6s4p3d1f1g|12s5p4d2f1g]
    h       63     16     11   cc-pVTZ   [3s1p1d|5s2p1d]
    na       1     77     56   universal   [8s4p4d1f1g|14s5p5d2f1g]
   ---------------------------------------------------------------------------
   total:  129   5635   3934
   ---------------------------------------------------------------------------

   total number of primitive shells          :  107
   total number of contracted shells         : 1308
   total number of cartesian basis functions : 4790
   total number of SCF-basis functions       : 3934

  No keyword $dft found! - HARTREE FOCK CALCULATION

 reading orbital data $scfmo  from file mos
 orbital characterization : scfconv=9

 integral neglect threshold       :  0.33E+02

 scfconv                     9

 MAXIMUM CORE MEMORY WHICH CAN BE ALLOCATED DYNAMICALLY = 108718 MiB
              ( or 14250000000 double words per process)


 there are 1 real representations :   a   

 maximum number of shells which are related by symmetry :  1

 time elapsed for calculating density matrices :   3.332 sec

     total memory allocated for calculation of (Q|P)**(-1/2) : 607 MiB


     calculation of (P|Q) ...
     time in lp2sym        cpu:  1 min  8 s  wall:  0 min  3 s  ratio: 27.2


     calculation of the Cholesky decomposition of (P|Q)**(-1) ...
     time in invmetri      cpu: 14 min 31 s  wall:  0 min 38 s  ratio: 23.0

   threshold for RMS(d[D]) in SCF was     :  0.10E-06
   integral neglect threshold             :  0.37E-14
   derivative integral neglect threshold  :  0.10E-06


 setting up bound for integral derivative estimation

 increment for numerical differentiation : 0.00050000
 total memory allocated for calculation of (Q|P)**(-1/2) : 607 MiB
 Dividing biap into                    371  block chunks,
 using                   145 MiB per block
 Reserved                  54068 MiB for BLAS routines
 Estimated total memory usage:                 108552 MiB
 number of passes for ispin    1
 =    1
 
 Number of eigenvalues < 6e-3:                      0
 
 
            -----------------------------
            Complex frequency integration
            -----------------------------
 
 Number of Clenshaw-Curtis nodes:                    100
 Optimized scaling parameter    :    1.00000000000000     
 Sensitivity measure            :  -3.077163523990123E-012
 
 Done with rirpa frequency point #                     1
 Done with rirpa frequency point #                     2
 Done with rirpa frequency point #                     3
 Done with rirpa frequency point #                     4
 Done with rirpa frequency point #                     5
 Done with rirpa frequency point #                     6
 Done with rirpa frequency point #                     7
 Done with rirpa frequency point #                     8
 Done with rirpa frequency point #                     9
 Done with rirpa frequency point #                    10
 Done with rirpa frequency point #                    11
 Done with rirpa frequency point #                    12
 Done with rirpa frequency point #                    13
 Done with rirpa frequency point #                    14
 Done with rirpa frequency point #                    15
 Done with rirpa frequency point #                    16
 Done with rirpa frequency point #                    17
 Done with rirpa frequency point #                    18
 Done with rirpa frequency point #                    19
 Done with rirpa frequency point #                    20
 Done with rirpa frequency point #                    21
 Done with rirpa frequency point #                    22
 Done with rirpa frequency point #                    23
 Done with rirpa frequency point #                    24
 Done with rirpa frequency point #                    25
 Done with rirpa frequency point #                    26
 Done with rirpa frequency point #                    27
 Done with rirpa frequency point #                    28
 Done with rirpa frequency point #                    29
 Done with rirpa frequency point #                    30
 Done with rirpa frequency point #                    31
 Done with rirpa frequency point #                    32
 Done with rirpa frequency point #                    33
 Done with rirpa frequency point #                    34
 Done with rirpa frequency point #                    35
 Done with rirpa frequency point #                    36
 Done with rirpa frequency point #                    37
 Done with rirpa frequency point #                    38
 Done with rirpa frequency point #                    39
 Done with rirpa frequency point #                    40
 Done with rirpa frequency point #                    41
 Done with rirpa frequency point #                    42
 Done with rirpa frequency point #                    43
 Done with rirpa frequency point #                    44
 Done with rirpa frequency point #                    45
 Done with rirpa frequency point #                    46
 Done with rirpa frequency point #                    47
 Done with rirpa frequency point #                    48
 Done with rirpa frequency point #                    49
 Done with rirpa frequency point #                    50
 Done with rirpa frequency point #                    51
 Done with rirpa frequency point #                    52
 Done with rirpa frequency point #                    53
 Done with rirpa frequency point #                    54
 Done with rirpa frequency point #                    55
 Done with rirpa frequency point #                    56
 Done with rirpa frequency point #                    57
 Done with rirpa frequency point #                    58
 Done with rirpa frequency point #                    59
 Done with rirpa frequency point #                    60
 Done with rirpa frequency point #                    61
 Done with rirpa frequency point #                    62
 Done with rirpa frequency point #                    63
 Done with rirpa frequency point #                    64
 Done with rirpa frequency point #                    65
 Done with rirpa frequency point #                    66
 Done with rirpa frequency point #                    67
 Done with rirpa frequency point #                    68
 Done with rirpa frequency point #                    69
 Done with rirpa frequency point #                    70
 Done with rirpa frequency point #                    71
 Done with rirpa frequency point #                    72
 Done with rirpa frequency point #                    73
 Done with rirpa frequency point #                    74
 Done with rirpa frequency point #                    75
 Done with rirpa frequency point #                    76
 Done with rirpa frequency point #                    77
 Done with rirpa frequency point #                    78
 Done with rirpa frequency point #                    79
 Done with rirpa frequency point #                    80
 Done with rirpa frequency point #                    81
 Done with rirpa frequency point #                    82
 Done with rirpa frequency point #                    83
 Done with rirpa frequency point #                    84
 Done with rirpa frequency point #                    85
 Done with rirpa frequency point #                    86
 Done with rirpa frequency point #                    87
 Done with rirpa frequency point #                    88
 Done with rirpa frequency point #                    89
 Done with rirpa frequency point #                    90
 Done with rirpa frequency point #                    91
 Done with rirpa frequency point #                    92
 Done with rirpa frequency point #                    93
 Done with rirpa frequency point #                    94
 Done with rirpa frequency point #                    95
 Done with rirpa frequency point #                    96
 Done with rirpa frequency point #                    97
 Done with rirpa frequency point #                    98
 Done with rirpa frequency point #                    99
 Done with rirpa frequency point #                   100
 


 RI-RPA correlation energy: -0.1315243802314568E+02
 
 
 HXX Energy calculation skipped due to nohxx option
 

                  --------------------------------------------------- 
                 |  HXX+RIRPA total energy     =    -13.15243802315  |
                  ---------------------------------------------------- 
                 :  RIRPA correlation energy   =    -13.15243802315  :
                 :  HXX total energy           =      0.00000000000  :
                 :  Hartree energy             =      0.00000000000  :
                 :  Exact Exchange energy      =      0.00000000000  :
                  .................................................... 


    ------------------------------------------------------------------------
    Rirpa profiling                cpu                    wall         ratio
    ------------------------------------------------------------------------
    module                         sec     %               sec     %
    ------------------------------------------------------------------------
    RIRPA                    539830.2  100.00        31250.3  100.00  17.3
    riccaux                     939.6    0.17           40.4    0.13  23.3
    riccbound                    47.0    0.01           42.6    0.14   1.1
    ccmkbaoi                  14356.4    2.66         1373.1    4.39  10.5
    cc3idxnrm                  1055.3    0.20           43.8    0.14  24.1
    ecrpa                    523376.9   96.95        29721.8   95.11  17.6
    tread                      3706.2    0.69         3653.4   11.69   1.0
    tqbuild                  502832.8   93.15        23496.0   75.19  21.4
    trpaln                     7503.3    1.39          280.2    0.90  26.8
    ------------------------------------------------------------------------
    sum                     1593695.7  295.22        89929.4  287.77  17.7
    ------------------------------------------------------------------------


    ------------------------------------------------------------------------
         total  cpu-time :   6 days  5 hours 57 minutes and 14 seconds
         total wall-time :  8 hours 40 minutes and 52 seconds
    ------------------------------------------------------------------------

   ****  rirpa : all done  ****


    2019-03-01 19:37:39.591 

