
   OpenMP run-time library returned nthreads =  8
 operating system is UNIX !

 dscf (c-17-4) : TURBOMOLE V7.3 ( 22142 ) 4 Jul 2018 at 18:12:42
 Copyright (C) 2018 TURBOMOLE GmbH, Karlsruhe


    2019-04-02 13:34:03.636 



                             d s c f - program

                   idea & directorship : reinhart ahlrichs
                   program development : marco haeser
                                         michael baer
                           dft version : oliver treutler


                          quantum chemistry group
                          universitaet  karlsruhe
                                  germany




                          References             
                                                 
          TURBOMOLE:                             
              R. Ahlrichs, M. Baer, M. Haeser, H. Horn, and
              C. Koelmel
              Electronic structure calculations on workstation
              computers: the program system TURBOMOLE
              Chem. Phys. Lett. 162: 165 (1989)
          Density Functional:                              
              O. Treutler and R. Ahlrichs                      
              Efficient Molecular Numerical Integration Schemes
              J. Chem. Phys. 102: 346 (1995)                   
          Parallel Version:                                
              Performance of parallel TURBOMOLE for Density    
              Functional Calculations                          
              M. v. Arnim and R. Ahlrichs                      
              J. Comp. Chem. 19: 1746 (1998)                   
                                         




              +--------------------------------------------------+
              | Atomic coordinate, charge and isotop information |
              +--------------------------------------------------+

                    atomic coordinates            atom    charge  isotop
         -0.00098493    0.12088822    9.90463354    c      6.000     0
          0.00104037   -0.14392119   12.77651262    c      6.000     0
         -1.67521479    0.73305544   13.59546212    h      1.000     0
          0.01852317   -2.12960808   13.33022103    h      1.000     0
          1.66146755    0.76251347   13.59597926    h      1.000     0
         -2.34321607   -1.16724743    8.82012253    c      6.000     0
         -2.38724521   -0.99914283    6.76631301    h      1.000     0
         -2.36605460   -3.17276917    9.29824818    h      1.000     0
         -4.06465023   -0.31254082    9.56672520    h      1.000     0
          2.36609568   -1.12168382    8.82093166    c      6.000     0
          2.40639747   -0.95484809    6.76685423    h      1.000     0
          2.42870332   -3.12585336    9.30109655    h      1.000     0
          4.07027383   -0.23229686    9.56627956    h      1.000     0
         -0.02790951    2.91729077    9.19670193    c      6.000     0
          1.63082783    3.88216040    9.95061786    h      1.000     0
         -0.02890011    3.15625594    7.14889701    h      1.000     0
         -1.70618654    3.84955637    9.94841257    h      1.000     0
 
       center of nuclear mass  :   -0.00099656    0.12111698    9.90363714
       center of nuclear charge:   -0.00099774    0.12115337    9.90353619

              +--------------------------------------------------+
              |               basis set information              |
              +--------------------------------------------------+

              we will work with the 1s 3p 5d 7f 9g ... basis set
              ...i.e. with spherical basis functions...

   type   atoms  prim   cont   basis
   ---------------------------------------------------------------------------
    c        5     77     57   def2-QZVP   [7s4p3d2f1g|15s8p3d2f1g]
    h       12     33     30   def2-QZVP   [4s3p2d1f|7s3p2d1f]
   ---------------------------------------------------------------------------
   total:   17    781    645
   ---------------------------------------------------------------------------

   total number of primitive shells          :   42
   total number of contracted shells         :  205
   total number of cartesian basis functions :  780
   total number of SCF-basis functions       :  645


 integral neglect threshold       :  0.43E-13
 integral storage threshold THIZE :  0.10E-04
 integral storage threshold THIME :         5


 DENSITY CONVERGENCE CHECK SWITCHED ON !
 SCF CONVERGENCE IF RMS(delta[D]) <     0.1000000000E-06


 symmetry group of the molecule :   c1 

 the group has the following generators :
   c1(z)

    1 symmetry operations found

 there are 1 real representations :   a   

 maximum number of shells which are related by symmetry :  1


    mo occupation :
   irrep   mo's   occupied
    a      645       21
 
 number of basis functions   :                    645
 number of occupied orbitals :                     21
 

 automatic virtual orbital shift switched on 
      shift if e(lumo)-e(homo) < 0.10000000    


          ------------------------
          nuclear repulsion energy  :   199.368957381    
          ------------------------


         -----------------
         -S,T+V- integrals
         -----------------

 1e-integrals will be neglected if expon. factor < 0.428457E-14
 
   Difference densities algorithm switched on.
   The maximal number of linear combinations of
   difference densities is                    20 .

 DIIS switched on: error vector is FDS-SDF
 Max. Iterations for DIIS is     :   5
 DIIS matrix (see manual) 
    Scaling factor of diagonals  :  1.200
    threshold for scaling factor :  0.000

 scf convergence criterion : increment of total energy < .1000000D-08
                  and increment of one-electron energy < .1000000D-05

  MOs are in ASCII format !


 reading orbital data $scfmo  from file mos
 orbital characterization : scfconv=9

 DSCF restart information will be dumped onto file mos

 
                                              current damping :  0.700
 ITERATION  ENERGY          1e-ENERGY        2e-ENERGY     RMS[dD(SAO)]   TOL
   1  -196.36840768477    -659.12576821     263.38840314    0.000D+00 0.427D-13
          max. resid. norm for Fia-block=  1.977D-01 for orbital      1a         
          max. resid. fock norm         =  6.276D-01 for orbital    637a         
          Delta Eig. =    46.9587446603 eV 
 
                                              current damping :  0.650
 ITERATION  ENERGY          1e-ENERGY        2e-ENERGY     RMS[dD(SAO)]   TOL
   2  -196.40760671195    -658.48362958     262.70706549    0.589D-03 0.280D-13
          Norm of current diis error: 0.70136    
          max. resid. norm for Fia-block=  8.811D-02 for orbital      5a         
          max. resid. fock norm         =  2.526D-01 for orbital    637a         
          Delta Eig. =    19.1902503786 eV 
 
                                              current damping :  0.600
 ITERATION  ENERGY          1e-ENERGY        2e-ENERGY     RMS[dD(SAO)]   TOL
   3  -196.41600180660    -658.68217000     262.89721081    0.287D-03 0.208D-13
          Norm of current diis error: 0.30688    
          max. resid. norm for Fia-block=  3.575D-02 for orbital      5a         
          max. resid. fock norm         =  1.013D-01 for orbital    637a         
          Delta Eig. =     8.1763158500 eV 
 
                                              current damping :  0.650
 ITERATION  ENERGY          1e-ENERGY        2e-ENERGY     RMS[dD(SAO)]   TOL
   4  -196.41774764146    -658.59737877     262.81067375    0.121D-03 0.182D-13
          Norm of current diis error: 0.12236    
          max. resid. norm for Fia-block=  1.351D-02 for orbital      5a         
          max. resid. fock norm         =  3.782D-02 for orbital    637a         
          Delta Eig. =     2.9141328970 eV 
 
                                              current damping :  0.500
 ITERATION  ENERGY          1e-ENERGY        2e-ENERGY     RMS[dD(SAO)]   TOL
   5  -196.41803274128    -658.59491194     262.80792181    0.475D-04 0.168D-13
          Norm of current diis error: 0.51756E-01
          max. resid. norm for Fia-block=  5.318D-03 for orbital      5a         
          max. resid. fock norm         =  1.494D-02 for orbital    637a         
 mo-orthogonalization: Cholesky decomposition
          Delta Eig. =     1.2738299133 eV 
 
                                              current damping :  0.350
 ITERATION  ENERGY          1e-ENERGY        2e-ENERGY     RMS[dD(SAO)]   TOL
   6  -196.41808935211    -658.58931439     262.80226765    0.217D-04 0.156D-13
          Norm of current diis error: 0.19108E-01
          max. resid. norm for Fia-block=  1.758D-03 for orbital      5a         
          max. resid. fock norm         =  4.985D-03 for orbital    637a         
          Delta Eig. =     0.4710767563 eV 
 
                                              current damping :  0.200
 ITERATION  ENERGY          1e-ENERGY        2e-ENERGY     RMS[dD(SAO)]   TOL
   7  -196.41809809855    -658.58714003     262.80008455    0.888D-05 0.145D-13
          Norm of current diis error: 0.58753E-02
          max. resid. norm for Fia-block=  4.500D-04 for orbital      5a         
          max. resid. fock norm         =  1.290D-03 for orbital    637a         
          Delta Eig. =     0.1366824273 eV 
 
                                              current damping :  0.050
 ITERATION  ENERGY          1e-ENERGY        2e-ENERGY     RMS[dD(SAO)]   TOL
   8  -196.41809906478    -658.58656376     262.79950731    0.310D-05 0.135D-13
          Norm of current diis error: 0.14137E-02
          max. resid. norm for Fia-block=  7.233D-05 for orbital      1a         
          max. resid. fock norm         =  2.157D-04 for orbital    637a         
          Delta Eig. =     0.0262550580 eV 
 
                                              current damping :  0.050
 ITERATION  ENERGY          1e-ENERGY        2e-ENERGY     RMS[dD(SAO)]   TOL
   9  -196.41809913407    -658.58622500     262.79916849    0.903D-06 0.127D-13
          Norm of current diis error: 0.25336E-03
          max. resid. norm for Fia-block=  1.514D-05 for orbital     21a         
          max. resid. fock norm         =  1.573D-05 for orbital     21a         
          Delta Eig. =     0.0010881240 eV 
 
                                              current damping :  0.100
 ITERATION  ENERGY          1e-ENERGY        2e-ENERGY     RMS[dD(SAO)]   TOL
  10  -196.41809913683    -658.58623834     262.79918182    0.204D-06 0.122D-13
          Norm of current diis error: 0.57889E-04
          max. resid. norm for Fia-block=  3.805D-06 for orbital     21a         
          max. resid. fock norm         =  3.816D-06 for orbital     21a         
 mo-orthogonalization: Cholesky decomposition
          Delta Eig. =     0.0001260643 eV 

 DENSITY CONVERGED !

 
                                              current damping :  0.150
 ITERATION  ENERGY          1e-ENERGY        2e-ENERGY     RMS[dD(SAO)]   TOL
  11  -196.41809913698    -658.58619054     262.79913403    0.540D-07 0.122D-13
          Norm of current diis error: 0.16184E-04
          max. resid. norm for Fia-block=  1.151D-06 for orbital     21a         
          max. resid. fock norm         =  1.344D-06 for orbital     21a         
          Delta Eig. =     0.0000925479 eV 

 DENSITY CONVERGED !

 
                                              current damping :  0.200
 ITERATION  ENERGY          1e-ENERGY        2e-ENERGY     RMS[dD(SAO)]   TOL
  12  -196.41809913699    -658.58620757     262.79915105    0.141D-07 0.122D-13
          Norm of current diis error: 0.46980E-05
          max. resid. norm for Fia-block=  2.878D-07 for orbital     21a         
          max. resid. fock norm         =  3.105D-07 for orbital     21a         
          Delta Eig. =     0.0000154138 eV 

 ENERGY & DENSITY CONVERGED !

 
                                              current damping :  0.250
 ITERATION  ENERGY          1e-ENERGY        2e-ENERGY     RMS[dD(SAO)]   TOL
  13  -196.41809913699    -658.58620145     262.79914493    0.358D-08 0.122D-13
          max. resid. norm for Fia-block=  6.912D-08 for orbital     21a         
          max. resid. fock norm         =  1.047D-07 for orbital    641a         

 convergence criteria satisfied after    13 iterations


                  ------------------------------------------ 
                 |  total energy      =   -196.41809913699  |
                  ------------------------------------------ 
                 :  kinetic energy    =    196.32947764485  :
                 :  potential energy  =   -392.74757678184  :
                 :  virial theorem    =      1.99954881199  :
                 :  wavefunction norm =      1.00000000000  :
                  .......................................... 


 orbitals $scfmo  will be written to file mos

    irrep                 17a         18a         19a         20a         21a   
 eigenvalues H         -0.50945    -0.50941    -0.45265    -0.45252    -0.45252
            eV         -13.8628    -13.8619    -12.3173    -12.3139    -12.3137
 occupation              2.0000      2.0000      2.0000      2.0000      2.0000 

    irrep                 22a         23a         24a         25a         26a   
 eigenvalues H          0.09580     0.13438     0.13438     0.13439     0.15170
            eV           2.6068      3.6567      3.6567      3.6570      4.1280
 
 
 
 
 ==============================================================================
                           electrostatic moments
 ==============================================================================

 reference point for electrostatic moments:    0.00000   0.00000   0.00000

 
              nuc           elec       ->  total
 ------------------------------------------------------------------------------
                          charge      
 ------------------------------------------------------------------------------
          42.000000     -42.000000       0.000000
 
 ------------------------------------------------------------------------------
                       dipole moment  
 ------------------------------------------------------------------------------
   x      -0.041905       0.041905      -0.000001
   y       5.088442      -5.088279       0.000163
   z     415.948520    -415.948766      -0.000246
 
   | dipole moment | =     0.0003 a.u. =     0.0007 debye 
 
 ------------------------------------------------------------------------------
                     quadrupole moment
 ------------------------------------------------------------------------------
  xx     133.752790    -160.358596     -26.605806
  yy     134.404644    -161.011492     -26.606848
  zz    4253.194111   -4279.807146     -26.613035
  xy      -0.004760       0.004744      -0.000016
  xz      -0.416050       0.416074       0.000024
  yz      50.417325     -50.417042       0.000283
 
     1/3  trace=     -26.608563
     anisotropy=       0.006787
 
 ==============================================================================
 


    ------------------------------------------------------------------------
         total  cpu-time :  1 hours 41 minutes and 40 seconds
         total wall-time : 12 minutes and 50 seconds
    ------------------------------------------------------------------------

   ****  dscf : all done  ****


    2019-04-02 13:46:54.073 

