           Doing BLAS/Lapack in the master proc. with  4 CPUs.
           SMPCPUS    set: Shared-memory Parallelization with   4 CPUs.

           SMP Parallelization Reference:
           C. van Wullen, J. Comput. Chem. 32 (2011) 1195--1201
 operating system is UNIX !

 ridft (c-16-12.local) : TURBOMOLE V7.2 ( 21454 ) 4 Oct 2017 at 12:48:15
 Copyright (C) 2017 TURBOMOLE GmbH, Karlsruhe


    2018-05-10 19:07:17.931 



                                  r i d f t

                        DFT program with RI approximation 
                                for coulomb part 




                                                 
                                 References:     
                                                 
          TURBOMOLE:                             
              R. Ahlrichs, M. Baer, M. Haeser, H. Horn, and
              C. Koelmel
              Electronic structure calculations on workstation
              computers: the program system TURBOMOLE
              Chem. Phys. Lett. 162: 165 (1989)
          Density Functional:                              
              O. Treutler and R. Ahlrichs                      
              Efficient Molecular Numerical Integration Schemes
              J. Chem. Phys. 102: 346 (1995)                   
          Parallel Version:                                
              Performance of parallel TURBOMOLE for Density    
              Functional Calculations                          
              M. v. Arnim and R. Ahlrichs                      
              J. Comp. Chem. 19: 1746 (1998)                   
          RI-J Method:                                     
              Auxiliary Basis Sets to approximate Coulomb      
              Potentials                                       
              Chem. Phys. Lett. 240: 283 (1995)                
              K. Eichkorn, O. Treutler, H. Oehm, M. Haeser     
              and R. Ahlrichs                                  
              Chem. Phys. Lett. 242: 652 (1995)                
                                                           
              Auxiliary Basis Sets for Main Row Atoms and their
              Use to approximate Coulomb Potentials            
              K. Eichkorn, F. Weigend, O. Treutler and         
              R. Ahlrichs                                      
              Theo. Chem. Acc. 97: 119 (1997)                   
                                                           
              Accurate Coulomb-fitting basis sets for H to Rn 
              F. Weigend                                        
              Phys. Chem. Chem. Phys. 8: 1057 (2006)            
                                                           
          Multipole accelerated RI-J (MARI-J):             
              Fast evaluation of the Coulomb potential for     
              electron densities using multipole accelerated   
              resolution of identity approximation             
              M. Sierka, A. Hogekamp and R. Ahlrichs           
              J. Chem. Phys. 118: 9136 (2003)                  
          RI-JK Method:                                     
              A fully direct RI-HF algorithm: Implementation,
              optimised auxiliary basis sets, demonstration of
              accuracy and efficiency                         
              F. Weigend                                      
              Phys. Chem. Chem. Phys. 4: 4285 (2002)           
          Two-component HF and DFT with spin-orbit coupling:  
              Self-consistent treatment of spin-orbit         
              interactions with efficient Hartree-Fock and    
              density functional methods                      
              M. K. Armbruster, F. Weigend, C. van Wüllen and 
              W. Klopper                                      
              Phys. Chem. Chem. Phys. 10: 1748 (2008)         
          Relativistic all-electron 2c calculations           
              An efficient implementation of two-component    
              relativistic exact-decoupling methods for large 
              molecules                                       
              D. Peng, N. Middendorf, F. Weigend, M. Reiher   
              J. Chem. Phys. 138, 184105 (2013)               
                                         




              +--------------------------------------------------+
              |      general information about current run       |
              +--------------------------------------------------+

 

 DENSITY CONVERGENCE CHECK SWITCHED ON !
 SCF CONVERGENCE IF RMS(delta[D]) <     0.1000000000E-06

 TPSS meta-GGA functional
 exchange:    LDA + TPSS
 correlation: LDA (PW) + TPSS
 A DFT calculation using the RI-J approximation will be carried out.
 Allocatable memory for RI due to $ricore (MB):                  5000


              +--------------------------------------------------+
              | Atomic coordinate, charge and isotop information |
              +--------------------------------------------------+

                    atomic coordinates            atom    charge  isotop
         -2.10444837    2.50770455    0.51999037    c      6.000     0
         -0.88265827    4.43969949    0.87217940    o      8.000     0
         -1.09243062    0.25874222    0.09376344    o      8.000     0
          0.78106229    0.38409932    0.10485544    h      1.000     0
         -4.93487747    2.43054605    0.52413691    c      6.000     0
         -5.68174265    4.30268993    0.88021521    h      1.000     0
         -5.60163246    1.72958824   -1.28879555    h      1.000     0
         -5.58057710    1.11833654    1.96765922    h      1.000     0
          7.91549091    2.05593393    0.34559609    n      0.000     0
          8.65854088    0.32609709    0.02109340    h      0.000     0
          9.65692627    4.03658540    0.68849277    c      0.000     0
         11.91920508    3.62406611    0.58856413    o      0.000     0
          8.44926642    6.45441890    1.14317439    c      0.000     0
          9.62001745    8.09266950    1.42942496    h      0.000     0
          5.90364620    6.60557839    1.19869688    c      0.000     0
          4.91562143    8.36008895    1.52996249    h      0.000     0
          4.38481519    4.54448814    0.83888163    n      0.000     0
          2.44963769    4.67667012    0.88383871    h      0.000     0
          5.32955068    2.18190947    0.39636026    c      0.000     0
          3.98400436    0.31201623    0.06854913    o      0.000     0
 
       center of nuclear mass  :    3.90733311    3.19904872    0.59155309
       center of nuclear charge:   -2.31623613    2.33599223    0.48925752

              +--------------------------------------------------+
              |               basis set information              |
              +--------------------------------------------------+

              we will work with the 1s 3p 5d 7f 9g ... basis set
              ...i.e. with spherical basis functions...

   type   atoms  prim   cont   basis
   ---------------------------------------------------------------------------
    c        6     50     30   cc-pVTZ   [4s3p2d1f|18s5p2d1f]
    o        4     50     30   cc-pVTZ   [4s3p2d1f|18s5p2d1f]
    h        8     16     14   cc-pVTZ   [3s2p1d|5s2p1d]
    n        2     50     30   cc-pVTZ   [4s3p2d1f|18s5p2d1f]
   ---------------------------------------------------------------------------
   total:   20    728    472
   ---------------------------------------------------------------------------

   total number of primitive shells          :   86
   total number of contracted shells         :  168
   total number of cartesian basis functions :  540
   total number of SCF-basis functions       :  472


 integral neglect threshold       :  0.62E-13
 integral storage threshold THIZE :  0.10E-04
 integral storage threshold THIME :         5

 RI-J AUXILIARY BASIS SET information:

              we will work with the 1s 3p 5d 7f 9g ... basis set
              ...i.e. with spherical basis functions...

   type   atoms  prim   cont   basis
   ---------------------------------------------------------------------------
    c        6     70     49   cc-pVTZ   [6s4p3d1f1g|12s5p4d2f1g]
    o        4     70     49   cc-pVTZ   [6s4p3d1f1g|12s5p4d2f1g]
    h        8     16     11   cc-pVTZ   [3s1p1d|5s2p1d]
    n        2     70     49   cc-pVTZ   [6s4p3d1f1g|12s5p4d2f1g]
   ---------------------------------------------------------------------------
   total:   20    968    676
   ---------------------------------------------------------------------------

   total number of primitive shells          :   80
   total number of contracted shells         :  220
   total number of cartesian basis functions :  828
   total number of SCF-basis functions       :  676


 symmetry group of the molecule :   c1 

 the group has the following generators :
   c1(z)

    1 symmetry operations found

 there are 1 real representations :   a   

 maximum number of shells which are related by symmetry :  1


    mo occupation :
   irrep   mo's   occupied
    a      472       16
 
 number of basis functions   :                    472
 number of occupied orbitals :                     16
 
  
           ------------------
           density functional
           ------------------
 Dummy atoms with grid-point found.
 DFT quadrature threshold dgrenze tightened by factor 1/10.

 TPSS meta-GGA functional
 exchange:    LDA + TPSS
 correlation: LDA (PW) + TPSS
 Dummy atoms with grid-point found.
 DFT quadrature threshold dgrenze tightened by factor 1/10.

 Dummy atoms with grid-point found.
 DFT quadrature threshold dgrenze tightened by factor 1/10.


 iterations will be done with small grid
  
 spherical integration : Lebedev's spherical grid
 spherical gridsize    :                     5
    i.e. gridpoints    :                   590
 value for diffuse not defined
 radial integration    : Chebyshev 2nd kind (scaling 3)
 radial gridsize       :                     8
 integration cells     :                    20
 partition function    : becke
 partition sharpness   :                     3
  
 found dummy atom(s) with basis: included in dft

 biggest AO integral is expected to be     4.866064444
  
           ------------------------
               RI-J - INFORMATION
           ------------------------
 Contributions to RI integral batches: 
  neglected integral batches:                  3728
  direct contribution:                            0
  memory contribution:                 10468
 Memory core needed for (P|Q) and Cholesky      4 MByte
 Memory core minimum needed except of (P|Q)     1 MByte
 Total minimum memory core needed (sum)         5 MByte
  
 ****************************************
 Memory allocated for RI-J   652 MByte
 ****************************************
                                            

          ------------------------
          nuclear repulsion energy  :   121.306063649    
          ------------------------


         -----------------
         -S,T+V- integrals
         -----------------

 1e-integrals will be neglected if expon. factor < 0.618882E-14
 Difference densities >>NOT<< switched on in parallel ridft!

 DIIS switched on: error vector is FDS-SDF
 Max. Iterations for DIIS is     :   4
 DIIS matrix (see manual) 
    Scaling factor of diagonals  :  1.200
    threshold for scaling factor :  0.000

 scf convergence criterion : increment of total energy < .1000000D-08
                  and increment of one-electron energy < .1000000D-05

  MOs are in ASCII format !


 automatic virtual orbital shift switched on 
      shift if e(lumo)-e(homo) < 0.10000000    


 reading orbital data $scfmo  from file mos
 orbital characterization : expanded
 mo provided and orthogonalized by Cholesky decomposition

 DSCF restart information will be dumped onto file mos


 Starting SCF iterations

          Overall gridpoints after grid construction =        134964

 ITERATION  ENERGY          1e-ENERGY        2e-ENERGY     RMS[dD(SAO)]   TOL
   1  -228.17744046233    -549.33080759     199.84730347    0.000D+00 0.617D-13
                            Exc = -29.5479148895     Coul =  229.395218364    
                              N = 31.999984364    
                            current damping = 0.700
 
          max. resid. norm for Fia-block=  3.767D-01 for orbital     13a         
          max. resid. fock norm         =  1.555D+01 for orbital    445a         

 ITERATION  ENERGY          1e-ENERGY        2e-ENERGY     RMS[dD(SAO)]   TOL
   2  -229.04695051259    -551.14327175     200.79025759    0.190D-02 0.617D-13
                            Exc = -29.4019983055     Coul =  230.192255895    
                              N = 31.999988533    
                            current damping = 0.650
 
          Norm of current diis error:  1.6340    
          max. resid. norm for Fia-block=  1.557D-01 for orbital      2a         
          max. resid. fock norm         =  3.149D-01 for orbital    436a         

 ITERATION  ENERGY          1e-ENERGY        2e-ENERGY     RMS[dD(SAO)]   TOL
   3  -229.16611674586    -552.44855279     201.97637240    0.107D-02 0.617D-13
                            Exc = -29.5562962973     Coul =  231.532668694    
                              N = 31.999989532    
                            current damping = 0.550
 
          Norm of current diis error: 0.74174    
          max. resid. norm for Fia-block=  6.260D-02 for orbital      2a         
          max. resid. fock norm         =  9.186D-02 for orbital    437a         

 ITERATION  ENERGY          1e-ENERGY        2e-ENERGY     RMS[dD(SAO)]   TOL
   4  -229.19826664257    -552.20868115     201.70435086    0.750D-03 0.617D-13
                            Exc = -29.5235737099     Coul =  231.227924573    
                              N = 31.999989697    
                            current damping = 0.600
 
          Norm of current diis error: 0.30069    
          max. resid. norm for Fia-block=  2.828D-02 for orbital      6a         
          max. resid. fock norm         =  4.962D-02 for orbital    437a         

 ITERATION  ENERGY          1e-ENERGY        2e-ENERGY     RMS[dD(SAO)]   TOL
   5  -229.20279315299    -552.59595514     202.08709834    0.293D-03 0.617D-13
                            Exc = -29.5780721255     Coul =  231.665170462    
                              N = 31.999989289    
                            current damping = 0.650
 
          Norm of current diis error: 0.17162    
          max. resid. norm for Fia-block=  1.064D-02 for orbital     16a         
          max. resid. fock norm         =  1.263D-02 for orbital     17a         
          mo-orthogonalization: Cholesky decomposition

 ITERATION  ENERGY          1e-ENERGY        2e-ENERGY     RMS[dD(SAO)]   TOL
   6  -229.20446191184    -552.59047499     202.07994943    0.189D-03 0.617D-13
                            Exc = -29.5736600070     Coul =  231.653609437    
                              N = 31.999989235    
                            current damping = 0.700
 
          Norm of current diis error: 0.72609E-01
          max. resid. norm for Fia-block=  4.609D-03 for orbital     14a         
          max. resid. fock norm         =  7.352D-03 for orbital    437a         

 ITERATION  ENERGY          1e-ENERGY        2e-ENERGY     RMS[dD(SAO)]   TOL
   7  -229.20473856445    -552.52755907     202.01675686    0.681D-04 0.617D-13
                            Exc = -29.5683094229     Coul =  231.585066282    
                              N = 31.999989027    
                            current damping = 0.550
 
          Norm of current diis error: 0.22518E-01
          max. resid. norm for Fia-block=  1.810D-03 for orbital      5a         
          max. resid. fock norm         =  3.017D-03 for orbital    437a         

 ITERATION  ENERGY          1e-ENERGY        2e-ENERGY     RMS[dD(SAO)]   TOL
   8  -229.20476747683    -552.55893949     202.04810837    0.227D-04 0.617D-13
                            Exc = -29.5730723306     Coul =  231.621180697    
                              N = 31.999989000    
                            current damping = 0.600
 
          Norm of current diis error: 0.79764E-02
          max. resid. norm for Fia-block=  5.282D-04 for orbital     14a         
          max. resid. fock norm         =  7.387D-04 for orbital    326a         

 ITERATION  ENERGY          1e-ENERGY        2e-ENERGY     RMS[dD(SAO)]   TOL
   9  -229.20477181203    -552.56538880     202.05455334    0.979D-05 0.617D-13
                            Exc = -29.5732665058     Coul =  231.627819850    
                              N = 31.999988975    
                            current damping = 0.450
 
          Norm of current diis error: 0.32870E-02
          max. resid. norm for Fia-block=  2.527D-04 for orbital     16a         
          max. resid. fock norm         =  4.082D-04 for orbital    219a         

 ITERATION  ENERGY          1e-ENERGY        2e-ENERGY     RMS[dD(SAO)]   TOL
  10  -229.20477215806    -552.55937365     202.04853785    0.551D-05 0.617D-13
                            Exc = -29.5728661991     Coul =  231.621404045    
                              N = 31.999988968    
                            current damping = 0.500
 
          Norm of current diis error: 0.25986E-02
          max. resid. norm for Fia-block=  1.818D-04 for orbital     15a         
          max. resid. fock norm         =  2.864D-04 for orbital    375a         
          mo-orthogonalization: Cholesky decomposition

 ITERATION  ENERGY          1e-ENERGY        2e-ENERGY     RMS[dD(SAO)]   TOL
  11  -229.20477238508    -552.56052209     202.04968605    0.213D-05 0.617D-13
                            Exc = -29.5731163304     Coul =  231.622802385    
                              N = 31.999988963    
                            current damping = 0.550
 
          Norm of current diis error: 0.16181E-02
          max. resid. norm for Fia-block=  9.603D-05 for orbital      8a         
          max. resid. fock norm         =  1.244D-04 for orbital      8a         

 ITERATION  ENERGY          1e-ENERGY        2e-ENERGY     RMS[dD(SAO)]   TOL
  12  -229.20477248373    -552.56361979     202.05278366    0.966D-06 0.617D-13
                            Exc = -29.5734206412     Coul =  231.626204300    
                              N = 31.999988966    
                            current damping = 0.400
 
          Norm of current diis error: 0.58884E-03
          max. resid. norm for Fia-block=  3.322D-05 for orbital     15a         
          max. resid. fock norm         =  4.019D-05 for orbital    414a         

 ITERATION  ENERGY          1e-ENERGY        2e-ENERGY     RMS[dD(SAO)]   TOL
  13  -229.20477249662    -552.56258361     202.05174746    0.551D-06 0.617D-13
                            Exc = -29.5732522092     Coul =  231.624999674    
                              N = 31.999988964    
                            current damping = 0.450
 
          Norm of current diis error: 0.30190E-03
          max. resid. norm for Fia-block=  1.121D-05 for orbital      8a         
          max. resid. fock norm         =  1.864D-05 for orbital    437a         

 ITERATION  ENERGY          1e-ENERGY        2e-ENERGY     RMS[dD(SAO)]   TOL
  14  -229.20477249993    -552.56242757     202.05159142    0.120D-06 0.617D-13
                            Exc = -29.5732605921     Coul =  231.624852009    
                              N = 31.999988964    
                            current damping = 0.300
 
          Norm of current diis error: 0.72450E-04
          max. resid. norm for Fia-block=  4.214D-06 for orbital     16a         
          max. resid. fock norm         =  5.861D-06 for orbital    259a         

 DENSITY CONVERGED !


 ITERATION  ENERGY          1e-ENERGY        2e-ENERGY     RMS[dD(SAO)]   TOL
  15  -229.20477250014    -552.56256235     202.05172620    0.600D-07 0.617D-13
                            Exc = -29.5732772990     Coul =  231.625003502    
                              N = 31.999988964    
                            current damping = 0.350
 
          Norm of current diis error: 0.31396E-04
          max. resid. norm for Fia-block=  1.755D-06 for orbital     15a         
          max. resid. fock norm         =  2.707D-06 for orbital    460a         
          mo-orthogonalization: Cholesky decomposition

 ENERGY & DENSITY CONVERGED !

          Overall gridpoints after grid construction =        325512

 ITERATION  ENERGY          1e-ENERGY        2e-ENERGY     RMS[dD(SAO)]   TOL
  16  -229.20470721375    -552.56255598     202.05178511    0.253D-07 0.617D-13
                            Exc = -29.5732114791     Coul =  231.624996592    
                              N = 32.000003539    
                            current damping = 0.400
 
          Norm of current diis error: 0.10461E-04
          max. resid. norm for Fia-block=  3.391D-07 for orbital     15a         
          max. resid. fock norm         =  5.998D-07 for orbital    414a         

 End of SCF iterations

   convergence criteria satisfied after    16 iterations


                  ------------------------------------------ 
                 |  total energy      =   -229.20470721375  |
                  ------------------------------------------ 
                 :  kinetic energy    =    228.02812753677  :
                 :  potential energy  =   -457.23283475052  :
                 :  virial theorem    =      1.99486668624  :
                 :  wavefunction norm =      1.00000000000  :
                  .......................................... 


 <geterg> : there is no data group $energy 


 <skperg> : $end is missing 


 orbitals $scfmo  will be written to file mos

    irrep                 12a         13a         14a         15a         16a   
 eigenvalues H         -0.37757    -0.35770    -0.34553    -0.28359    -0.23250
            eV         -10.2743     -9.7336     -9.4025     -7.7169     -6.3268
 occupation              2.0000      2.0000      2.0000      2.0000      2.0000 

    irrep                 17a         18a         19a         20a         21a   
 eigenvalues H         -0.02639     0.00217     0.04250     0.07417     0.09715
            eV          -0.7181      0.0591      1.1566      2.0184      2.6437
 
 
 
 
 ==============================================================================
                           electrostatic moments
 ==============================================================================

 reference point for electrostatic moments:    0.00000   0.00000   0.00000

 
              nuc           elec       ->  total
 ------------------------------------------------------------------------------
                          charge      
 ------------------------------------------------------------------------------
          32.000000     -32.000000      -0.000000
 
 ------------------------------------------------------------------------------
                       dipole moment  
 ------------------------------------------------------------------------------
   x     -74.119556      73.822603      -0.296953
   y      74.751751     -75.458931      -0.707180
   z      15.656241     -15.786155      -0.129914
 
   | dipole moment | =     0.7779 a.u. =     1.9773 debye 
 
 ------------------------------------------------------------------------------
                     quadrupole moment
 ------------------------------------------------------------------------------
  xx     283.883619    -297.310059     -13.426440
  yy     254.302675    -277.720462     -23.417787
  zz      15.745015     -33.104674     -17.359659
  xy    -177.318106     175.539848      -1.778257
  xz     -37.743770      37.376944      -0.366826
  yz      50.438314     -51.625137      -1.186823
 
     1/3  trace=     -18.067962
     anisotropy=       9.492892
 
 ==============================================================================
 


    ------------------------------------------------------------------------
         total  cpu-time :  5 minutes and 42 seconds
         total wall-time :  1 minutes and 32 seconds
    ------------------------------------------------------------------------

   ****  ridft : all done  ****


    2018-05-10 19:08:50.292 

