
   OpenMP run-time library returned nthreads = 28
 operating system is UNIX !

 dscf (c-16-23) : TURBOMOLE V7.3 ( 22142 ) 4 Jul 2018 at 18:12:42
 Copyright (C) 2018 TURBOMOLE GmbH, Karlsruhe


    2019-04-01 21:38:22.927 



                             d s c f - program

                   idea & directorship : reinhart ahlrichs
                   program development : marco haeser
                                         michael baer
                           dft version : oliver treutler


                          quantum chemistry group
                          universitaet  karlsruhe
                                  germany




                          References             
                                                 
          TURBOMOLE:                             
              R. Ahlrichs, M. Baer, M. Haeser, H. Horn, and
              C. Koelmel
              Electronic structure calculations on workstation
              computers: the program system TURBOMOLE
              Chem. Phys. Lett. 162: 165 (1989)
          Density Functional:                              
              O. Treutler and R. Ahlrichs                      
              Efficient Molecular Numerical Integration Schemes
              J. Chem. Phys. 102: 346 (1995)                   
          Parallel Version:                                
              Performance of parallel TURBOMOLE for Density    
              Functional Calculations                          
              M. v. Arnim and R. Ahlrichs                      
              J. Comp. Chem. 19: 1746 (1998)                   
                                         




              +--------------------------------------------------+
              | Atomic coordinate, charge and isotop information |
              +--------------------------------------------------+

                    atomic coordinates            atom    charge  isotop
         -1.48638681    0.08535598   -0.01358547    o      8.000     0
          0.33581713    0.02399177   -0.01291701    h      1.000     0
         -2.35836109   -2.43828252    0.00204775    c      6.000     0
         -4.41114509   -2.37897075    0.00041801    h      1.000     0
         -1.74982167   -3.49555511   -1.66380065    h      1.000     0
         -1.75182872   -3.47419135    1.68200086    h      1.000     0
          4.02300611   -0.09701212   -0.00895907    o      0.000     0
          4.85298164    0.63648923   -1.44491033    h      0.000     0
          4.85048750    0.66379971    1.41417390    h      0.000     0
 
       center of nuclear mass  :    0.28769154   -0.75036222   -0.00721842
       center of nuclear charge:   -1.86767997   -1.29286515   -0.00503867

              +--------------------------------------------------+
              |               basis set information              |
              +--------------------------------------------------+

              we will work with the 1s 3p 5d 7f 9g ... basis set
              ...i.e. with spherical basis functions...

   type   atoms  prim   cont   basis
   ---------------------------------------------------------------------------
    o        2     77     55   cc-pVQZ   [5s4p3d2f1g|21s6p3d2f1g]
    h        6     32     30   cc-pVQZ   [4s3p2d1f|6s3p2d1f]
    c        1     77     55   cc-pVQZ   [5s4p3d2f1g|21s6p3d2f1g]
   ---------------------------------------------------------------------------
   total:    9    423    345
   ---------------------------------------------------------------------------

   total number of primitive shells          :   78
   total number of contracted shells         :  105
   total number of cartesian basis functions :  420
   total number of SCF-basis functions       :  345


 integral neglect threshold       :  0.79E-13
 integral storage threshold THIZE :  0.10E-04
 integral storage threshold THIME :         5


 DENSITY CONVERGENCE CHECK SWITCHED ON !
 SCF CONVERGENCE IF RMS(delta[D]) <     0.1000000000E-06


 symmetry group of the molecule :   c1 

 the group has the following generators :
   c1(z)

    1 symmetry operations found

 there are 1 real representations :   a   

 maximum number of shells which are related by symmetry :  1


    mo occupation :
   irrep   mo's   occupied
    a      345        9
 
 number of basis functions   :                    345
 number of occupied orbitals :                      9
 

 automatic virtual orbital shift switched on 
      shift if e(lumo)-e(homo) < 0.10000000    


          ------------------------
          nuclear repulsion energy  :   40.4232634302    
          ------------------------


         -----------------
         -S,T+V- integrals
         -----------------

 1e-integrals will be neglected if expon. factor < 0.795705E-14
 
   Difference densities algorithm switched on.
   The maximal number of linear combinations of
   difference densities is                    20 .

 DIIS switched on: error vector is FDS-SDF
 Max. Iterations for DIIS is     :   5
 DIIS matrix (see manual) 
    Scaling factor of diagonals  :  1.200
    threshold for scaling factor :  0.000

 scf convergence criterion : increment of total energy < .1000000D-08
                  and increment of one-electron energy < .1000000D-05

  MOs are in ASCII format !


 reading orbital data $scfmo  from file mos
 orbital characterization : scfconv=9

 DSCF restart information will be dumped onto file mos

 
                                              current damping :  0.700
 ITERATION  ENERGY          1e-ENERGY        2e-ENERGY     RMS[dD(SAO)]   TOL
   1  -115.07737797233    -237.20647440     81.705832999    0.000D+00 0.794D-13
          max. resid. norm for Fia-block=  1.184D-01 for orbital      1a         
          max. resid. fock norm         =  3.572D-01 for orbital    323a         
          Delta Eig. =    29.9319300462 eV 
 
                                              current damping :  0.650
 ITERATION  ENERGY          1e-ENERGY        2e-ENERGY     RMS[dD(SAO)]   TOL
   2  -115.09462836351    -237.08721965     81.569327853    0.718D-03 0.511D-13
          Norm of current diis error: 0.37838    
          max. resid. norm for Fia-block=  5.399D-02 for orbital      1a         
          max. resid. fock norm         =  1.545D-01 for orbital    327a         
          Delta Eig. =    12.7003846938 eV 
 
                                              current damping :  0.600
 ITERATION  ENERGY          1e-ENERGY        2e-ENERGY     RMS[dD(SAO)]   TOL
   3  -115.09790817348    -237.10796721     81.586795605    0.330D-03 0.387D-13
          Norm of current diis error: 0.16189    
          max. resid. norm for Fia-block=  2.302D-02 for orbital      1a         
          max. resid. fock norm         =  5.747D-02 for orbital    327a         
          Delta Eig. =     5.1701958572 eV 
 
                                              current damping :  0.450
 ITERATION  ENERGY          1e-ENERGY        2e-ENERGY     RMS[dD(SAO)]   TOL
   4  -115.09854273008    -237.11225108     81.590444923    0.148D-03 0.339D-13
          Norm of current diis error: 0.64675E-01
          max. resid. norm for Fia-block=  8.514D-03 for orbital      1a         
          max. resid. fock norm         =  2.119D-02 for orbital    307a         
          Delta Eig. =     2.1577836285 eV 
 
                                              current damping :  0.500
 ITERATION  ENERGY          1e-ENERGY        2e-ENERGY     RMS[dD(SAO)]   TOL
   5  -115.09864998851    -237.10744027     81.585526855    0.628D-04 0.310D-13
          Norm of current diis error: 0.21641E-01
          max. resid. norm for Fia-block=  2.674D-03 for orbital      1a         
          max. resid. fock norm         =  5.908D-03 for orbital    301a         
 mo-orthogonalization: Cholesky decomposition
          Delta Eig. =     0.6355210792 eV 
 
                                              current damping :  0.550
 ITERATION  ENERGY          1e-ENERGY        2e-ENERGY     RMS[dD(SAO)]   TOL
   6  -115.09866242198    -237.10819837     81.586272519    0.205D-04 0.295D-13
          Norm of current diis error: 0.80270E-02
          max. resid. norm for Fia-block=  8.651D-04 for orbital      1a         
          max. resid. fock norm         =  2.152D-03 for orbital    301a         
          Delta Eig. =     0.2092145935 eV 
 
                                              current damping :  0.600
 ITERATION  ENERGY          1e-ENERGY        2e-ENERGY     RMS[dD(SAO)]   TOL
   7  -115.09866417704    -237.10776836     81.585840757    0.703D-05 0.282D-13
          Norm of current diis error: 0.31847E-02
          max. resid. norm for Fia-block=  3.073D-04 for orbital      7a         
          max. resid. fock norm         =  7.500D-04 for orbital    301a         
          Delta Eig. =     0.0709117328 eV 
 
                                              current damping :  0.450
 ITERATION  ENERGY          1e-ENERGY        2e-ENERGY     RMS[dD(SAO)]   TOL
   8  -115.09866447116    -237.10775489     81.585826992    0.265D-05 0.266D-13
          Norm of current diis error: 0.13709E-02
          max. resid. norm for Fia-block=  1.327D-04 for orbital      5a         
          max. resid. fock norm         =  2.825D-04 for orbital    301a         
          Delta Eig. =     0.0295200816 eV 
 
                                              current damping :  0.300
 ITERATION  ENERGY          1e-ENERGY        2e-ENERGY     RMS[dD(SAO)]   TOL
   9  -115.09866453443    -237.10770539     81.585777424    0.123D-05 0.248D-13
          Norm of current diis error: 0.52429E-03
          max. resid. norm for Fia-block=  5.368D-05 for orbital      5a         
          max. resid. fock norm         =  8.594D-05 for orbital    301a         
          Delta Eig. =     0.0102228246 eV 
 
                                              current damping :  0.150
 ITERATION  ENERGY          1e-ENERGY        2e-ENERGY     RMS[dD(SAO)]   TOL
  10  -115.09866454562    -237.10768163     81.585753657    0.518D-06 0.229D-13
          Norm of current diis error: 0.17315E-03
          max. resid. norm for Fia-block=  1.950D-05 for orbital      5a         
          max. resid. fock norm         =  2.025D-05 for orbital      5a         
 mo-orthogonalization: Cholesky decomposition
          Delta Eig. =     0.0026714172 eV 
 
                                              current damping :  0.050
 ITERATION  ENERGY          1e-ENERGY        2e-ENERGY     RMS[dD(SAO)]   TOL
  11  -115.09866454715    -237.10766960     81.585741622    0.196D-06 0.211D-13
          Norm of current diis error: 0.47504E-04
          max. resid. norm for Fia-block=  6.084D-06 for orbital      5a         
          max. resid. fock norm         =  6.325D-06 for orbital      5a         
          Delta Eig. =     0.0003753094 eV 

 DENSITY CONVERGED !

 
                                              current damping :  0.050
 ITERATION  ENERGY          1e-ENERGY        2e-ENERGY     RMS[dD(SAO)]   TOL
  12  -115.09866454729    -237.10766616     81.585738179    0.620D-07 0.226D-13
          Norm of current diis error: 0.11367E-04
          max. resid. norm for Fia-block=  1.678D-06 for orbital      5a         
          max. resid. fock norm         =  1.755D-06 for orbital      5a         
          Delta Eig. =     0.0000236766 eV 

 ENERGY & DENSITY CONVERGED !

 
                                              current damping :  0.050
 ITERATION  ENERGY          1e-ENERGY        2e-ENERGY     RMS[dD(SAO)]   TOL
  13  -115.09866454730    -237.10766457     81.585736596    0.157D-07 0.227D-13
          max. resid. norm for Fia-block=  2.484D-07 for orbital      5a         
          max. resid. fock norm         =  2.572D-07 for orbital      5a         

 convergence criteria satisfied after    13 iterations


                  ------------------------------------------ 
                 |  total energy      =   -115.09866454730  |
                  ------------------------------------------ 
                 :  kinetic energy    =    114.98538243260  :
                 :  potential energy  =   -230.08404697990  :
                 :  virial theorem    =      1.99901578254  :
                 :  wavefunction norm =      1.00000000000  :
                  .......................................... 


 orbitals $scfmo  will be written to file mos

    irrep                  5a          6a          7a          8a          9a   
 eigenvalues H         -0.69151    -0.62031    -0.59456    -0.50370    -0.45066
            eV         -18.8172    -16.8796    -16.1789    -13.7066    -12.2633
 occupation              2.0000      2.0000      2.0000      2.0000      2.0000 

    irrep                 10a         11a         12a         13a         14a   
 eigenvalues H          0.07558     0.12728     0.15702     0.19069     0.19454
            eV           2.0566      3.4636      4.2728      5.1891      5.2936
 
 
 
 
 ==============================================================================
                           electrostatic moments
 ==============================================================================

 reference point for electrostatic moments:    0.00000   0.00000   0.00000

 
              nuc           elec       ->  total
 ------------------------------------------------------------------------------
                          charge      
 ------------------------------------------------------------------------------
          18.000000     -18.000000      -0.000000
 
 ------------------------------------------------------------------------------
                       dipole moment  
 ------------------------------------------------------------------------------
   x     -33.618239      34.019142       0.400903
   y     -23.271573      22.691508      -0.580065
   z      -0.090696       0.094363       0.003667
 
   | dipole moment | =     0.7051 a.u. =     1.7923 debye 
 
 ------------------------------------------------------------------------------
                     quadrupole moment
 ------------------------------------------------------------------------------
  xx      76.747722     -86.049568      -9.301846
  yy      65.678603     -74.970666      -9.292062
  zz       5.599028     -15.773343     -10.174314
  xy      56.191956     -54.796014       1.395942
  xz       0.091165      -0.104813      -0.013647
  yz      -0.068225       0.070420       0.002195
 
     1/3  trace=      -9.589407
     anisotropy=       2.572230
 
 ==============================================================================
 


    ------------------------------------------------------------------------
         total  cpu-time : 14 minutes and 11 seconds
         total wall-time :  1 minutes and 24 seconds
    ------------------------------------------------------------------------

   ****  dscf : all done  ****


    2019-04-01 21:39:46.517 

