Using Slurm to start processes with PMI2
STARTING ridft ON 8 PROCESSORS!
RUNNING PROGRAM /beegfs/modfac/apps/TURBOMOLE/7.0_intel_GA/bin/em64t-unknown-linux-gnu_mpi/ridft_mpi.
PLEASE WAIT UNTIL ridft HAS FINISHED.
Look for the output in slave1.output.
  this is node-proc. number 1 running on node c-5-16.local
  the total number of node-proc. spawned is            8
  parallel platform: MPP, or cluster with fast interconnect

 ridft (c-5-16.local) : TURBOMOLE V7.0.2( ) 15 Jan 2016 at 17:47:42
 Copyright (C) 2016 TURBOMOLE GmbH, Karlsruhe


    2016-06-13 12:08:23.433 



                                  r i d f t

                        DFT program with RI approximation 
                                for coulomb part 




                                                 
                                 References:     
                                                 
          TURBOMOLE:                             
              R. Ahlrichs, M. Baer, M. Haeser, H. Horn, and
              C. Koelmel
              Electronic structure calculations on workstation
              computers: the program system TURBOMOLE
              Chem. Phys. Lett. 162: 165 (1989)
          Density Functional:                              
              O. Treutler and R. Ahlrichs                      
              Efficient Molecular Numerical Integration Schemes
              J. Chem. Phys. 102: 346 (1995)                   
          Parallel Version:                                
              Performance of parallel TURBOMOLE for Density    
              Functional Calculations                          
              M. v. Arnim and R. Ahlrichs                      
              J. Comp. Chem. 19: 1746 (1998)                   
          RI-J Method:                                     
              Auxiliary Basis Sets to approximate Coulomb      
              Potentials                                       
              Chem. Phys. Lett. 240: 283 (1995)                
              K. Eichkorn, O. Treutler, H. Oehm, M. Haeser     
              and R. Ahlrichs                                  
              Chem. Phys. Lett. 242: 652 (1995)                
                                                           
              Auxiliary Basis Sets for Main Row Atoms and their
              Use to approximate Coulomb Potentials            
              K. Eichkorn, F. Weigend, O. Treutler and         
              R. Ahlrichs                                      
              Theo. Chem. Acc. 97: 119 (1997)                   
                                                           
              Accurate Coulomb-fitting basis sets for H to Rn 
              F. Weigend                                        
              Phys. Chem. Chem. Phys. 8: 1057 (2006)            
                                                           
          Multipole accelerated RI-J (MARI-J):             
              Fast evaluation of the Coulomb potential for     
              electron densities using multipole accelerated   
              resolution of identity approximation             
              M. Sierka, A. Hogekamp and R. Ahlrichs           
              J. Chem. Phys. 118: 9136 (2003)                  
          RI-JK Method:                                     
              A fully direct RI-HF algorithm: Implementation,
              optimised auxiliary basis sets, demonstration of
              accuracy and efficiency                         
              F. Weigend                                      
              Phys. Chem. Chem. Phys. 4: 4285 (2002)           
          Two-component HF and DFT with spin-orbit coupling:  
              Self-consistent treatment of spin-orbit         
              interactions with efficient Hartree-Fock and    
              density functional methods                      
              M. K. Armbruster, F. Weigend, C. van Wüllen and 
              W. Klopper                                      
              Phys. Chem. Chem. Phys. 10: 1748 (2008)         
          Relativistic all-electron 2c calculations           
              An efficient implementation of two-component    
              relativistic exact-decoupling methods for large 
              molecules                                       
              D. Peng, N. Middendorf, F. Weigend, M. Reiher   
              J. Chem. Phys. 138, 184105 (2013)               
                                         


 


              +--------------------------------------------------+
              |      general information about current run       |
              +--------------------------------------------------+

 

 SCF run will be profiled !


 DENSITY CONVERGENCE CHECK SWITCHED ON !
 SCF CONVERGENCE IF RMS(delta[D]) <     0.1000000000E-06

 TPSS meta-GGA functional
 exchange:    LDA + TPSS
 correlation: LDA (PW) + TPSS
 A DFT calculation using the RI-J approximation will be carried out.

 !!!RI-K makes sense only with a hybrid functional.

    RI-K switched off!!!
 Allocatable memory for RI due to $ricore (MB):       15000


              +--------------------------------------------------+
              | Atomic coordinate, charge and isotop information |
              +--------------------------------------------------+

                    atomic coordinates            atom    charge  isotop
         12.16567890   -2.59366801    4.59296047    c      6.000     0
         10.46167505   -1.31107309    3.01375413    c      6.000     0
         10.45676176    1.34625979    3.01494466    c      6.000     0
         12.15600350    2.63374911    4.59528483    c      6.000     0
         13.85405471    1.33998590    6.13098967    c      6.000     0
         13.85893021   -1.29499152    6.12981804    c      6.000     0
          8.65897081    2.89585412    1.51828156    c      6.000     0
          7.12904853    4.60781372    2.80987158    c      6.000     0
          5.65887939    6.44663063    1.59967207    c      6.000     0
          5.73752979    6.55139704   -1.13886235    c      6.000     0
          7.21113823    4.74357164   -2.39855379    c      6.000     0
          8.67059262    2.93234473   -1.15365891    c      6.000     0
          4.02328363    8.15828787    3.04372519    c      6.000     0
          2.99408208   10.10891987    1.65600480    c      6.000     0
          3.09992565   10.23819604   -1.03999188    c      6.000     0
          4.23506524    8.42483374   -2.52985196    c      6.000     0
          1.01113576   11.69005373   -1.86880686    c      6.000     0
         -0.38574980   12.44386548    0.28788088    c      6.000     0
          0.84661620   11.48199488    2.46210528    c      6.000     0
         -2.95305613   12.96217957    0.21622246    c      6.000     0
         -4.00771229   13.06507515   -2.30149746    c      6.000     0
         -2.63588450   12.34352102   -4.42177018    c      6.000     0
         -0.06774668   11.43063212   -4.24697051    c      6.000     0
          1.35960126    9.86032640   -5.94827205    c      6.000     0
          3.40430383    8.42010942   -5.12283968    c      6.000     0
         -4.19299993   12.83059794    2.64693939    c      6.000     0
         -2.98232799   11.90317704    4.78524010    c      6.000     0
         -0.40850210   10.99431326    4.71418640    c      6.000     0
          0.87552901    9.23248379    6.34534131    c      6.000     0
          2.98177997    7.87390298    5.54216991    c      6.000     0
         10.41883496    1.35340296   -2.68352449    c      6.000     0
         10.42367266   -1.31330297   -2.68469612    c      6.000     0
         12.09488976   -2.58552330   -4.30927478    c      6.000     0
         13.74785210   -1.28956801   -5.88999290    c      6.000     0
         13.74308999    1.34455904   -5.88882127    c      6.000     0
         12.08542223    2.63310660   -4.30696932    c      6.000     0
          8.66957217   -2.86593976    1.51574933    c      6.000     0
          7.14598047   -4.58464567    2.80584646    c      6.000     0
          5.68236869   -6.42761998    1.59398399    c      6.000     0
          5.76118916   -6.52951402   -1.14466381    c      6.000     0
          7.22822136   -4.71524465   -2.40273009    c      6.000     0
          8.68119398   -2.89993593   -1.15622893    c      6.000     0
          4.26528196   -8.40697583   -2.53729748    c      6.000     0
          3.13675641  -10.22578054   -1.04908146    c      6.000     0
          3.03066718  -10.09945234    1.64704750    c      6.000     0
          4.05300902   -8.14647708    3.03654423    c      6.000     0
          0.88819018  -11.48093663    2.45201414    c      6.000     0
         -0.34092549  -12.44511270    0.27697716    c      6.000     0
          1.05308768  -11.68430896   -1.87910587    c      6.000     0
          3.43436938   -8.40283733   -5.13024740    c      6.000     0
          1.39478796   -9.84963055   -5.95690810    c      6.000     0
         -0.02683411  -11.42656921   -4.25696716    c      6.000     0
         -2.59172160  -12.34847211   -4.43240934    c      6.000     0
         -3.96082818  -13.07688594   -2.31270353    c      6.000     0
         -2.90636100  -12.97257306    0.20503529    c      6.000     0
          3.01065498   -7.86817711    5.53531020    c      6.000     0
          0.90933622   -9.23503492    6.33738556    c      6.000     0
         -0.36847770  -10.99992574    4.70468108    c      6.000     0
         -2.93899657  -11.91816257    4.77509227    c      6.000     0
         -4.14655046  -12.84783224    2.63599788    c      6.000     0
          0.71904079    9.61063689   -7.88418309    h      1.000     0
          4.24959723    7.11434646   -6.46273109    h      1.000     0
          3.71331185    6.41928629    6.79322530    h      1.000     0
          0.07470087    8.78104711    8.18245746    h      1.000     0
         -4.08477532   11.67998149    6.50483419    h      1.000     0
         -6.18890978   13.29753037    2.78817753    h      1.000     0
         -5.98990272   13.54759782   -2.54610361    h      1.000     0
         -3.60348097   12.29166694   -6.23350731    h      1.000     0
         -3.55965822  -12.29839436   -6.24403309    h      1.000     0
         -5.94129896  -13.56626832   -2.55764983    h      1.000     0
         -6.14074066  -13.32209681    2.77699035    h      1.000     0
         -4.04208640  -11.70057950    6.49498872    h      1.000     0
          0.10709078   -8.78822807    8.17499305    h      1.000     0
          3.73710350   -6.41214313    6.78768840    h      1.000     0
          4.27495736   -7.09289807   -6.46900498    h      1.000     0
          0.75326373   -9.60047016   -7.89255458    h      1.000     0
          7.13791134    4.55015817    4.86230313    h      1.000     0
          7.27274330    4.78323699   -4.45038063    h      1.000     0
          7.15478660   -4.52887986    4.85831581    h      1.000     0
          7.28988312   -4.75279351   -4.45459472    h      1.000     0
         12.07387600    4.68625625   -4.29094444    h      1.000     0
         15.02351173    2.39139173   -7.10436870    h      1.000     0
         15.03207219   -2.33069373   -7.10644740    h      1.000     0
         12.09078905   -4.63871074   -4.29504514    h      1.000     0
         12.13517872    4.68695545    4.58687555    h      1.000     0
         15.16386169    2.38358716    7.31769989    h      1.000     0
         15.17261112   -2.33479443    7.31560229    h      1.000     0
         12.15246971   -4.64693105    4.58273705    h      1.000     0
          0.99666046    0.00515895   -4.68279805    c      0.000     0
         -0.71121733    0.00396842   -6.70017518    c      0.000     0
         -2.25149530   -2.21678103   -7.17944752    c      0.000     0
         -4.74504563   -1.37318839   -7.95544466    c      0.000     0
          1.22669682   -2.19514367   -3.06855619    c      0.000     0
         -2.01338981   -4.33652463   -5.62331475    c      0.000     0
          1.21908123    2.20343957   -3.06473895    c      0.000     0
         -2.25916759    2.22020144   -7.17559248    c      0.000     0
         -4.74978884    1.36937114   -7.95306361    c      0.000     0
         -2.02841313    4.33803641   -5.61575584    c      0.000     0
         -6.88937456   -2.69166921   -7.14862609    c      0.000     0
         -0.25324220   -4.31509514   -3.52896907    c      0.000     0
         -4.24081000   -5.68713080   -4.78042130    c      0.000     0
         -6.89867202    2.67902694   -7.14397736    c      0.000     0
         -6.62970729   -4.88426175   -5.52982999    c      0.000     0
         -9.10214938   -1.32600193   -6.29554702    c      0.000     0
          1.62665736   -1.35448010   -0.49794284    c      0.000     0
         -0.26818993    4.31904467   -3.52146685    c      0.000     0
          1.62197084    1.35971464   -0.49558068    c      0.000     0
         -1.36814282   -5.67556567   -1.43793041    c      0.000     0
         -3.83213783   -6.51675836   -2.20844734    c      0.000     0
         -8.68529469   -4.88420506   -3.72633206    c      0.000     0
        -10.21132413   -2.68562209   -4.19927382    c      0.000     0
         -9.10668472    1.30425118   -6.29326045    c      0.000     0
          0.69409641   -2.74813423    1.59632725    c      0.000     0
         -0.86254660   -4.99108797    1.10630237    c      0.000     0
         -5.85276529   -6.70055313   -0.45515944    c      0.000     0
         -8.37383003   -5.85208499   -1.24145558    c      0.000     0
        -11.46540309   -1.40555940   -2.20045380    c      0.000     0
        -10.22056489    2.65638802   -4.19464399    c      0.000     0
          0.27739290   -1.36394763    3.85657199    c      0.000     0
          0.68460998    2.74652796    1.60108936    c      0.000     0
         -2.72687481   -5.67690738    2.90662556    c      0.000     0
         -5.19000054   -6.52393932    2.13714798    c      0.000     0
        -10.04368653   -4.88981755    0.62755915    c      0.000     0
        -11.57075532   -2.69142355    0.15355915    c      0.000     0
        -11.47018409    1.36853967   -2.19805385    c      0.000     0
         -1.51952878   -2.20899536    5.73800222    c      0.000     0
          0.27268748    1.35699344    3.85893415    c      0.000     0
         -2.99672770   -4.33316092    5.26957691    c      0.000     0
         -6.98970012   -5.70272104    4.02258443    c      0.000     0
         -9.37992022   -4.89667725    3.27990316    c      0.000     0
        -11.85315599   -1.33839853    2.51165390    c      0.000     0
        -11.57999608    2.64994406    0.15820787    c      0.000     0
         -4.26046316    5.67949630   -4.77053803    c      0.000     0
         -6.64656365    4.86971086   -5.52136402    c      0.000     0
         -1.38773928    5.67208858   -1.42810383    c      0.000     0
         -8.70213215    4.85943075   -3.71786609    c      0.000     0
         -0.87981869    4.98490857    1.11493842    c      0.000     0
         -2.63057437   -0.01116828    6.93504924    c      0.000     0
         -1.52712548    2.19255475    5.74183837    c      0.000     0
         -5.63752549   -4.35893678    5.99018618    c      0.000     0
        -10.51660939   -2.70780747    4.46846531    c      0.000     0
        -11.85769133    1.29185458    2.51394047    c      0.000     0
        -10.06052399    4.85277891    0.63600623    c      0.000     0
         -3.85464447    6.50610031   -2.19714678    c      0.000     0
         -8.39401230    5.82406035   -1.23130775    c      0.000     0
         -2.74647127    5.66116596    2.91645214    c      0.000     0
         -5.18463372   -0.01617606    7.61701361    c      0.000     0
         -3.01165654    4.31241173    5.27709802    c      0.000     0
         -6.72075430   -2.23715228    7.13284688    c      0.000     0
         -9.21358653   -1.39329508    6.35463876    c      0.000     0
        -10.52588794    2.66247294    4.47311404    c      0.000     0
         -9.39677658    4.85733315    3.28836914    c      0.000     0
         -5.87587664    6.67986063   -0.44353762    c      0.000     0
         -5.21250718    6.50101695    2.14846744    c      0.000     0
         -6.72842659    2.20032152    7.13670192    c      0.000     0
         -5.65252991    4.32781300    5.99774508    c      0.000     0
         -9.21831084    1.34920777    6.35703871    c      0.000     0
         -7.00933438    5.67033113    4.03246770    c      0.000     0
 
       center of nuclear mass  :   -0.80137549   -0.00145272   -0.02793127
       center of nuclear charge:    4.11480399    0.00742175    0.20268428

              +--------------------------------------------------+
              |               basis set information              |
              +--------------------------------------------------+

              we will work with the 1s 3p 5d 7f 9g ... basis set
              ...i.e. with spherical basis functions...

   type   atoms  prim   cont   basis
   ---------------------------------------------------------------------------
    c      130     77     57   def2-QZVP   [7s4p3d2f1g|15s8p3d2f1g]
    h       28     33     30   def2-QZVP   [4s3p2d1f|7s3p2d1f]
   ---------------------------------------------------------------------------
   total:  158  10934   8250
   ---------------------------------------------------------------------------

   total number of primitive shells          :   42
   total number of contracted shells         : 2490
   total number of cartesian basis functions :10340
   total number of SCF-basis functions       : 8250


 integral neglect threshold       :  0.32E-14
 integral storage threshold THIZE :  0.10E-04
 integral storage threshold THIME :         5

 RI-J AUXILIARY BASIS SET information:

              we will work with the 1s 3p 5d 7f 9g ... basis set
              ...i.e. with spherical basis functions...

   type   atoms  prim   cont   basis
   ---------------------------------------------------------------------------
    c      130     70     49   def2-QZVP   [6s4p3d1f1g|12s5p4d2f1g]
    h       28     16     11   def2-QZVP   [3s1p1d|5s2p1d]
   ---------------------------------------------------------------------------
   total:  158   9548   6678
   ---------------------------------------------------------------------------

   total number of primitive shells          :   32
   total number of contracted shells         : 2090
   total number of cartesian basis functions : 8266
   total number of SCF-basis functions       : 6678


 symmetry group of the molecule :   c1 

 the group has the following generators :
   c1(z)

    1 symmetry operations found

 there are 1 real representations :   a   

 maximum number of shells which are related by symmetry :  1


    mo occupation :
   irrep   mo's   occupied
    a     8250      194
 
 number of basis functions   :         8250
 number of occupied orbitals :          194
 
  
           ------------------
           density functional
           ------------------
 Dummy atoms with grid-point found.
 DFT quadrature threshold dgrenze tightened by factor 1/10.

 TPSS meta-GGA functional
 exchange:    LDA + TPSS
 correlation: LDA (PW) + TPSS
 Dummy atoms with grid-point found.
 DFT quadrature threshold dgrenze tightened by factor 1/10.

 Dummy atoms with grid-point found.
 DFT quadrature threshold dgrenze tightened by factor 1/10.

 grinp -> nfun, dfgga, dfhybrid 
           5 F F
 iterations will be done with small grid
  
 spherical integration : Lebedev's spherical grid
 spherical gridsize    :           5
    i.e. gridpoints    :         590
 value for diffuse not defined
 radial integration    : Chebyshev 2nd kind (scaling 3)
 radial gridsize       :           8
 integration cells     :         158
 partition function    : becke
 partition sharpness   :           3
  
 found dummy atom(s) with basis: included in dft

 <rddim> : input of entry tasksize
           from data group '$pardft' failed !

               Default values taken

 <rddim> : input of entry memdiv
           from data group '$pardft' failed !

               Default values taken
  RIDFT: memory allocation for DFT gridpoints
  MEMORY is divided by 1 as DEFAULT
 Each node can hold at most  the            1 -th part
 of the gridpoints    

 biggest AO integral is expected to be     5.262544080
  
           ------------------------
               RI-J - INFORMATION
           ------------------------
 
 
 **************************************************
 *      MEMORY ALLOCATION FOR PARALLEL RI-DFT     *
 **************************************************
 
 
MEMORY FOR (MU NU/ ALPHA), SEQUENTIAL RUN              14645 MByte
 
            DIFFERENCE IN MEMORY NEED:       DIAG./SLAVE  
 
      TOTAL DIFFERENCE :                   3125 MByte
 
      difference in xcore:                  356 MByte
      difference in fatmat:                 914 MByte
      getcor calls skipped by slaves:      1855 MByte
 
 
           Integral memory available for diagonal.     14645 MByte
 
           Integral memory available for slave             0 MByte
 
         MEMORY FOR (MU NU/ ALPHA) ON DIAGONALIZER     14645 MByte
 
         MEMORY FOR (MU NU/ ALPHA) ON ONE SLAVE            0 MByte
 
         TOTAL MEMORY FOR (MU NU/ ALPHA),ALL NODES     14645 MByte
 
 Contributions to RI integral batches: 
  neglected integral batches:     2095533
  direct contribution:             951723
  memory contribution:       54039
 Memory core needed for (P|Q) and Cholesky    341 MByte
 Memory core minimum needed except of (P|Q)    17 MByte
 Total minimum memory core needed (sum)       357 MByte
     number of direct tasks:         160
  
 ****************************************
 Memory allocated for RI-J 15002 MByte
 ****************************************
                                            

          ------------------------
          nuclear repulsion energy  :   7285.87017239    
          ------------------------

 
          -----------------
          -S integrals
          -----------------

 1e-integrals will be neglected if expon. factor < 0.323207E-15
 
          -----------------
          -T+V integrals
          -----------------

 1e-integrals will be neglected if expon. factor < 0.323207E-15
 Difference densities >>NOT<< switched on in parallel ridft!

 automatic virtual orbital shift switched on 
      shift if e(lumo)-e(homo) < 0.10000000    


 DIIS switched on: error vector is FDS-SDF
 Max. Iterations for DIIS is     :   4
 DIIS matrix (see manual) 
    Scaling factor of diagonals  :  1.200
    threshold for scaling factor :  0.000

 scf convergence criterion : increment of total energy < .1000000D-08
                  and increment of one-electron energy < .1000000D-05


 <geterg> : there is no data group $energy 

  MOs are in ASCII format !


 reading orbital data $scfmo  from file mos . 

 orbital characterization : expanded
 
 mo provided and orthogonalized by Cholesky decomposition

 DSCF restart information will be dumped onto file mos


 Starting SCF iterations


 ITERATION  ENERGY          1e-ENERGY        2e-ENERGY     RMS[dD(SAO)]   TOL
   1  -2297.8043265304    -17522.776381     7939.1018818    0.000D+00 0.322D-14
                            Exc = -329.091070403     Coul =  8268.19295218    
                              N = 388.00097829    
                            current damping = 0.700
 
          max. resid. norm for Fia-block=  5.203D-01 for orbital     61a         
          max. resid. fock norm         =  6.115D+01 for orbital   7020a         

 ITERATION  ENERGY          1e-ENERGY        2e-ENERGY     RMS[dD(SAO)]   TOL
   2  -2303.1094495544    -17590.766277     8001.7866554    0.334D-01 0.322D-14
                            Exc = -334.300683252     Coul =  8336.08733870    
                              N = 388.00078692    
                            current damping = 0.650
 
          Norm of current diis error:  9.4052    
          max. resid. norm for Fia-block=  1.253D-01 for orbital     62a         
          max. resid. fock norm         =  1.795D-01 for orbital   7383a         

 ITERATION  ENERGY          1e-ENERGY        2e-ENERGY     RMS[dD(SAO)]   TOL
   3  -2304.2356202370    -17606.086322     8015.9805298    0.741D-02 0.322D-14
                            Exc = -335.857906436     Coul =  8351.83843620    
                              N = 388.00068845    
                            current damping = 0.550
 
          Norm of current diis error:  4.5272    
          max. resid. norm for Fia-block=  6.107D-02 for orbital     62a         
          max. resid. fock norm         =  7.042D-02 for orbital     62a         

 ITERATION  ENERGY          1e-ENERGY        2e-ENERGY     RMS[dD(SAO)]   TOL
   4  -2304.5693590623    -17620.289851     8029.8503200    0.185D-02 0.322D-14
                            Exc = -336.792981656     Coul =  8366.64330167    
                              N = 388.00063805    
                            current damping = 0.450
 
          Norm of current diis error:  1.7995    
          max. resid. norm for Fia-block=  2.469D-02 for orbital     62a         
          max. resid. fock norm         =  4.092D-02 for orbital   8167a         

 ITERATION  ENERGY          1e-ENERGY        2e-ENERGY     RMS[dD(SAO)]   TOL
   5  -2304.6142951027    -17620.611686     8030.1272184    0.174D-02 0.322D-14
                            Exc = -337.143407039     Coul =  8367.27062546    
                              N = 388.00063015    
                            current damping = 0.300
 
          Norm of current diis error:  1.2046    
          max. resid. norm for Fia-block=  1.476D-02 for orbital    193a         
          max. resid. fock norm         =  2.771D-02 for orbital   8167a         
          mo-orthogonalization: Cholesky decomposition

 ITERATION  ENERGY          1e-ENERGY        2e-ENERGY     RMS[dD(SAO)]   TOL
   6  -2304.6362314070    -17625.848667     8035.3422628    0.890D-03 0.322D-14
                            Exc = -337.321291392     Coul =  8372.66355418    
                              N = 388.00062000    
                            current damping = 0.200
 
          Norm of current diis error: 0.64679    
          max. resid. norm for Fia-block=  6.573D-03 for orbital    189a         
          max. resid. fock norm         =  1.183D-02 for orbital   8135a         

 ITERATION  ENERGY          1e-ENERGY        2e-ENERGY     RMS[dD(SAO)]   TOL
   7  -2304.6441160774    -17624.938849     8034.4245604    0.292D-03 0.322D-14
                            Exc = -337.330637186     Coul =  8371.75519759    
                              N = 388.00062318    
                            current damping = 0.250
 
          Norm of current diis error: 0.20853    
          max. resid. norm for Fia-block=  2.617D-03 for orbital    192a         
          max. resid. fock norm         =  5.320D-03 for orbital   8160a         

 ITERATION  ENERGY          1e-ENERGY        2e-ENERGY     RMS[dD(SAO)]   TOL
   8  -2304.6441290013    -17624.372273     8033.8579719    0.780D-04 0.322D-14
                            Exc = -337.329277331     Coul =  8371.18724923    
                              N = 388.00062344    
                            current damping = 0.150
 
          Norm of current diis error: 0.20823    
          max. resid. norm for Fia-block=  1.821D-03 for orbital    192a         
          max. resid. fock norm         =  3.891D-03 for orbital   8144a         

 ITERATION  ENERGY          1e-ENERGY        2e-ENERGY     RMS[dD(SAO)]   TOL
   9  -2304.6448265317    -17624.957466     8034.4424670    0.323D-04 0.322D-14
                            Exc = -337.334996606     Coul =  8371.77746364    
                              N = 388.00062164    
                            current damping = 0.200
 
          Norm of current diis error: 0.86370E-01
          max. resid. norm for Fia-block=  7.498D-04 for orbital    192a         
          max. resid. fock norm         =  1.716D-03 for orbital   8141a         

 ITERATION  ENERGY          1e-ENERGY        2e-ENERGY     RMS[dD(SAO)]   TOL
  10  -2304.6449498905    -17624.924146     8034.4090240    0.154D-04 0.322D-14
                            Exc = -337.337236922     Coul =  8371.74626097    
                              N = 388.00062239    
                            current damping = 0.250
 
          Norm of current diis error: 0.32454E-01
          max. resid. norm for Fia-block=  2.874D-04 for orbital    191a         
          max. resid. fock norm         =  8.037D-04 for orbital   8173a         
          mo-orthogonalization: Cholesky decomposition

 ITERATION  ENERGY          1e-ENERGY        2e-ENERGY     RMS[dD(SAO)]   TOL
  11  -2304.6449670496    -17624.827185     8034.3120452    0.736D-05 0.322D-14
                            Exc = -337.334249165     Coul =  8371.64629441    
                              N = 388.00062255    
                            current damping = 0.100
 
          Norm of current diis error: 0.14461E-01
          max. resid. norm for Fia-block=  1.296D-04 for orbital    188a         
          max. resid. fock norm         =  3.118D-04 for orbital   8142a         

 ITERATION  ENERGY          1e-ENERGY        2e-ENERGY     RMS[dD(SAO)]   TOL
  12  -2304.6449698154    -17624.884826     8034.3696837    0.304D-05 0.322D-14
                            Exc = -337.334657579     Coul =  8371.70434125    
                              N = 388.00062227    
                            current damping = 0.150
 
          Norm of current diis error: 0.85821E-02
          max. resid. norm for Fia-block=  8.558D-05 for orbital    188a         
          max. resid. fock norm         =  2.221D-04 for orbital   8142a         

 ITERATION  ENERGY          1e-ENERGY        2e-ENERGY     RMS[dD(SAO)]   TOL
  13  -2304.6449708790    -17624.869417     8034.3542737    0.167D-05 0.322D-14
                            Exc = -337.335085362     Coul =  8371.68935908    
                              N = 388.00062238    
                            current damping = 0.200
 
          Norm of current diis error: 0.50863E-02
          max. resid. norm for Fia-block=  4.119D-05 for orbital    191a         
          max. resid. fock norm         =  1.033D-04 for orbital   8127a         

 ITERATION  ENERGY          1e-ENERGY        2e-ENERGY     RMS[dD(SAO)]   TOL
  14  -2304.6449713963    -17624.871405     8034.3562611    0.733D-06 0.322D-14
                            Exc = -337.334979960     Coul =  8371.69124111    
                              N = 388.00062237    
                            current damping = 0.250
 
          Norm of current diis error: 0.15483E-02
          max. resid. norm for Fia-block=  1.625D-05 for orbital    190a         
          max. resid. fock norm         =  3.570D-05 for orbital   8151a         

 ITERATION  ENERGY          1e-ENERGY        2e-ENERGY     RMS[dD(SAO)]   TOL
  15  -2304.6449714284    -17624.868464     8034.3533205    0.276D-06 0.322D-14
                            Exc = -337.334890703     Coul =  8371.68821121    
                              N = 388.00062237    
                            current damping = 0.300
 
          Norm of current diis error: 0.94548E-03
          max. resid. norm for Fia-block=  7.066D-06 for orbital    182a         
          max. resid. fock norm         =  1.660D-05 for orbital   8179a         
          mo-orthogonalization: Cholesky decomposition

 ITERATION  ENERGY          1e-ENERGY        2e-ENERGY     RMS[dD(SAO)]   TOL
  16  -2304.6449714448    -17624.870845     8034.3557012    0.121D-06 0.322D-14
                            Exc = -337.334905400     Coul =  8371.69060658    
                              N = 388.00062237    
                            current damping = 0.350
 
          Norm of current diis error: 0.29267E-03
          max. resid. norm for Fia-block=  3.651D-06 for orbital    186a         
          max. resid. fock norm         =  8.867D-06 for orbital   8160a         

 DENSITY CONVERGED !


 ITERATION  ENERGY          1e-ENERGY        2e-ENERGY     RMS[dD(SAO)]   TOL
  17  -2304.6449714453    -17624.869359     8034.3542149    0.561D-07 0.322D-14
                            Exc = -337.334920863     Coul =  8371.68913578    
                              N = 388.00062237    
                            current damping = 0.400
 
          Norm of current diis error: 0.20616E-03
          max. resid. norm for Fia-block=  1.748D-06 for orbital    184a         
          max. resid. fock norm         =  3.990D-06 for orbital   8174a         

 DENSITY CONVERGED !


 ITERATION  ENERGY          1e-ENERGY        2e-ENERGY     RMS[dD(SAO)]   TOL
  18  -2304.6449714468    -17624.870224     8034.3550800    0.311D-07 0.322D-14
                            Exc = -337.334924845     Coul =  8371.69000482    
                              N = 388.00062237    
                            current damping = 0.450
 
          Norm of current diis error: 0.52110E-04
          max. resid. norm for Fia-block=  7.376D-07 for orbital    191a         
          max. resid. fock norm         =  1.532D-06 for orbital   8173a         

 DENSITY CONVERGED !


 ITERATION  ENERGY          1e-ENERGY        2e-ENERGY     RMS[dD(SAO)]   TOL
  19  -2304.6449714466    -17624.870168     8034.3550243    0.103D-07 0.322D-14
                            Exc = -337.334921212     Coul =  8371.68994552    
                              N = 388.00062237    
                            current damping = 0.500
 
          Norm of current diis error: 0.38908E-04
          max. resid. norm for Fia-block=  2.968D-07 for orbital    192a         
          max. resid. fock norm         =  6.006D-07 for orbital   8141a         

 DENSITY CONVERGED !


 ITERATION  ENERGY          1e-ENERGY        2e-ENERGY     RMS[dD(SAO)]   TOL
  20  -2304.6449714471    -17624.870115     8034.3549714    0.513D-08 0.322D-14
                            Exc = -337.334919801     Coul =  8371.68989122    
                              N = 388.00062237    
                            current damping = 0.350
 
          Norm of current diis error: 0.15568E-04
          max. resid. norm for Fia-block=  1.669D-07 for orbital    191a         
          max. resid. fock norm         =  3.894D-07 for orbital   1164a         
          mo-orthogonalization: Cholesky decomposition

 DENSITY CONVERGED !


 ITERATION  ENERGY          1e-ENERGY        2e-ENERGY     RMS[dD(SAO)]   TOL
  21  -2304.6449714466    -17624.870153     8034.3550091    0.563D-08 0.322D-14
                            Exc = -337.334920007     Coul =  8371.68992912    
                              N = 388.00062237    
                            current damping = 0.400
 
          Norm of current diis error: 0.99933E-05
          max. resid. norm for Fia-block=  6.252D-08 for orbital    182a         
          max. resid. fock norm         =  1.918D-07 for orbital   1219a         

 ENERGY & DENSITY CONVERGED !


 ITERATION  ENERGY          1e-ENERGY        2e-ENERGY     RMS[dD(SAO)]   TOL
  22  -2304.6436412886    -17624.870163     8034.3563492    0.332D-08 0.322D-14
                            Exc = -337.333590327     Coul =  8371.68993950    
                              N = 387.99989641    
                            current damping = 0.250
 
          Norm of current diis error: 0.39314E-05
          max. resid. norm for Fia-block=  4.910D-08 for orbital    186a         
          max. resid. fock norm         =  2.764D-07 for orbital   1164a         

 End of SCF iterations

   convergence criteria satisfied after   22 iterations


                  ------------------------------------------ 
                 |  total energy      =  -2304.64364128863  |
                  ------------------------------------------ 
                 :  kinetic energy    =   2293.82790178781  :
                 :  potential energy  =  -4598.47154307643  :
                 :  virial theorem    =      1.99530697965  :
                 :  wavefunction norm =      1.00000000000  :
                  .......................................... 


 <geterg> : there is no data group $energy 


 <skperg> : $end is missing 


 orbitals $scfmo  will be written to file mos

    irrep                190a        191a        192a        193a        194a   
 eigenvalues H         -0.20554    -0.20516    -0.20220    -0.20094    -0.19862
            eV          -5.5930     -5.5828     -5.5023     -5.4678     -5.4049
 occupation              2.0000      2.0000      2.0000      2.0000      2.0000 

    irrep                195a        196a        197a        198a        199a   
 eigenvalues H         -0.09376    -0.09365    -0.08825    -0.08669    -0.06823
            eV          -2.5513     -2.5485     -2.4015     -2.3590     -1.8566
 
 
 ! grave: sending quit signal to master process
 
 
 
 
 ==============================================================================
                           electrostatic moments
 ==============================================================================

 reference point for electrostatic moments:    0.00000   0.00000   0.00000

 
              nuc           elec       ->  total
 ------------------------------------------------------------------------------
                          charge      
 ------------------------------------------------------------------------------
         388.000000    -388.000000       0.000000
 
 ------------------------------------------------------------------------------
                       dipole moment  
 ------------------------------------------------------------------------------
   x    1596.543948   -1597.075390      -0.531442
   y       2.879640      -2.880517      -0.000877
   z      78.641501     -78.733976      -0.092475
 
   | dipole moment | =     0.5394 a.u. =     1.3711 debye 
 
 ------------------------------------------------------------------------------
                     quadrupole moment
 ------------------------------------------------------------------------------
  xx   18150.360989  -18384.183330    -233.822341
  yy   29583.270229  -29854.669800    -271.399571
  zz    5872.263784   -6101.081380    -228.817595
  xy     -20.615950      20.683756       0.067806
  xz     148.226701    -149.283024      -1.056323
  yz      10.441409     -10.463714      -0.022304
 
     1/3  trace=    -244.679836
     anisotropy=      40.354962
 
 ==============================================================================
 

    ridft profiling
  --------------------------------------------------------------------
             module   cpu total (s)       %  wall total (s)       %

               RIDFT         96754.0  100.00         96814.7  100.00
         Ridft_b_scf          1532.2    1.58          1531.0    1.58
        b_scf_prelim             0.0    0.00             0.0    0.00
        b_scf_molinp             0.0    0.00             0.0    0.00
         b_scf_init0             0.0    0.00             0.0    0.00
        b_scf_auxbas             0.0    0.00             0.0    0.00
      b_scf_symmetry             0.0    0.00             0.0    0.00
         b_scf_cosmo             0.0    0.00             0.0    0.00
        b_scf_params            86.8    0.09            86.8    0.09
          b_scf_ri-j           146.1    0.15           146.0    0.15
    b_scf_ri-j_auxpq           145.6    0.15           145.5    0.15
     ri-j_auxpq_chol            40.8    0.04            40.8    0.04
         b_scf_1elec            36.9    0.04            36.9    0.04
       b_scf_moinput          1262.3    1.30          1261.3    1.30
     moinput_orthmos          1260.3    1.30          1259.3    1.30
    b_scf_dft-dstmax             0.0    0.00             0.0    0.00
           Ridft_scf         95211.1   98.41         95272.8   98.41
          Scf_b_loop             0.0    0.00             0.0    0.00
                noga             0.0    0.00             0.0    0.00
            Scf_loop         95166.0   98.36         95226.6   98.36
     scf_loop_mkdmat           181.2    0.19           193.5    0.20
       scf_loop_ri-j         13302.7   13.75         13303.6   13.74
      parlp1.bc.dens            11.0    0.01            11.0    0.01
        parlp1.gs.gp           230.0    0.24           229.8    0.24
        parlp2.bc.gq             0.0    0.00             0.0    0.00
        scf_loop_dft         65485.3   67.68         65436.4   67.59
      pardft.bc.dens             0.0    0.00             0.0    0.00
        dft_grid_con            86.9    0.09            86.9    0.09
          dft_xcmrhf         64756.9   66.93         64707.8   66.84
          dft_getval           296.8    0.31           296.9    0.31
          funct2 dst             3.5    0.00             3.5    0.00
      funct2 f2loop1            46.6    0.05            46.9    0.05
      funct2 f2loop2           123.8    0.13           124.3    0.13
          funct2 s+c           120.0    0.12           119.6    0.12
        funct2 cmf_2           109.2    0.11           108.9    0.11
          dft_mkdens         36300.9   37.52         36273.9   37.47
        dft_mgga-fun             4.6    0.00             4.7    0.00
          dft_mkfock         28151.8   29.10         28129.9   29.06
     pardft.red.fock          4004.2    4.14          4001.8    4.13
     scf_loop_energy             1.4    0.00             1.8    0.00
     scf_loop_mkfock             2.5    0.00             2.5    0.00
       scf_loop_diis          9295.8    9.61          9363.8    9.67
       scf_loop_diag          4456.6    4.61          4461.8    4.61
         diag_tritrn          1647.9    1.70          1647.6    1.70
          diag_rdiag          2803.5    2.90          2808.8    2.90
     scf_loop_modump           865.5    0.89           888.9    0.92
      scf_loop_ortho          1536.3    1.59          1535.6    1.59
          Scf_a_loop            45.2    0.05            46.2    0.05
         Ridft_a_scf            10.7    0.01            10.9    0.01
         a_scf_fanal            10.5    0.01            10.6    0.01
 


    ------------------------------------------------------------------------
         total  cpu-time :   1 days  2 hours 53 minutes and 29 seconds
         total wall-time :   1 days  2 hours 54 minutes and 30 seconds
    ------------------------------------------------------------------------


   ****  ridft : all done  ****


    2016-06-14 15:02:53.677 

