Using Slurm to start processes with PMI2
STARTING ridft ON 8 PROCESSORS!
RUNNING PROGRAM /modfac/apps/TURBOMOLE/7.0_intel_GA/bin/em64t-unknown-linux-gnu_mpi/ridft_mpi.
PLEASE WAIT UNTIL ridft HAS FINISHED.
Look for the output in slave1.output.
  this is node-proc. number 1 running on node c-7-16.local
  the total number of node-proc. spawned is            8
  parallel platform: MPP, or cluster with fast interconnect

 ridft (c-7-16.local) : TURBOMOLE V7.0.2( ) 15 Jan 2016 at 17:47:42
 Copyright (C) 2016 TURBOMOLE GmbH, Karlsruhe


    2016-01-30 08:22:35.183 



                                  r i d f t

                        DFT program with RI approximation 
                                for coulomb part 




                                                 
                                 References:     
                                                 
          TURBOMOLE:                             
              R. Ahlrichs, M. Baer, M. Haeser, H. Horn, and
              C. Koelmel
              Electronic structure calculations on workstation
              computers: the program system TURBOMOLE
              Chem. Phys. Lett. 162: 165 (1989)
          Density Functional:                              
              O. Treutler and R. Ahlrichs                      
              Efficient Molecular Numerical Integration Schemes
              J. Chem. Phys. 102: 346 (1995)                   
          Parallel Version:                                
              Performance of parallel TURBOMOLE for Density    
              Functional Calculations                          
              M. v. Arnim and R. Ahlrichs                      
              J. Comp. Chem. 19: 1746 (1998)                   
          RI-J Method:                                     
              Auxiliary Basis Sets to approximate Coulomb      
              Potentials                                       
              Chem. Phys. Lett. 240: 283 (1995)                
              K. Eichkorn, O. Treutler, H. Oehm, M. Haeser     
              and R. Ahlrichs                                  
              Chem. Phys. Lett. 242: 652 (1995)                
                                                           
              Auxiliary Basis Sets for Main Row Atoms and their
              Use to approximate Coulomb Potentials            
              K. Eichkorn, F. Weigend, O. Treutler and         
              R. Ahlrichs                                      
              Theo. Chem. Acc. 97: 119 (1997)                   
                                                           
              Accurate Coulomb-fitting basis sets for H to Rn 
              F. Weigend                                        
              Phys. Chem. Chem. Phys. 8: 1057 (2006)            
                                                           
          Multipole accelerated RI-J (MARI-J):             
              Fast evaluation of the Coulomb potential for     
              electron densities using multipole accelerated   
              resolution of identity approximation             
              M. Sierka, A. Hogekamp and R. Ahlrichs           
              J. Chem. Phys. 118: 9136 (2003)                  
          RI-JK Method:                                     
              A fully direct RI-HF algorithm: Implementation,
              optimised auxiliary basis sets, demonstration of
              accuracy and efficiency                         
              F. Weigend                                      
              Phys. Chem. Chem. Phys. 4: 4285 (2002)           
          Two-component HF and DFT with spin-orbit coupling:  
              Self-consistent treatment of spin-orbit         
              interactions with efficient Hartree-Fock and    
              density functional methods                      
              M. K. Armbruster, F. Weigend, C. van Wüllen and 
              W. Klopper                                      
              Phys. Chem. Chem. Phys. 10: 1748 (2008)         
          Relativistic all-electron 2c calculations           
              An efficient implementation of two-component    
              relativistic exact-decoupling methods for large 
              molecules                                       
              D. Peng, N. Middendorf, F. Weigend, M. Reiher   
              J. Chem. Phys. 138, 184105 (2013)               
                                         


 


              +--------------------------------------------------+
              |      general information about current run       |
              +--------------------------------------------------+

 

 SCF run will be profiled !


 DENSITY CONVERGENCE CHECK SWITCHED ON !
 SCF CONVERGENCE IF RMS(delta[D]) <     0.1000000000E-06

 PBE functional
 exchange:    LDA + PBE
 correlation: LDA (PW) + PBE
 A DFT calculation using the RI-J approximation will be carried out.
 Allocatable memory for RI due to $ricore (MB):        8000


              +--------------------------------------------------+
              | Atomic coordinate, charge and isotop information |
              +--------------------------------------------------+

                    atomic coordinates            atom    charge  isotop
         -0.07022222    6.58471292   -2.12953238    c      0.000     0
          0.01787681   -6.60597233    2.18263368    c      0.000     0
        -10.47734088   -1.15156131    0.76159743    c      0.000     0
        -10.43720310    0.76921302   -1.45862291    c      0.000     0
         -0.70817487    8.79376497   -4.00480211    c      0.000     0
         -0.62551825   -8.76394509    4.11567234    c      0.000     0
        -12.85289670   -2.81665570    0.62332616    c      0.000     0
        -12.87466635    2.34809810   -1.48487121    c      0.000     0
         -5.66829023   -0.54582850    3.79963454    c      0.000     0
         -5.42525255    0.35103553   -4.18260644    c      0.000     0
        -15.26825016   -1.22072529    0.58681666    c      0.000     0
        -15.22784782    0.66620405   -1.61031123    c      0.000     0
          8.85117485    4.27187710   -5.47931761    c      0.000     0
          8.68319709   -3.60319751    5.68556232    c      0.000     0
          6.27547813  -10.04797620   -4.26579218    c      0.000     0
          5.73938172    9.92075984    4.78391729    c      0.000     0
          3.72092745    7.38087343   -0.01810358    c      0.000     0
          3.93703653   -7.37592235    0.30772300    c      0.000     0
         -0.45733262    7.48477058    0.51638656    c      0.000     0
         -0.20195503   -7.62884330   -0.43597872    c      0.000     0
          2.82566969   -6.06522720    2.27073272    c      0.000     0
          2.75582541    6.15177666   -2.10591080    c      0.000     0
          7.93955207    6.58699948   -1.40984908    c      0.000     0
          8.05106481   -6.35537575    1.84817106    c      0.000     0
         -4.15909825   -4.42866768    1.31360533    c      0.000     0
         -4.20450836    4.24674374   -1.56493890    c      0.000     0
          4.41114992    5.11390127   -3.91201655    c      0.000     0
          4.35149126   -4.82110710    4.05890497    c      0.000     0
         -1.86298651   -4.49938123    2.76568978    c      0.000     0
         -1.83522643    4.43074638   -2.87924343    c      0.000     0
          6.55451509   -7.61423571   -0.04781007    c      0.000     0
          6.30881290    7.65437350    0.49646885    c      0.000     0
         -8.28763962    2.46446744   -1.21462147    n      0.000     0
         -8.25725282   -2.76967711    0.66518360    n      0.000     0
          7.03533701    5.35036270   -3.57668465    c      0.000     0
          6.99616299   -4.95055334    3.83854400    c      0.000     0
         -6.01923127    2.38096044   -2.29716998    c      0.000     0
         -6.07176565   -2.60714176    1.89976058    c      0.000     0
         -4.49427897   -6.16659211   -0.84166512    c      0.000     0
         -4.72573263    5.92682366    0.60441001    c      0.000     0
         -2.34390291   -7.61506719   -1.78433611    c      0.000     0
         -2.67405696    7.38204506    1.73182062    c      0.000     0
          7.38986853    8.81470314    2.74305087    c      0.000     0
          7.78731573   -8.91196734   -2.13395434    c      0.000     0
          2.10893436   -8.45465362   -1.28875543    o      0.000     0
          1.78354242    8.31188481    1.53734890    o      0.000     0
         10.57910263   -6.44228426    1.69861813    o      0.000     0
         10.45413504    6.70427589   -1.09651359    o      0.000     0
          3.33665164   -3.47904250    5.95944033    o      0.000     0
          3.53106666    3.87773692   -5.94753506    o      0.000     0
          9.74331456    8.88961188    3.02819164    o      0.000     0
         10.15002142   -9.06654694   -2.21734795    o      0.000     0
         -6.53686505   -6.30316262   -2.06669899    o      0.000     0
         -6.85237372    5.99107435    1.68168618    o      0.000     0
         -1.38492359   -3.13766348    4.63946663    o      0.000     0
         -1.19916351    3.13702097   -4.75774459    o      0.000     0
         10.70025297    7.61451917    0.58836623    h      0.000     0
         10.94846850   -7.51313536    0.13825236    h      0.000     0
         -8.38762503    3.92586825    0.13093912    h      0.000     0
         -8.22580778   -4.24785868   -0.66410645    h      0.000     0
          1.65292455    3.58033182   -5.69287556    h      0.000     0
          1.44743573   -3.33005649    5.64544344    h      0.000     0
        -10.49338465   -0.08745653    2.53359362    h      0.000     0
        -10.29673975   -0.29358785   -3.22597038    h      0.000     0
         -2.51514989   -8.44477035   -3.64873991    h      0.000     0
         -2.96911880    8.12204292    3.61778620    h      0.000     0
        -12.93286991    3.50874900    0.23562995    h      0.000     0
        -12.75259004   -3.97562474   -1.09653249    h      0.000     0
        -12.84484647   -4.11916833    2.23133193    h      0.000     0
        -12.80376382    3.65095089   -3.09113842    h      0.000     0
        -15.44206717   -0.18831121    2.37952425    h      0.000     0
        -15.24273886   -0.36947925   -3.40972735    h      0.000     0
         -5.45730230   -1.35595409    5.68875596    h      0.000     0
         -3.65110207   -0.56982802   -3.67462916    h      0.000     0
        -16.91869917   -2.46176513    0.44616434    h      0.000     0
        -16.92769427    1.84673486   -1.58342042    h      0.000     0
         -3.89396967    0.43138668    3.40885807    h      0.000     0
         -6.91571734   -1.06452053   -4.28022969    h      0.000     0
          7.64411228   -2.09653776    6.63783312    h      0.000     0
          7.95567143    2.74960822   -6.54531213    h      0.000     0
         -7.20985322    0.81696640    3.79028040    h      0.000     0
         -5.11930589    1.18285518   -6.04878658    h      0.000     0
         10.33179417   -2.81782733    4.71739893    h      0.000     0
         10.55079453    3.56411797   -4.54539606    h      0.000     0
          7.58794962  -10.86001042   -5.63195079    h      0.000     0
          6.95851964   10.69961047    6.25225340    h      0.000     0
          0.58611746  -10.39617714    3.75171109    h      0.000     0
          0.41908456   10.45449409   -3.51859447    h      0.000     0
          4.50907553    8.46039838    5.57871721    h      0.000     0
          5.11187926   -8.59432327   -5.16811751    h      0.000     0
         -0.27801651   -8.06586136    6.02769724    h      0.000     0
         -0.24556991    8.19230294   -5.92542526    h      0.000     0
         -2.71684036    9.26595084   -3.88864064    h      0.000     0
         -2.60736853   -9.31986473    3.92879732    h      0.000     0
          4.98604240  -11.50525741   -3.56606439    h      0.000     0
          4.51143768   11.39837450    4.01854042    h      0.000     0
          9.45501794    5.72243088   -6.83217255    h      0.000     0
          9.39687107   -4.90281886    7.13473660    h      0.000     0
          5.37744248   -1.46325274   -2.07862316    c      6.000     0
          3.66733481   -0.28338333   -0.32336994    c      6.000     0
          8.94745640    0.29311542    0.09339027    c      6.000     0
          4.69780247    1.19031959    1.67701856    c      6.000     0
          7.27457634    1.46478342    1.82985961    c      6.000     0
          8.04303347   -1.18270400   -1.84153812    c      6.000     0
          3.08554483    2.42769337    3.53216270    n      7.000     0
          4.06423399   -2.74066981   -3.78139868    n      7.000     0
          1.59717763   -2.36162854   -3.10691763    o      8.000     0
          1.31621315   -0.85995767   -0.97341683    n      7.000     0
         10.01530284   -2.64996296   -3.95534797    cl    17.000     0
          0.77949313    2.29407083    3.19187972    o      8.000     0
          4.11616367    3.54291525    5.30899660    o      8.000     0
         10.96385087    0.57485469    0.30209162    h      1.000     0
          8.03451080    2.60855906    3.34882147    h      1.000     0
 
       center of nuclear mass  :    1.11888137   -0.07326547   -0.07816068
       center of nuclear charge:    5.28509005   -0.22160365   -0.32856479

              +--------------------------------------------------+
              |               basis set information              |
              +--------------------------------------------------+

              we will work with the 1s 3p 5d 7f 9g ... basis set
              ...i.e. with spherical basis functions...

   type   atoms  prim   cont   basis
   ---------------------------------------------------------------------------
    c       48     77     55   cc-pVQZ   [5s4p3d2f1g|21s6p3d2f1g]
    n        5     77     55   cc-pVQZ   [5s4p3d2f1g|21s6p3d2f1g]
    o       15     77     55   cc-pVQZ   [5s4p3d2f1g|21s6p3d2f1g]
    h       44     32     30   cc-pVQZ   [4s3p2d1f|6s3p2d1f]
    cl       1    137     59   cc-pVQZ   [6s5p3d2f1g|42s19p3d2f1g]
   ---------------------------------------------------------------------------
   total:  113   6781   5119
   ---------------------------------------------------------------------------

   total number of primitive shells          :  178
   total number of contracted shells         : 1477
   total number of cartesian basis functions : 6374
   total number of SCF-basis functions       : 5119


 integral neglect threshold       :  0.52E-14
 integral storage threshold THIZE :  0.10E-04
 integral storage threshold THIME :         5

 RI-J AUXILIARY BASIS SET information:

              we will work with the 1s 3p 5d 7f 9g ... basis set
              ...i.e. with spherical basis functions...

   type   atoms  prim   cont   basis
   ---------------------------------------------------------------------------
    c       48     70     49   cc-pVQZ   [6s4p3d1f1g|12s5p4d2f1g]
    n        5     70     49   cc-pVQZ   [6s4p3d1f1g|12s5p4d2f1g]
    o       15     70     49   cc-pVQZ   [6s4p3d1f1g|12s5p4d2f1g]
    h       44     16     11   cc-pVQZ   [3s1p1d|5s2p1d]
    cl       1     77     51   cc-pVQZ   [8s4p3d1f1g|14s5p5d2f1g]
   ---------------------------------------------------------------------------
   total:  113   5541   3867
   ---------------------------------------------------------------------------

   total number of primitive shells          :  107
   total number of contracted shells         : 1257
   total number of cartesian basis functions : 4739
   total number of SCF-basis functions       : 3867


 symmetry group of the molecule :   c1 

 the group has the following generators :
   c1(z)

    1 symmetry operations found

 there are 1 real representations :   a   

 maximum number of shells which are related by symmetry :  1


    mo occupation :
   irrep   mo's   occupied
    a     5119       50
 
 number of basis functions   :         5119
 number of occupied orbitals :           50
 
  
           ------------------
           density functional
           ------------------
 Dummy atoms with grid-point found.
 DFT quadrature threshold dgrenze tightened by factor 1/10.

 PBE functional
 exchange:    LDA + PBE
 correlation: LDA (PW) + PBE
 Dummy atoms with grid-point found.
 DFT quadrature threshold dgrenze tightened by factor 1/10.

 Dummy atoms with grid-point found.
 DFT quadrature threshold dgrenze tightened by factor 1/10.

 grinp -> nfun, dfgga, dfhybrid 
           6 T F
 iterations will be done with small grid
  
 spherical integration : Lebedev's spherical grid
 spherical gridsize    :           5
    i.e. gridpoints    :         590
 value for diffuse not defined
 radial integration    : Chebyshev 2nd kind (scaling 3)
 radial gridsize       :           8
 integration cells     :         113
 partition function    : becke
 partition sharpness   :           3
  
 found dummy atom(s) with basis: included in dft

 <rddim> : input of entry tasksize
           from data group '$pardft' failed !

               Default values taken

 <rddim> : input of entry memdiv
           from data group '$pardft' failed !

               Default values taken
  RIDFT: memory allocation for DFT gridpoints
  MEMORY is divided by 1 as DEFAULT
 Each node can hold at most  the            1 -th part
 of the gridpoints    

 biggest AO integral is expected to be    10.299525420
  
           ------------------------
               RI-J - INFORMATION
           ------------------------
 
 
 **************************************************
 *      MEMORY ALLOCATION FOR PARALLEL RI-DFT     *
 **************************************************
 
 
MEMORY FOR (MU NU/ ALPHA), SEQUENTIAL RUN               7884 MByte
 
            DIFFERENCE IN MEMORY NEED:       DIAG./SLAVE  
 
      TOTAL DIFFERENCE :                   1180 MByte
 
      difference in xcore:                  117 MByte
      difference in fatmat:                 354 MByte
      getcor calls skipped by slaves:       710 MByte
 
 
           Integral memory available for diagonal.      7884 MByte
 
           Integral memory available for slave             0 MByte
 
         MEMORY FOR (MU NU/ ALPHA) ON DIAGONALIZER      7884 MByte
 
         MEMORY FOR (MU NU/ ALPHA) ON ONE SLAVE            0 MByte
 
         TOTAL MEMORY FOR (MU NU/ ALPHA),ALL NODES      7884 MByte
 
 Contributions to RI integral batches: 
  neglected integral batches:      713788
  direct contribution:             322948
  memory contribution:       54767
 Memory core needed for (P|Q) and Cholesky    115 MByte
 Memory core minimum needed except of (P|Q)     4 MByte
 Total minimum memory core needed (sum)       118 MByte
     number of direct tasks:         160
  
 ****************************************
 Memory allocated for RI-J  8002 MByte
 ****************************************
                                            

          ------------------------
          nuclear repulsion energy  :   847.156780140    
          ------------------------

 
          -----------------
          -S integrals
          -----------------

 1e-integrals will be neglected if expon. factor < 0.524311E-15
 
          -----------------
          -T+V integrals
          -----------------

 1e-integrals will be neglected if expon. factor < 0.524311E-15
 Difference densities >>NOT<< switched on in parallel ridft!

 automatic virtual orbital shift switched on 
      shift if e(lumo)-e(homo) < 0.10000000    


 DIIS switched on: error vector is FDS-SDF
 Max. Iterations for DIIS is     :   4
 DIIS matrix (see manual) 
    Scaling factor of diagonals  :  1.200
    threshold for scaling factor :  0.000

 scf convergence criterion : increment of total energy < .1000000D-08
                  and increment of one-electron energy < .1000000D-05


 <geterg> : there is no data group $energy 

  MOs are in ASCII format !


 reading orbital data $scfmo  from file mos . 

 orbital characterization : expanded
 
 mo provided and orthogonalized by Cholesky decomposition

 DSCF restart information will be dumped onto file mos


 Starting SCF iterations


 ITERATION  ENERGY          1e-ENERGY        2e-ENERGY     RMS[dD(SAO)]   TOL
   1  -1076.4502817480    -3138.8170855     1215.2100236    0.000D+00 0.523D-14
                            Exc = -106.259787167     Coul =  1321.46981076    
                              N = 100.00073023    
                            current damping = 0.700
 
          max. resid. norm for Fia-block=  4.229D-01 for orbital     33a         
          max. resid. fock norm         =  2.415D+01 for orbital   4783a         

 ITERATION  ENERGY          1e-ENERGY        2e-ENERGY     RMS[dD(SAO)]   TOL
   2  -1078.7948513510    -3154.8253084     1228.8736769    0.737D-02 0.523D-14
                            Exc = -106.673871866     Coul =  1335.54754876    
                              N = 100.00056310    
                            current damping = 0.650
 
          Norm of current diis error:  3.5655    
          max. resid. norm for Fia-block=  1.537D-01 for orbital     18a         
          max. resid. fock norm         =  4.850D-01 for orbital   5059a         

 ITERATION  ENERGY          1e-ENERGY        2e-ENERGY     RMS[dD(SAO)]   TOL
   3  -1079.1011141176    -3158.9797814     1232.7218872    0.216D-02 0.523D-14
                            Exc = -107.000742678     Coul =  1339.72262986    
                              N = 100.00049958    
                            current damping = 0.550
 
          Norm of current diis error:  1.7731    
          max. resid. norm for Fia-block=  5.994D-02 for orbital     41a         
          max. resid. fock norm         =  9.549D-02 for orbital   5034a         

 ITERATION  ENERGY          1e-ENERGY        2e-ENERGY     RMS[dD(SAO)]   TOL
   4  -1079.2064662913    -3159.7127741     1233.3495276    0.694D-03 0.523D-14
                            Exc = -106.915051433     Coul =  1340.26457906    
                              N = 100.00048685    
                            current damping = 0.450
 
          Norm of current diis error: 0.80053    
          max. resid. norm for Fia-block=  3.836D-02 for orbital     18a         
          max. resid. fock norm         =  6.398D-02 for orbital   4707a         

 ITERATION  ENERGY          1e-ENERGY        2e-ENERGY     RMS[dD(SAO)]   TOL
   5  -1079.2270914405    -3160.4133918     1234.0295202    0.297D-03 0.523D-14
                            Exc = -107.015369726     Coul =  1341.04488994    
                              N = 100.00047379    
                            current damping = 0.350
 
          Norm of current diis error: 0.48203    
          max. resid. norm for Fia-block=  1.090D-02 for orbital     36a         
          max. resid. fock norm         =  3.043D-02 for orbital   5027a         
          mo-orthogonalization: Cholesky decomposition

 ITERATION  ENERGY          1e-ENERGY        2e-ENERGY     RMS[dD(SAO)]   TOL
   6  -1079.2323523099    -3160.6000545     1234.2109221    0.148D-03 0.523D-14
                            Exc = -107.020380391     Coul =  1341.23130248    
                              N = 100.00047098    
                            current damping = 0.200
 
          Norm of current diis error: 0.25461    
          max. resid. norm for Fia-block=  7.391D-03 for orbital     49a         
          max. resid. fock norm         =  1.295D-02 for orbital   5059a         

 ITERATION  ENERGY          1e-ENERGY        2e-ENERGY     RMS[dD(SAO)]   TOL
   7  -1079.2324690822    -3160.6632076     1234.2739584    0.628D-04 0.523D-14
                            Exc = -107.000489447     Coul =  1341.27444783    
                              N = 100.00047119    
                            current damping = 0.050
 
          Norm of current diis error: 0.25335    
          max. resid. norm for Fia-block=  4.678D-03 for orbital     44a         
          max. resid. fock norm         =  1.387D-02 for orbital   5059a         
          irrep a   : virtual orbitals shifted by    0.00639

 ITERATION  ENERGY          1e-ENERGY        2e-ENERGY     RMS[dD(SAO)]   TOL
   8  -1079.2336225973    -3160.5823373     1234.1919346    0.319D-04 0.523D-14
                            Exc = -107.003060971     Coul =  1341.19499556    
                              N = 100.00047148    
                            current damping = 0.100
 
          Norm of current diis error: 0.16458    
          max. resid. norm for Fia-block=  3.328D-03 for orbital     44a         
          max. resid. fock norm         =  9.266D-03 for orbital   5058a         
          irrep a   : virtual orbitals shifted by    0.00174

 ITERATION  ENERGY          1e-ENERGY        2e-ENERGY     RMS[dD(SAO)]   TOL
   9  -1079.2342692819    -3160.5797764     1234.1887270    0.156D-04 0.523D-14
                            Exc = -107.011879877     Coul =  1341.20060686    
                              N = 100.00047053    
                            current damping = 0.050
 
          Norm of current diis error: 0.66049E-01
          max. resid. norm for Fia-block=  1.302D-03 for orbital     33a         
          max. resid. fock norm         =  3.062D-03 for orbital   5058a         
          irrep a   : virtual orbitals shifted by    0.00663

 ITERATION  ENERGY          1e-ENERGY        2e-ENERGY     RMS[dD(SAO)]   TOL
  10  -1079.2343538701    -3160.6224765     1234.2313425    0.654D-05 0.523D-14
                            Exc = -107.007023155     Coul =  1341.23836569    
                              N = 100.00047098    
                            current damping = 0.100
 
          Norm of current diis error: 0.37214E-01
          max. resid. norm for Fia-block=  6.950D-04 for orbital     33a         
          max. resid. fock norm         =  1.154D-03 for orbital     40a         
          irrep a   : virtual orbitals shifted by    0.00206
          mo-orthogonalization: Cholesky decomposition

 ITERATION  ENERGY          1e-ENERGY        2e-ENERGY     RMS[dD(SAO)]   TOL
  11  -1079.2343747298    -3160.5962679     1234.2051130    0.321D-05 0.523D-14
                            Exc = -107.010493274     Coul =  1341.21560630    
                              N = 100.00047073    
                            current damping = 0.150
 
          Norm of current diis error: 0.23086E-01
          max. resid. norm for Fia-block=  5.038D-04 for orbital     47a         
          max. resid. fock norm         =  1.056D-03 for orbital   5062a         

 ITERATION  ENERGY          1e-ENERGY        2e-ENERGY     RMS[dD(SAO)]   TOL
  12  -1079.2343819885    -3160.5987234     1234.2075613    0.236D-05 0.523D-14
                            Exc = -107.008588062     Coul =  1341.21614935    
                              N = 100.00047088    
                            current damping = 0.200
 
          Norm of current diis error: 0.16181E-01
          max. resid. norm for Fia-block=  4.190D-04 for orbital     47a         
          max. resid. fock norm         =  8.469D-04 for orbital   5061a         

 ITERATION  ENERGY          1e-ENERGY        2e-ENERGY     RMS[dD(SAO)]   TOL
  13  -1079.2343878362    -3160.5987484     1234.2075804    0.163D-05 0.523D-14
                            Exc = -107.008686926     Coul =  1341.21626733    
                              N = 100.00047079    
                            current damping = 0.050
 
          Norm of current diis error: 0.78542E-02
          max. resid. norm for Fia-block=  2.678D-04 for orbital     47a         
          max. resid. fock norm         =  5.600D-04 for orbital   5061a         
          irrep a   : virtual orbitals shifted by    0.00649

 ITERATION  ENERGY          1e-ENERGY        2e-ENERGY     RMS[dD(SAO)]   TOL
  14  -1079.2343876020    -3160.6021082     1234.2109404    0.113D-05 0.523D-14
                            Exc = -107.009405158     Coul =  1341.22034557    
                              N = 100.00047082    
                            current damping = 0.100
 
          Norm of current diis error: 0.83223E-02
          max. resid. norm for Fia-block=  1.273D-04 for orbital     47a         
          max. resid. fock norm         =  2.820D-04 for orbital   5061a         
          irrep a   : virtual orbitals shifted by    0.00203

 ITERATION  ENERGY          1e-ENERGY        2e-ENERGY     RMS[dD(SAO)]   TOL
  15  -1079.2343893078    -3160.6015236     1234.2103541    0.608D-06 0.523D-14
                            Exc = -107.009090879     Coul =  1341.21944502    
                              N = 100.00047083    
                            current damping = 0.150
 
          Norm of current diis error: 0.40235E-02
          max. resid. norm for Fia-block=  9.513D-05 for orbital     44a         
          max. resid. fock norm         =  2.791D-04 for orbital   5059a         
          mo-orthogonalization: Cholesky decomposition

 ITERATION  ENERGY          1e-ENERGY        2e-ENERGY     RMS[dD(SAO)]   TOL
  16  -1079.2343895356    -3160.5999547     1234.2087850    0.410D-06 0.523D-14
                            Exc = -107.009144719     Coul =  1341.21792971    
                              N = 100.00047080    
                            current damping = 0.050
 
          Norm of current diis error: 0.29550E-02
          max. resid. norm for Fia-block=  4.273D-05 for orbital     44a         
          max. resid. fock norm         =  1.125D-04 for orbital   5059a         
          irrep a   : virtual orbitals shifted by    0.00650

 ITERATION  ENERGY          1e-ENERGY        2e-ENERGY     RMS[dD(SAO)]   TOL
  17  -1079.2343896969    -3160.6005117     1234.2093418    0.249D-06 0.523D-14
                            Exc = -107.008913202     Coul =  1341.21825504    
                              N = 100.00047082    
                            current damping = 0.100
 
          Norm of current diis error: 0.17580E-02
          max. resid. norm for Fia-block=  4.519D-05 for orbital     47a         
          max. resid. fock norm         =  9.405D-05 for orbital   5062a         
          irrep a   : virtual orbitals shifted by    0.00206

 ITERATION  ENERGY          1e-ENERGY        2e-ENERGY     RMS[dD(SAO)]   TOL
  18  -1079.2343896692    -3160.6000976     1234.2089277    0.215D-06 0.523D-14
                            Exc = -107.009066252     Coul =  1341.21799400    
                              N = 100.00047080    
                            current damping = 0.150
 
          Norm of current diis error: 0.18798E-02
          max. resid. norm for Fia-block=  3.668D-05 for orbital     47a         
          max. resid. fock norm         =  7.688D-05 for orbital   5061a         

 ITERATION  ENERGY          1e-ENERGY        2e-ENERGY     RMS[dD(SAO)]   TOL
  19  -1079.2343897733    -3160.6003734     1234.2092035    0.135D-06 0.523D-14
                            Exc = -107.009055746     Coul =  1341.21825927    
                              N = 100.00047081    
                            current damping = 0.200
 
          Norm of current diis error: 0.48175E-03
          max. resid. norm for Fia-block=  1.077D-05 for orbital     40a         
          max. resid. fock norm         =  1.868D-05 for orbital   5062a         

 DENSITY CONVERGED !


 ITERATION  ENERGY          1e-ENERGY        2e-ENERGY     RMS[dD(SAO)]   TOL
  20  -1079.2343897752    -3160.6003295     1234.2091596    0.485D-07 0.523D-14
                            Exc = -107.009026278     Coul =  1341.21818586    
                              N = 100.00047081    
                            current damping = 0.250
 
          Norm of current diis error: 0.36455E-03
          max. resid. norm for Fia-block=  9.674D-06 for orbital     47a         
          max. resid. fock norm         =  1.955D-05 for orbital   5062a         
          mo-orthogonalization: Cholesky decomposition

 DENSITY CONVERGED !


 ITERATION  ENERGY          1e-ENERGY        2e-ENERGY     RMS[dD(SAO)]   TOL
  21  -1079.2343897786    -3160.6004366     1234.2092667    0.411D-07 0.523D-14
                            Exc = -107.009031289     Coul =  1341.21829800    
                              N = 100.00047081    
                            current damping = 0.300
 
          Norm of current diis error: 0.15544E-03
          max. resid. norm for Fia-block=  4.309D-06 for orbital     44a         
          max. resid. fock norm         =  1.083D-05 for orbital   5058a         

 DENSITY CONVERGED !


 ITERATION  ENERGY          1e-ENERGY        2e-ENERGY     RMS[dD(SAO)]   TOL
  22  -1079.2343897787    -3160.6003976     1234.2092276    0.194D-07 0.523D-14
                            Exc = -107.009025215     Coul =  1341.21825286    
                              N = 100.00047081    
                            current damping = 0.350
 
          Norm of current diis error: 0.14740E-03
          max. resid. norm for Fia-block=  2.722D-06 for orbital     44a         
          max. resid. fock norm         =  7.786D-06 for orbital   5059a         

 ENERGY & DENSITY CONVERGED !


 ITERATION  ENERGY          1e-ENERGY        2e-ENERGY     RMS[dD(SAO)]   TOL
  23  -1079.2343512236    -3160.6003772     1234.2092459    0.105D-07 0.523D-14
                            Exc = -107.008990705     Coul =  1341.21823656    
                              N = 100.00000739    
                            current damping = 0.400
 
          Norm of current diis error: 0.34514E-04
          max. resid. norm for Fia-block=  8.194D-07 for orbital     45a         
          max. resid. fock norm         =  1.401D-06 for orbital   5029a         

 End of SCF iterations

   convergence criteria satisfied after   23 iterations


                  ------------------------------------------ 
                 |  total energy      =  -1079.23435122361  |
                  ------------------------------------------ 
                 :  kinetic energy    =   1075.54150324480  :
                 :  potential energy  =  -2154.77585446840  :
                 :  virial theorem    =      1.99657827054  :
                 :  wavefunction norm =      1.00000000000  :
                  .......................................... 


 <geterg> : there is no data group $energy 


 <skperg> : $end is missing 


 orbitals $scfmo  will be written to file mos

    irrep                 46a         47a         48a         49a         50a   
 eigenvalues H         -0.30325    -0.29275    -0.27978    -0.26101    -0.25791
            eV          -8.2520     -7.9663     -7.6134     -7.1024     -7.0181
 occupation              2.0000      2.0000      2.0000      2.0000      2.0000 

    irrep                 51a         52a         53a         54a         55a   
 eigenvalues H         -0.16886    -0.12345    -0.07568    -0.05580    -0.04777
            eV          -4.5949     -3.3593     -2.0593     -1.5183     -1.2999
 
 
 ! grave: sending quit signal to master process
 
 
 
 
 ==============================================================================
                           electrostatic moments
 ==============================================================================

 reference point for electrostatic moments:    0.00000   0.00000   0.00000

 
              nuc           elec       ->  total
 ------------------------------------------------------------------------------
                          charge      
 ------------------------------------------------------------------------------
         100.000000    -100.000000      -0.000000
 
 ------------------------------------------------------------------------------
                       dipole moment  
 ------------------------------------------------------------------------------
   x     528.509005    -526.630663       1.878342
   y     -22.160365      22.011883      -0.148482
   z     -32.856479      32.509016      -0.347463
 
   | dipole moment | =     1.9160 a.u. =     4.8699 debye 
 
 ------------------------------------------------------------------------------
                     quadrupole moment
 ------------------------------------------------------------------------------
  xx    3817.788891   -3858.639441     -40.850550
  yy     456.275472    -517.001512     -60.726040
  zz     939.453762   -1004.038608     -64.584846
  xy    -353.885885     355.316358       1.430473
  xz    -559.348433     560.296338       0.947906
  yz     653.368314    -658.221664      -4.853349
 
     1/3  trace=     -55.387145
     anisotropy=      23.793287
 
 ==============================================================================
 

    ridft profiling
  --------------------------------------------------------------------
             module   cpu total (s)       %  wall total (s)       %

               RIDFT         15424.3  100.00         15447.0  100.00
         Ridft_b_scf           439.0    2.85           438.7    2.84
        b_scf_prelim             0.0    0.00             0.0    0.00
        b_scf_molinp             0.0    0.00             0.0    0.00
         b_scf_init0             0.0    0.00             0.0    0.00
        b_scf_auxbas             0.0    0.00             0.0    0.00
      b_scf_symmetry             0.0    0.00             0.0    0.00
         b_scf_cosmo             0.0    0.00             0.0    0.00
        b_scf_params            32.9    0.21            32.9    0.21
          b_scf_ri-j            95.9    0.62            95.8    0.62
    b_scf_ri-j_auxpq            95.7    0.62            95.6    0.62
     ri-j_auxpq_chol             8.2    0.05             8.2    0.05
         b_scf_1elec             5.2    0.03             5.2    0.03
       b_scf_moinput           304.9    1.98           304.7    1.97
     moinput_orthmos           304.5    1.97           304.3    1.97
    b_scf_dft-dstmax             0.0    0.00             0.0    0.00
           Ridft_scf         14982.6   97.14         15005.6   97.14
          Scf_b_loop             0.0    0.00             0.0    0.00
                noga             0.0    0.00             0.0    0.00
            Scf_loop         14965.0   97.02         14986.6   97.02
     scf_loop_mkdmat            38.5    0.25            38.4    0.25
       scf_loop_ri-j          2851.9   18.49          2849.7   18.45
      parlp1.bc.dens             4.6    0.03             4.6    0.03
        parlp1.gs.gp             0.7    0.00             0.7    0.00
        parlp2.bc.gq             0.0    0.00             0.0    0.00
        scf_loop_dft          7747.7   50.23          7742.2   50.12
      pardft.bc.dens             0.0    0.00             0.0    0.00
        dft_grid_con            51.8    0.34            51.8    0.34
           dft_xcrhf          7617.0   49.38          7611.6   49.28
          dft_getval           141.8    0.92           141.6    0.92
          funct2 dst             1.8    0.01             1.9    0.01
      funct2 f2loop1            25.6    0.17            25.7    0.17
      funct2 f2loop2            59.4    0.39            59.3    0.38
          funct2 s+c            53.2    0.34            53.0    0.34
        funct2 cmf_2            48.4    0.31            48.2    0.31
          dft_mkdens          3432.3   22.25          3430.0   22.21
         dft_gga-fun             1.2    0.01             1.1    0.01
          dft_mkfock          4040.2   26.19          4037.4   26.14
     pardft.red.fock           418.6    2.71           418.3    2.71
     scf_loop_energy             0.6    0.00             0.6    0.00
     scf_loop_mkfock             1.0    0.01             1.0    0.01
       scf_loop_diis          2354.7   15.27          2352.9   15.23
       scf_loop_diag          1235.0    8.01          1234.1    7.99
         diag_tritrn           414.3    2.69           414.0    2.68
          diag_rdiag           818.0    5.30           817.5    5.29
     scf_loop_modump           354.4    2.30           386.5    2.50
      scf_loop_ortho           366.3    2.37           366.1    2.37
          Scf_a_loop            17.6    0.11            19.0    0.12
         Ridft_a_scf             2.7    0.02             2.8    0.02
         a_scf_fanal             2.7    0.02             2.7    0.02
 


    ------------------------------------------------------------------------
         total  cpu-time :  4 hours 17 minutes and 26 seconds
         total wall-time :  4 hours 17 minutes and 48 seconds
    ------------------------------------------------------------------------


   ****  ridft : all done  ****


    2016-01-30 12:40:23.677 

