           Doing BLAS/Lapack in the master proc. with  8 CPUs.
           SMPCPUS    set: Shared-memory Parallelization with   8 CPUs.

           SMP Parallelization Reference:
           C. van Wullen, J. Comput. Chem. 32 (2011) 1195--1201
 operating system is UNIX !

 ridft (c-18-133.gp.local) : TURBOMOLE V7.2 ( 21454 ) 4 Oct 2017 at 12:48:15
 Copyright (C) 2017 TURBOMOLE GmbH, Karlsruhe


    2018-04-28 21:09:20.430 



                                  r i d f t

                        DFT program with RI approximation 
                                for coulomb part 




                                                 
                                 References:     
                                                 
          TURBOMOLE:                             
              R. Ahlrichs, M. Baer, M. Haeser, H. Horn, and
              C. Koelmel
              Electronic structure calculations on workstation
              computers: the program system TURBOMOLE
              Chem. Phys. Lett. 162: 165 (1989)
          Density Functional:                              
              O. Treutler and R. Ahlrichs                      
              Efficient Molecular Numerical Integration Schemes
              J. Chem. Phys. 102: 346 (1995)                   
          Parallel Version:                                
              Performance of parallel TURBOMOLE for Density    
              Functional Calculations                          
              M. v. Arnim and R. Ahlrichs                      
              J. Comp. Chem. 19: 1746 (1998)                   
          RI-J Method:                                     
              Auxiliary Basis Sets to approximate Coulomb      
              Potentials                                       
              Chem. Phys. Lett. 240: 283 (1995)                
              K. Eichkorn, O. Treutler, H. Oehm, M. Haeser     
              and R. Ahlrichs                                  
              Chem. Phys. Lett. 242: 652 (1995)                
                                                           
              Auxiliary Basis Sets for Main Row Atoms and their
              Use to approximate Coulomb Potentials            
              K. Eichkorn, F. Weigend, O. Treutler and         
              R. Ahlrichs                                      
              Theo. Chem. Acc. 97: 119 (1997)                   
                                                           
              Accurate Coulomb-fitting basis sets for H to Rn 
              F. Weigend                                        
              Phys. Chem. Chem. Phys. 8: 1057 (2006)            
                                                           
          Multipole accelerated RI-J (MARI-J):             
              Fast evaluation of the Coulomb potential for     
              electron densities using multipole accelerated   
              resolution of identity approximation             
              M. Sierka, A. Hogekamp and R. Ahlrichs           
              J. Chem. Phys. 118: 9136 (2003)                  
          RI-JK Method:                                     
              A fully direct RI-HF algorithm: Implementation,
              optimised auxiliary basis sets, demonstration of
              accuracy and efficiency                         
              F. Weigend                                      
              Phys. Chem. Chem. Phys. 4: 4285 (2002)           
          Two-component HF and DFT with spin-orbit coupling:  
              Self-consistent treatment of spin-orbit         
              interactions with efficient Hartree-Fock and    
              density functional methods                      
              M. K. Armbruster, F. Weigend, C. van Wüllen and 
              W. Klopper                                      
              Phys. Chem. Chem. Phys. 10: 1748 (2008)         
          Relativistic all-electron 2c calculations           
              An efficient implementation of two-component    
              relativistic exact-decoupling methods for large 
              molecules                                       
              D. Peng, N. Middendorf, F. Weigend, M. Reiher   
              J. Chem. Phys. 138, 184105 (2013)               
                                         




              +--------------------------------------------------+
              |      general information about current run       |
              +--------------------------------------------------+

 

 DENSITY CONVERGENCE CHECK SWITCHED ON !
 SCF CONVERGENCE IF RMS(delta[D]) <     0.1000000000E-06

 TPSS meta-GGA functional
 exchange:    LDA + TPSS
 correlation: LDA (PW) + TPSS
 A DFT calculation using the RI-J approximation will be carried out.
 Allocatable memory for RI due to $ricore (MB):                  5000


              +--------------------------------------------------+
              | Atomic coordinate, charge and isotop information |
              +--------------------------------------------------+

                    atomic coordinates            atom    charge  isotop
          4.42545556   -2.37500800    0.05698091    n      7.000     0
          5.06500751   -0.83990019   -1.85487860    c      6.000     0
          4.03951509   -1.11303739   -3.60359593    h      1.000     0
          6.90055380    1.03496097   -1.66521245    c      6.000     0
          7.32546333    2.21479313   -3.27686669    h      1.000     0
          8.14936055    1.35534786    0.62563534    c      6.000     0
          9.58149695    2.79576767    0.84556947    h      1.000     0
          7.50660250   -0.22250265    2.62708766    c      6.000     0
          8.41856242   -0.05155379    4.44632825    h      1.000     0
          5.64752477   -2.04568965    2.25068562    c      6.000     0
          5.10690373   -3.29999085    3.77495886    h      1.000     0
 
       center of nuclear mass  :    6.27456156   -0.52257774    0.33910340
       center of nuclear charge:    6.31105774   -0.48537569    0.34488490

              +--------------------------------------------------+
              |               basis set information              |
              +--------------------------------------------------+

              we will work with the 1s 3p 5d 7f 9g ... basis set
              ...i.e. with spherical basis functions...

   type   atoms  prim   cont   basis
   ---------------------------------------------------------------------------
    n        1     50     30   cc-pVTZ   [4s3p2d1f|18s5p2d1f]
    c        5     50     30   cc-pVTZ   [4s3p2d1f|18s5p2d1f]
    h        5     16     14   cc-pVTZ   [3s2p1d|5s2p1d]
   ---------------------------------------------------------------------------
   total:   11    380    250
   ---------------------------------------------------------------------------

   total number of primitive shells          :   60
   total number of contracted shells         :   90
   total number of cartesian basis functions :  285
   total number of SCF-basis functions       :  250


 integral neglect threshold       :  0.12E-12
 integral storage threshold THIZE :  0.10E-04
 integral storage threshold THIME :         5

 RI-J AUXILIARY BASIS SET information:

              we will work with the 1s 3p 5d 7f 9g ... basis set
              ...i.e. with spherical basis functions...

   type   atoms  prim   cont   basis
   ---------------------------------------------------------------------------
    n        1     70     49   cc-pVTZ   [6s4p3d1f1g|12s5p4d2f1g]
    c        5     70     49   cc-pVTZ   [6s4p3d1f1g|12s5p4d2f1g]
    h        5     16     11   cc-pVTZ   [3s1p1d|5s2p1d]
   ---------------------------------------------------------------------------
   total:   11    500    349
   ---------------------------------------------------------------------------

   total number of primitive shells          :   56
   total number of contracted shells         :  115
   total number of cartesian basis functions :  426
   total number of SCF-basis functions       :  349


 symmetry group of the molecule :   c1 

 the group has the following generators :
   c1(z)

    1 symmetry operations found

 there are 1 real representations :   a   

 maximum number of shells which are related by symmetry :  1


    mo occupation :
   irrep   mo's   occupied
    a      250       21
 
 number of basis functions   :                    250
 number of occupied orbitals :                     21
 
  
           ------------------
           density functional
           ------------------
 TPSS meta-GGA functional
 exchange:    LDA + TPSS
 correlation: LDA (PW) + TPSS

 iterations will be done with small grid
  
 spherical integration : Lebedev's spherical grid
 spherical gridsize    :                     5
    i.e. gridpoints    :                   590
 value for diffuse not defined
 radial integration    : Chebyshev 2nd kind (scaling 3)
 radial gridsize       :                     8
 integration cells     :                    11
 partition function    : becke
 partition sharpness   :                     3
  

 biggest AO integral is expected to be     4.229423036
  
           ------------------------
               RI-J - INFORMATION
           ------------------------
 Contributions to RI integral batches: 
  neglected integral batches:                   115
  direct contribution:                            0
  memory contribution:                  3980
 Memory core needed for (P|Q) and Cholesky      1 MByte
 Memory core minimum needed except of (P|Q)     1 MByte
 Total minimum memory core needed (sum)         2 MByte
  
 ****************************************
 Memory allocated for RI-J   131 MByte
 ****************************************
                                            

          ------------------------
          nuclear repulsion energy  :   206.234916963    
          ------------------------


         -----------------
         -S,T+V- integrals
         -----------------

 1e-integrals will be neglected if expon. factor < 0.117262E-13
 Difference densities >>NOT<< switched on in parallel ridft!

 DIIS switched on: error vector is FDS-SDF
 Max. Iterations for DIIS is     :   4
 DIIS matrix (see manual) 
    Scaling factor of diagonals  :  1.200
    threshold for scaling factor :  0.000

 scf convergence criterion : increment of total energy < .1000000D-08
                  and increment of one-electron energy < .1000000D-05

  MOs are in ASCII format !


 automatic virtual orbital shift switched on 
      shift if e(lumo)-e(homo) < 0.10000000    


 reading orbital data $scfmo  from file mos
 orbital characterization : expanded
 mo provided and orthogonalized by Cholesky decomposition

 DSCF restart information will be dumped onto file mos


 Starting SCF iterations

          Overall gridpoints after grid construction =         54972

 ITERATION  ENERGY          1e-ENERGY        2e-ENERGY     RMS[dD(SAO)]   TOL
   1  -247.44864486223    -732.94350128     279.25993945    0.000D+00 0.117D-12
                            Exc = -35.1460843784     Coul =  314.406023831    
                              N = 42.000002323    
                            current damping = 0.700
 
          max. resid. norm for Fia-block=  2.810D-01 for orbital     15a         
          max. resid. fock norm         =  5.325D+00 for orbital    230a         

 ITERATION  ENERGY          1e-ENERGY        2e-ENERGY     RMS[dD(SAO)]   TOL
   2  -248.22294110285    -739.19771073     284.73985266    0.433D-02 0.117D-12
                            Exc = -35.6326328158     Coul =  320.372485478    
                              N = 42.000005611    
                            current damping = 0.650
 
          Norm of current diis error:  2.0438    
          max. resid. norm for Fia-block=  1.351D-01 for orbital      1a         
          max. resid. fock norm         =  2.181D-01 for orbital    248a         

 ITERATION  ENERGY          1e-ENERGY        2e-ENERGY     RMS[dD(SAO)]   TOL
   3  -248.36069000459    -740.87235651     286.27674954    0.225D-02 0.117D-12
                            Exc = -35.8400670708     Coul =  322.116816611    
                              N = 42.000006744    
                            current damping = 0.550
 
          Norm of current diis error:  1.0093    
          max. resid. norm for Fia-block=  5.426D-02 for orbital     21a         
          max. resid. fock norm         =  6.050D-02 for orbital      7a         

 ITERATION  ENERGY          1e-ENERGY        2e-ENERGY     RMS[dD(SAO)]   TOL
   4  -248.40495622240    -741.57475326     286.93488008    0.165D-02 0.117D-12
                            Exc = -35.9100552714     Coul =  322.844935349    
                              N = 42.000009552    
                            current damping = 0.450
 
          Norm of current diis error: 0.39825    
          max. resid. norm for Fia-block=  2.715D-02 for orbital      7a         
          max. resid. fock norm         =  4.436D-02 for orbital    247a         

 ITERATION  ENERGY          1e-ENERGY        2e-ENERGY     RMS[dD(SAO)]   TOL
   5  -248.41081123593    -742.27927517     287.63354697    0.728D-03 0.117D-12
                            Exc = -35.9867194317     Coul =  323.620266398    
                              N = 42.000010024    
                            current damping = 0.350
 
          Norm of current diis error: 0.22582    
          max. resid. norm for Fia-block=  1.341D-02 for orbital     21a         
          max. resid. fock norm         =  1.434D-02 for orbital     21a         
          mo-orthogonalization: Cholesky decomposition

 ITERATION  ENERGY          1e-ENERGY        2e-ENERGY     RMS[dD(SAO)]   TOL
   6  -248.41309000723    -742.16061178     287.51260481    0.622D-03 0.117D-12
                            Exc = -35.9782133426     Coul =  323.490818154    
                              N = 42.000011076    
                            current damping = 0.400
 
          Norm of current diis error: 0.10097    
          max. resid. norm for Fia-block=  3.211D-03 for orbital     19a         
          max. resid. fock norm         =  7.311D-03 for orbital    248a         

 ITERATION  ENERGY          1e-ENERGY        2e-ENERGY     RMS[dD(SAO)]   TOL
   7  -248.41349269630    -742.21129660     287.56288694    0.126D-03 0.117D-12
                            Exc = -35.9839946304     Coul =  323.546881567    
                              N = 42.000010908    
                            current damping = 0.450
 
          Norm of current diis error: 0.31740E-01
          max. resid. norm for Fia-block=  1.466D-03 for orbital     13a         
          max. resid. fock norm         =  2.165D-03 for orbital    248a         

 ITERATION  ENERGY          1e-ENERGY        2e-ENERGY     RMS[dD(SAO)]   TOL
   8  -248.41352696496    -742.25020287     287.60175894    0.408D-04 0.117D-12
                            Exc = -35.9877876627     Coul =  323.589546607    
                              N = 42.000011013    
                            current damping = 0.300
 
          Norm of current diis error: 0.11333E-01
          max. resid. norm for Fia-block=  3.514D-04 for orbital     17a         
          max. resid. fock norm         =  5.646D-04 for orbital    112a         

 ITERATION  ENERGY          1e-ENERGY        2e-ENERGY     RMS[dD(SAO)]   TOL
   9  -248.41353229606    -742.25318077     287.60473151    0.159D-04 0.117D-12
                            Exc = -35.9879335189     Coul =  323.592665033    
                              N = 42.000011014    
                            current damping = 0.150
 
          Norm of current diis error: 0.19124E-02
          max. resid. norm for Fia-block=  1.050D-04 for orbital     20a         
          max. resid. fock norm         =  1.511D-04 for orbital     67a         

 ITERATION  ENERGY          1e-ENERGY        2e-ENERGY     RMS[dD(SAO)]   TOL
  10  -248.41353233822    -742.24542476     287.59697546    0.515D-05 0.117D-12
                            Exc = -35.9874760202     Coul =  323.584451480    
                              N = 42.000011013    
                            current damping = 0.200
 
          Norm of current diis error: 0.16731E-02
          max. resid. norm for Fia-block=  5.635D-05 for orbital     20a         
          max. resid. fock norm         =  7.359D-05 for orbital     11a         
          mo-orthogonalization: Cholesky decomposition

 ITERATION  ENERGY          1e-ENERGY        2e-ENERGY     RMS[dD(SAO)]   TOL
  11  -248.41353243344    -742.24837340     287.59992400    0.224D-05 0.117D-12
                            Exc = -35.9876606756     Coul =  323.587584676    
                              N = 42.000011013    
                            current damping = 0.250
 
          Norm of current diis error: 0.63698E-03
          max. resid. norm for Fia-block=  2.654D-05 for orbital     19a         
          max. resid. fock norm         =  4.242D-05 for orbital    247a         

 ITERATION  ENERGY          1e-ENERGY        2e-ENERGY     RMS[dD(SAO)]   TOL
  12  -248.41353244550    -742.24885474     287.60040533    0.116D-05 0.117D-12
                            Exc = -35.9876783748     Coul =  323.588083703    
                              N = 42.000011016    
                            current damping = 0.100
 
          Norm of current diis error: 0.35300E-03
          max. resid. norm for Fia-block=  1.288D-05 for orbital     19a         
          max. resid. fock norm         =  1.932D-05 for orbital    247a         

 ITERATION  ENERGY          1e-ENERGY        2e-ENERGY     RMS[dD(SAO)]   TOL
  13  -248.41353244998    -742.24912364     287.60067423    0.572D-06 0.117D-12
                            Exc = -35.9877089629     Coul =  323.588383193    
                              N = 42.000011015    
                            current damping = 0.050
 
          Norm of current diis error: 0.13972E-03
          max. resid. norm for Fia-block=  5.672D-06 for orbital     19a         
          max. resid. fock norm         =  7.591D-06 for orbital    247a         

 ITERATION  ENERGY          1e-ENERGY        2e-ENERGY     RMS[dD(SAO)]   TOL
  14  -248.41353245063    -742.24879741     287.60034799    0.273D-06 0.117D-12
                            Exc = -35.9876810624     Coul =  323.588029056    
                              N = 42.000011015    
                            current damping = 0.100
 
          Norm of current diis error: 0.68901E-04
          max. resid. norm for Fia-block=  2.011D-06 for orbital     13a         
          max. resid. fock norm         =  2.699D-06 for orbital    249a         

 DENSITY CONVERGED !


 ITERATION  ENERGY          1e-ENERGY        2e-ENERGY     RMS[dD(SAO)]   TOL
  15  -248.41353245082    -742.24886873     287.60041932    0.861D-07 0.117D-12
                            Exc = -35.9876876584     Coul =  323.588106974    
                              N = 42.000011015    
                            current damping = 0.150
 
          Norm of current diis error: 0.17148E-04
          max. resid. norm for Fia-block=  8.403D-07 for orbital     20a         
          max. resid. fock norm         =  1.115D-06 for orbital    249a         
          mo-orthogonalization: Cholesky decomposition

 DENSITY CONVERGED !


 ITERATION  ENERGY          1e-ENERGY        2e-ENERGY     RMS[dD(SAO)]   TOL
  16  -248.41353245083    -742.24890703     287.60045762    0.284D-07 0.117D-12
                            Exc = -35.9876898663     Coul =  323.588147486    
                              N = 42.000011015    
                            current damping = 0.050
 
          Norm of current diis error: 0.11320E-04
          max. resid. norm for Fia-block=  3.153D-07 for orbital     20a         
          max. resid. fock norm         =  4.616D-07 for orbital    112a         

 ENERGY & DENSITY CONVERGED !

          Overall gridpoints after grid construction =        176673

 ITERATION  ENERGY          1e-ENERGY        2e-ENERGY     RMS[dD(SAO)]   TOL
  17  -248.41338438061    -742.24889003     287.60058869    0.132D-07 0.117D-12
                            Exc = -35.9875409380     Coul =  323.588129625    
                              N = 42.000000417    
                            current damping = 0.100
 
          Norm of current diis error: 0.35384E-05
          max. resid. norm for Fia-block=  1.126D-07 for orbital     20a         
          max. resid. fock norm         =  2.018D-07 for orbital      6a         

 End of SCF iterations

   convergence criteria satisfied after    17 iterations


                  ------------------------------------------ 
                 |  total energy      =   -248.41338438061  |
                  ------------------------------------------ 
                 :  kinetic energy    =    247.03181168792  :
                 :  potential energy  =   -495.44519606853  :
                 :  virial theorem    =      1.99443841282  :
                 :  wavefunction norm =      1.00000000000  :
                  .......................................... 


 <geterg> : there is no data group $energy 


 <skperg> : $end is missing 


 orbitals $scfmo  will be written to file mos

    irrep                 17a         18a         19a         20a         21a   
 eigenvalues H         -0.36375    -0.32719    -0.26492    -0.24285    -0.21858
            eV          -9.8982     -8.9035     -7.2090     -6.6083     -5.9478
 occupation              2.0000      2.0000      2.0000      2.0000      2.0000 

    irrep                 22a         23a         24a         25a         26a   
 eigenvalues H         -0.05854    -0.04443     0.03141     0.05985     0.07274
            eV          -1.5928     -1.2090      0.8547      1.6286      1.9793
 
 
 
 
 ==============================================================================
                           electrostatic moments
 ==============================================================================

 reference point for electrostatic moments:    0.00000   0.00000   0.00000

 
              nuc           elec       ->  total
 ------------------------------------------------------------------------------
                          charge      
 ------------------------------------------------------------------------------
          42.000000     -42.000000      -0.000000
 
 ------------------------------------------------------------------------------
                       dipole moment  
 ------------------------------------------------------------------------------
   x     265.064425    -264.476011       0.588414
   y     -20.385779      20.981567       0.595788
   z      14.485166     -14.393971       0.091195
 
   | dipole moment | =     0.8423 a.u. =     2.1410 debye 
 
 ------------------------------------------------------------------------------
                     quadrupole moment
 ------------------------------------------------------------------------------
  xx    1763.396266   -1783.163592     -19.767326
  yy     111.425103    -138.859299     -27.434196
  zz     169.914236    -192.371240     -22.457004
  xy     -48.086699      51.756088       3.669389
  xz     127.879512    -126.285809       1.593703
  yz     -41.554305      40.246127      -1.308178
 
     1/3  trace=     -23.219509
     anisotropy=       9.926770
 
 ==============================================================================
 


    ------------------------------------------------------------------------
         total  cpu-time :  2 minutes and 45 seconds
         total wall-time :  15.77 seconds
    ------------------------------------------------------------------------

   ****  ridft : all done  ****


    2018-04-28 21:09:36.193 

