Using Slurm to start processes with PMI2
STARTING ridft ON 8 PROCESSORS!
RUNNING PROGRAM /beegfs/modfac/apps/TURBOMOLE/7.0_intel_GA/bin/em64t-unknown-linux-gnu_mpi/ridft_mpi.
PLEASE WAIT UNTIL ridft HAS FINISHED.
Look for the output in slave1.output.
  this is node-proc. number 1 running on node c-16-32.local
  the total number of node-proc. spawned is            8
  parallel platform: MPP, or cluster with fast interconnect

 data group $actual step is not empty 
 due to the abend of ridft


 ridft (c-16-32.local) : TURBOMOLE V7.0.2( ) 15 Jan 2016 at 17:47:42
 Copyright (C) 2016 TURBOMOLE GmbH, Karlsruhe


    2017-12-26 11:15:39.782 



                                  r i d f t

                        DFT program with RI approximation 
                                for coulomb part 




                                                 
                                 References:     
                                                 
          TURBOMOLE:                             
              R. Ahlrichs, M. Baer, M. Haeser, H. Horn, and
              C. Koelmel
              Electronic structure calculations on workstation
              computers: the program system TURBOMOLE
              Chem. Phys. Lett. 162: 165 (1989)
          Density Functional:                              
              O. Treutler and R. Ahlrichs                      
              Efficient Molecular Numerical Integration Schemes
              J. Chem. Phys. 102: 346 (1995)                   
          Parallel Version:                                
              Performance of parallel TURBOMOLE for Density    
              Functional Calculations                          
              M. v. Arnim and R. Ahlrichs                      
              J. Comp. Chem. 19: 1746 (1998)                   
          RI-J Method:                                     
              Auxiliary Basis Sets to approximate Coulomb      
              Potentials                                       
              Chem. Phys. Lett. 240: 283 (1995)                
              K. Eichkorn, O. Treutler, H. Oehm, M. Haeser     
              and R. Ahlrichs                                  
              Chem. Phys. Lett. 242: 652 (1995)                
                                                           
              Auxiliary Basis Sets for Main Row Atoms and their
              Use to approximate Coulomb Potentials            
              K. Eichkorn, F. Weigend, O. Treutler and         
              R. Ahlrichs                                      
              Theo. Chem. Acc. 97: 119 (1997)                   
                                                           
              Accurate Coulomb-fitting basis sets for H to Rn 
              F. Weigend                                        
              Phys. Chem. Chem. Phys. 8: 1057 (2006)            
                                                           
          Multipole accelerated RI-J (MARI-J):             
              Fast evaluation of the Coulomb potential for     
              electron densities using multipole accelerated   
              resolution of identity approximation             
              M. Sierka, A. Hogekamp and R. Ahlrichs           
              J. Chem. Phys. 118: 9136 (2003)                  
          RI-JK Method:                                     
              A fully direct RI-HF algorithm: Implementation,
              optimised auxiliary basis sets, demonstration of
              accuracy and efficiency                         
              F. Weigend                                      
              Phys. Chem. Chem. Phys. 4: 4285 (2002)           
          Two-component HF and DFT with spin-orbit coupling:  
              Self-consistent treatment of spin-orbit         
              interactions with efficient Hartree-Fock and    
              density functional methods                      
              M. K. Armbruster, F. Weigend, C. van Wüllen and 
              W. Klopper                                      
              Phys. Chem. Chem. Phys. 10: 1748 (2008)         
          Relativistic all-electron 2c calculations           
              An efficient implementation of two-component    
              relativistic exact-decoupling methods for large 
              molecules                                       
              D. Peng, N. Middendorf, F. Weigend, M. Reiher   
              J. Chem. Phys. 138, 184105 (2013)               
                                         


 


              +--------------------------------------------------+
              |      general information about current run       |
              +--------------------------------------------------+

 

 SCF run will be profiled !


 DENSITY CONVERGENCE CHECK SWITCHED ON !
 SCF CONVERGENCE IF RMS(delta[D]) <     0.1000000000E-06

 PBE functional
 exchange:    LDA + PBE
 correlation: LDA (PW) + PBE
 A DFT calculation using the RI-J approximation will be carried out.
 Allocatable memory for RI due to $ricore (MB):       20000


              +--------------------------------------------------+
              | Atomic coordinate, charge and isotop information |
              +--------------------------------------------------+

                    atomic coordinates            atom    charge  isotop
        -18.35770742   -1.94309472    0.56191221    c      0.000     0
        -18.48107280   -0.55540222    2.83683559    c      0.000     0
        -18.36433847    2.05886685    2.81663289    c      0.000     0
        -18.12722461    3.39958104    0.52084437    c      0.000     0
        -18.20604774    2.01812480   -1.76356100    c      0.000     0
        -18.31674059   -0.59432871   -1.74309254    c      0.000     0
        -17.98390341   -4.58884356    0.57219751    c      0.000     0
        -17.27230814   -6.78238142    0.54999933    c      0.000     0
        -17.55914761    6.01014642    0.49903285    c      0.000     0
        -16.71661922    8.15632272    0.46118011    c      0.000     0
        -15.34640902   10.44951988    0.41462146    c      0.000     0
        -14.48561251   11.57353691    2.67712163    c      0.000     0
        -12.76127741   13.54022146    2.62329837    c      0.000     0
        -11.82099566   14.46775037    0.30501460    c      0.000     0
        -12.84153963   13.48421647   -1.95831047    c      0.000     0
        -14.56630607   11.51899834   -1.90483090    c      0.000     0
        -16.03477029   -9.14932735    0.47558207    c      0.000     0
        -15.58450422  -10.56481372    2.69142249    c      0.000     0
        -13.99853233  -12.64595704    2.65100206    c      0.000     0
        -12.79578088  -13.40200072    0.39302705    c      0.000     0
        -13.40124477  -12.10090185   -1.86020103    c      0.000     0
        -14.98344560  -10.02198214   -1.81974043    c      0.000     0
         -9.71716173   16.11328163    0.24182774    c      0.000     0
         -7.68297900   17.19801537    0.17983715    c      0.000     0
         -5.14551272   18.03068659    0.11155987    c      0.000     0
         -3.77415138   18.41986839    2.36873547    c      0.000     0
         -1.18426757   18.77601439    2.31485465    c      0.000     0
          0.14793449   18.75409479    0.00227570    c      0.000     0
         -1.25242696   18.57254905   -2.26408366    c      0.000     0
         -3.84208180   18.22053219   -2.21047609    c      0.000     0
         12.02288387   14.20841782   -0.26524471    c      0.000     0
         10.86806916   15.02104009   -2.53007911    c      0.000     0
          8.67241067   16.44115009   -2.47721568    c      0.000     0
          7.53622420   17.11300348   -0.15797472    c      0.000     0
          8.80875428   16.48216013    2.10313620    c      0.000     0
         11.00421064   15.06147084    2.05072061    c      0.000     0
          5.06622340   18.12864984   -0.09648337    c      0.000     0
          2.81621767   18.63156089   -0.04355456    c      0.000     0
         17.79551854    4.31162921    1.78732930    c      0.000     0
         16.99775894    6.80101776    1.84435228    c      0.000     0
         16.56691673    8.14858847   -0.42044487    c      0.000     0
         17.15551000    6.95337135   -2.73326926    c      0.000     0
         17.96008680    4.46397645   -2.79017824    c      0.000     0
         13.95808677   12.36708609   -0.31195842    c      0.000     0
         15.33560664   10.51882766   -0.36836850    c      0.000     0
         18.20274572    3.05884355   -0.53598747    c      0.000     0
        -10.84039381  -15.22283201    0.38505760    c      0.000     0
         -8.90591162  -16.47722246    0.33279698    c      0.000     0
         -6.45765547  -17.54226403    0.25023861    c      0.000     0
         -5.18932885  -17.82283804   -2.08307361    c      0.000     0
         -2.64783371  -18.43019759   -2.16217114    c      0.000     0
         -1.25753565  -18.77493286    0.09085682    c      0.000     0
         -2.57149266  -18.69273457    2.41243937    c      0.000     0
         -5.11635519  -18.09006750    2.49068932    c      0.000     0
         15.89477762   -9.46793187   -0.47748321    c      0.000     0
         16.88357038   -8.41800478   -2.72112498    c      0.000     0
         17.85565968   -5.98815818   -2.74739683    c      0.000     0
         17.87818201   -4.50398763   -0.53143441    c      0.000     0
         17.05896761   -5.62344703    1.75171119    c      0.000     0
         16.09068318   -8.04977482    1.77820292    c      0.000     0
         18.44689338   -1.89385020   -0.58905463    c      0.000     0
         18.54818107    0.40991540   -0.58349521    c      0.000     0
          6.22394343  -17.73366396   -0.14944749    c      0.000     0
          7.49640841  -17.04824705    2.09526852    c      0.000     0
          9.78406004  -15.78595984    2.00105419    c      0.000     0
         10.90687032  -15.16000598   -0.34002334    c      0.000     0
          9.73308405  -16.02149880   -2.57506720    c      0.000     0
          7.44021018  -17.27818533   -2.48111483    c      0.000     0
          3.69171802  -18.58049875   -0.06348119    c      0.000     0
          1.41011287  -18.90120425    0.02217273    c      0.000     0
         12.98302616  -13.48133993   -0.42876781    c      0.000     0
         14.50534777  -11.75012662   -0.48161271    c      0.000     0
        -18.53659169   -1.56747481    4.61894793    h      0.000     0
        -18.33442553    3.09987277    4.58267946    h      0.000     0
        -18.08015580    3.03044818   -3.54302831    h      0.000     0
        -18.27298197   -1.64100494   -3.50646698    h      0.000     0
        -15.09743076   10.79042815    4.47046829    h      0.000     0
        -12.01750710   14.30308314    4.37482612    h      0.000     0
        -12.17370313   14.21999581   -3.75253259    h      0.000     0
        -15.26029161   10.70978027   -3.65726517    h      0.000     0
        -16.40953093   -9.93557072    4.46003031    h      0.000     0
        -13.57975038  -13.65252943    4.38768069    h      0.000     0
        -12.52928417  -12.70001888   -3.61741908    h      0.000     0
        -15.36086121   -8.97934300   -3.54529172    h      0.000     0
         -4.76415521   18.32436653    4.16217077    h      0.000     0
         -0.13411687   18.96283666    4.06644513    h      0.000     0
         -0.25251406   18.60316794   -4.05439210    h      0.000     0
         -4.88492438   17.97493712   -3.95928398    h      0.000     0
         11.65434631   14.40691093   -4.32125047    h      0.000     0
          7.73343947   16.94838921   -4.22768136    h      0.000     0
          7.98179736   17.03404647    3.89696870    h      0.000     0
         11.90763614   14.49749955    3.80372576    h      0.000     0
         18.02424745    3.26284701    3.53515468    h      0.000     0
         16.60180538    7.71565934    3.63706403    h      0.000     0
         16.85854977    7.97760111   -4.48443179    h      0.000     0
         18.28834233    3.53085986   -4.58596487    h      0.000     0
         -6.21401976  -17.45205798   -3.82037455    h      0.000     0
         -1.66725697  -18.53243507   -3.96016945    h      0.000     0
         -1.53365953  -19.00078965    4.15439892    h      0.000     0
         -6.07891475  -17.92015024    4.29316428    h      0.000     0
         16.77365871   -9.49923055   -4.45982600    h      0.000     0
         18.51018455   -5.16226740   -4.50626371    h      0.000     0
         17.11797993   -4.51681405    3.47777112    h      0.000     0
         15.38620004   -8.86098301    3.52550669    h      0.000     0
          6.60334941  -17.43082631    3.90140124    h      0.000     0
         10.69407518  -15.17322462    3.73400805    h      0.000     0
         10.59085027  -15.57936709   -4.38397554    h      0.000     0
          6.49769379  -17.82787518   -4.21738289    h      0.000     0
         -5.14271249  -10.92553852    3.60735870    c      6.000     0
         -8.71140687    8.64308238    0.18440239    c      6.000     0
         -6.26427446  -10.51978527   -0.81948698    c      6.000     0
          5.03091243   10.89172041   -3.85295868    c      6.000     0
          7.85551607   -9.06492830   -4.52358662    c      6.000     0
         -7.72095841    9.09905804    4.63838783    c      6.000     0
          8.69405603   -8.67649640   -0.03279365    c      6.000     0
          6.22082431   10.55701477    0.56205403    c      6.000     0
          6.66025349  -10.23257497    0.48328731    c      6.000     0
         -6.71702076   10.21589345   -0.42228898    c      6.000     0
          3.90446246   11.54257621    1.26246007    c      6.000     0
          5.81118932  -10.61418430   -4.00540640    c      6.000     0
         -2.80877645  -11.89050886    2.92403593    c      6.000     0
         -3.93724415  -11.49239778   -1.50045004    c      6.000     0
         -5.71713412   10.66916827    4.02847160    c      6.000     0
          2.70980506   11.87330489   -3.15055171    c      6.000     0
         12.14120112    0.28825872   -0.96333013    c      6.000     0
         11.42552060    2.91624499   -5.48598930    c      6.000     0
         11.80954396    0.32588795   -5.53669877    c      6.000     0
         11.75946970    2.87012214   -0.91273472    c      6.000     0
        -11.72923957   -0.42055717    5.61854780    c      6.000     0
        -11.40481303   -3.01470052    5.45531159    c      6.000     0
        -12.12687872   -0.18988633    1.05557346    c      6.000     0
        -11.80702262   -2.77490045    0.89397842    c      6.000     0
        -11.28241871   -4.21813519    3.07839471    c      6.000     0
        -11.94403153    1.05731870    3.41011600    c      6.000     0
         12.01763860   -1.05834307   -3.26587095    c      6.000     0
         11.24302359    4.21228105   -3.16315747    c      6.000     0
         -5.08302021   11.13049720    1.47881351    c      6.000     0
         -2.10341191  -12.05138244    0.35704219    c      6.000     0
          5.08432972  -11.10611562   -1.48653180    c      6.000     0
          2.04457093   12.07337109   -0.57429758    c      6.000     0
          6.77139640   10.07356632   -2.00400030    c      6.000     0
         -9.15927255    7.93366169    2.71868280    c      6.000     0
          9.23935209   -7.93972528   -2.53928985    c      6.000     0
         -6.85331178  -10.07698716    1.74599977    c      6.000     0
         -2.69407578   12.11310960    0.80777697    c      6.000     0
          2.66795177  -12.08350027   -0.91191107    c      6.000     0
          0.45480331  -12.37180606   -0.33215386    c      6.000     0
         -0.50076958   12.40087235    0.15789222    c      6.000     0
          8.81307293    8.47112736   -2.62936607    c      6.000     0
        -10.72445343    5.83045026    3.22320456    c      6.000     0
         10.82021261   -5.83361967   -2.97788743    c      6.000     0
         -8.89226949   -8.47485062    2.37700974    c      6.000     0
         11.68157768   -3.70646284   -3.20828749    c      6.000     0
         10.19840401    6.66386211   -2.99395456    c      6.000     0
        -11.58911382    3.70359283    3.44127198    c      6.000     0
        -10.26396689   -6.66979343    2.79929391    c      6.000     0
         -8.10532108    8.63251507    6.59845336    h      1.000     0
         -5.61439000  -10.67115649    5.58709124    h      1.000     0
          7.59263175   10.02460054    1.98865399    h      1.000     0
         -7.61515050   -9.96014239   -2.25656433    h      1.000     0
         -9.87909332    7.83526612   -1.29317760    h      1.000     0
          5.47334994   10.60785464   -5.83559510    h      1.000     0
          9.81365696   -7.89429807    1.49611278    h      1.000     0
          8.31062391   -8.57297783   -6.46212880    h      1.000     0
         -1.44337033  -12.40694519    4.36405613    h      1.000     0
         -4.52072000   11.43627459    5.50731841    h      1.000     0
         -3.44221368  -11.69854569   -3.47951997    h      1.000     0
         -6.30322300   10.65131754   -2.38273858    h      1.000     0
          6.16755344  -10.68019026    2.42200636    h      1.000     0
          3.44266975   11.78639370    3.24541212    h      1.000     0
          1.32014166   12.36171522   -4.57769948    h      1.000     0
          4.66205679  -11.35069385   -5.53631668    h      1.000     0
         11.79106963   -0.68253168   -7.32272350    h      1.000     0
         12.40570592   -0.75340841    0.78220912    h      1.000     0
        -11.08267131   -4.12071956    7.15245733    h      1.000     0
        -11.66769910    0.51182163    7.44447859    h      1.000     0
        -12.39995091    0.92634926   -0.64111434    h      1.000     0
        -11.82318627   -3.70802322   -0.93121647    h      1.000     0
         11.72548411    3.87606612    0.87252035    h      1.000     0
         11.11223630    3.94479967   -7.23280780    h      1.000     0
 
       center of nuclear mass  :    0.00027642   -0.00041108    0.00008368
       center of nuclear charge:   -0.00253482    0.00316832   -0.02048889

              +--------------------------------------------------+
              |               basis set information              |
              +--------------------------------------------------+

              we will work with the 1s 3p 5d 7f 9g ... basis set
              ...i.e. with spherical basis functions...

   type   atoms  prim   cont   basis
   ---------------------------------------------------------------------------
    c      120     77     55   cc-pVQZ   [5s4p3d2f1g|21s6p3d2f1g]
    h       60     32     30   cc-pVQZ   [4s3p2d1f|6s3p2d1f]
   ---------------------------------------------------------------------------
   total:  180  11160   8400
   ---------------------------------------------------------------------------

   total number of primitive shells          :   45
   total number of contracted shells         : 2400
   total number of cartesian basis functions :10500
   total number of SCF-basis functions       : 8400


 integral neglect threshold       :  0.32E-14
 integral storage threshold THIZE :  0.10E-04
 integral storage threshold THIME :         5

 RI-J AUXILIARY BASIS SET information:

              we will work with the 1s 3p 5d 7f 9g ... basis set
              ...i.e. with spherical basis functions...

   type   atoms  prim   cont   basis
   ---------------------------------------------------------------------------
    c      120     70     49   cc-pVQZ   [6s4p3d1f1g|12s5p4d2f1g]
    h       60     16     11   cc-pVQZ   [3s1p1d|5s2p1d]
   ---------------------------------------------------------------------------
   total:  180   9360   6540
   ---------------------------------------------------------------------------

   total number of primitive shells          :   32
   total number of contracted shells         : 2100
   total number of cartesian basis functions : 8040
   total number of SCF-basis functions       : 6540


 symmetry group of the molecule :   c1 

 the group has the following generators :
   c1(z)

    1 symmetry operations found

 there are 1 real representations :   a   

 maximum number of shells which are related by symmetry :  1


    mo occupation :
   irrep   mo's   occupied
    a     8400      156
 
 number of basis functions   :         8400
 number of occupied orbitals :          156
 
  
           ------------------
           density functional
           ------------------
 Dummy atoms with grid-point found.
 DFT quadrature threshold dgrenze tightened by factor 1/10.

 PBE functional
 exchange:    LDA + PBE
 correlation: LDA (PW) + PBE
 Dummy atoms with grid-point found.
 DFT quadrature threshold dgrenze tightened by factor 1/10.

 Dummy atoms with grid-point found.
 DFT quadrature threshold dgrenze tightened by factor 1/10.

 grinp -> nfun, dfgga, dfhybrid 
           6 T F
 iterations will be done with small grid
  
 spherical integration : Lebedev's spherical grid
 spherical gridsize    :           5
    i.e. gridpoints    :         590
 value for diffuse not defined
 radial integration    : Chebyshev 2nd kind (scaling 3)
 radial gridsize       :           8
 integration cells     :         180
 partition function    : becke
 partition sharpness   :           3
  
 found dummy atom(s) with basis: included in dft

 <rddim> : input of entry tasksize
           from data group '$pardft' failed !

               Default values taken

 <rddim> : input of entry memdiv
           from data group '$pardft' failed !

               Default values taken
  RIDFT: memory allocation for DFT gridpoints
  MEMORY is divided by 1 as DEFAULT
 Each node can hold at most  the            1 -th part
 of the gridpoints    

 biggest AO integral is expected to be     3.537514283
  
           ------------------------
               RI-J - INFORMATION
           ------------------------
 
 
 **************************************************
 *      MEMORY ALLOCATION FOR PARALLEL RI-DFT     *
 **************************************************
 
 
MEMORY FOR (MU NU/ ALPHA), SEQUENTIAL RUN              19661 MByte
 
            DIFFERENCE IN MEMORY NEED:       DIAG./SLAVE  
 
      TOTAL DIFFERENCE :                   3205 MByte
 
      difference in xcore:                  339 MByte
      difference in fatmat:                 948 MByte
      getcor calls skipped by slaves:      1919 MByte
 
 
           Integral memory available for diagonal.     19661 MByte
 
           Integral memory available for slave             0 MByte
 
         MEMORY FOR (MU NU/ ALPHA) ON DIAGONALIZER     19661 MByte
 
         MEMORY FOR (MU NU/ ALPHA) ON ONE SLAVE            0 MByte
 
         TOTAL MEMORY FOR (MU NU/ ALPHA),ALL NODES     19661 MByte
 
 Contributions to RI integral batches: 
  neglected integral batches:     2373289
  direct contribution:             433012
  memory contribution:       74899
 Memory core needed for (P|Q) and Cholesky    327 MByte
 Memory core minimum needed except of (P|Q)    15 MByte
 Total minimum memory core needed (sum)       341 MByte
     number of direct tasks:         160
  
 ****************************************
 Memory allocated for RI-J 20002 MByte
 ****************************************
                                            

          ------------------------
          nuclear repulsion energy  :   4289.35188842    
          ------------------------

 
          -----------------
          -S integrals
          -----------------

 1e-integrals will be neglected if expon. factor < 0.318282E-15
 
          -----------------
          -T+V integrals
          -----------------

 1e-integrals will be neglected if expon. factor < 0.318282E-15
 Difference densities >>NOT<< switched on in parallel ridft!

 automatic virtual orbital shift switched on 
      shift if e(lumo)-e(homo) < 0.10000000    


 DIIS switched on: error vector is FDS-SDF
 Max. Iterations for DIIS is     :   4
 DIIS matrix (see manual) 
    Scaling factor of diagonals  :  1.200
    threshold for scaling factor :  0.000

 scf convergence criterion : increment of total energy < .1000000D-08
                  and increment of one-electron energy < .1000000D-05


 <geterg> : there is no data group $energy 

  MOs are in ASCII format !


 reading orbital data $scfmo  from file mos . 

 orbital characterization : expanded
 
 mo provided and orthogonalized by Cholesky decomposition

 DSCF restart information will be dumped onto file mos


 Starting SCF iterations


 ITERATION  ENERGY          1e-ENERGY        2e-ENERGY     RMS[dD(SAO)]   TOL
   1  -1835.6063132103    -10940.244798     4815.2865967    0.000D+00 0.317D-14
                            Exc = -259.809037902     Coul =  5075.09563460    
                              N = 312.00050026    
                            current damping = 0.700
 
          max. resid. norm for Fia-block=  2.981D-01 for orbital      7a         
          max. resid. fock norm         =  1.680D+01 for orbital   7570a         

 ITERATION  ENERGY          1e-ENERGY        2e-ENERGY     RMS[dD(SAO)]   TOL
   2  -1840.3231595249    -10994.435381     4864.7603330    0.895D-02 0.317D-14
                            Exc = -264.555927238     Coul =  5129.31626021    
                              N = 312.00042407    
                            current damping = 0.650
 
          Norm of current diis error:  7.7836    
          max. resid. norm for Fia-block=  1.335D-01 for orbital     47a         
          max. resid. fock norm         =  1.451D-01 for orbital    291a         

 ITERATION  ENERGY          1e-ENERGY        2e-ENERGY     RMS[dD(SAO)]   TOL
   3  -1841.2768426884    -11006.745453     4876.1167217    0.219D-02 0.317D-14
                            Exc = -265.819373911     Coul =  5141.93609556    
                              N = 312.00041155    
                            current damping = 0.550
 
          Norm of current diis error:  3.7138    
          max. resid. norm for Fia-block=  5.644D-02 for orbital     44a         
          max. resid. fock norm         =  6.440D-02 for orbital     54a         

 ITERATION  ENERGY          1e-ENERGY        2e-ENERGY     RMS[dD(SAO)]   TOL
   4  -1841.5518607336    -11016.296586     4885.3928370    0.519D-03 0.317D-14
                            Exc = -266.609115716     Coul =  5152.00195270    
                              N = 312.00041926    
                            current damping = 0.450
 
          Norm of current diis error:  1.4052    
          max. resid. norm for Fia-block=  2.191D-02 for orbital     54a         
          max. resid. fock norm         =  2.947D-02 for orbital     72a         

 ITERATION  ENERGY          1e-ENERGY        2e-ENERGY     RMS[dD(SAO)]   TOL
   5  -1841.5968387198    -11017.865592     4886.9168646    0.240D-03 0.317D-14
                            Exc = -266.877571227     Coul =  5153.79443580    
                              N = 312.00042320    
                            current damping = 0.350
 
          Norm of current diis error: 0.64447    
          max. resid. norm for Fia-block=  8.976D-03 for orbital    102a         
          max. resid. fock norm         =  1.269D-02 for orbital   8291a         
          irrep a   : virtual orbitals shifted by    0.00829
          mo-orthogonalization: Cholesky decomposition

 ITERATION  ENERGY          1e-ENERGY        2e-ENERGY     RMS[dD(SAO)]   TOL
   6  -1841.6052366362    -11020.167269     4889.2101444    0.112D-03 0.317D-14
                            Exc = -267.028240235     Coul =  5156.23838466    
                              N = 312.00043000    
                            current damping = 0.250
 
          Norm of current diis error: 0.28931    
          max. resid. norm for Fia-block=  3.373D-03 for orbital     96a         
          max. resid. fock norm         =  6.200D-03 for orbital   8290a         
          irrep a   : virtual orbitals shifted by    0.02516

 ITERATION  ENERGY          1e-ENERGY        2e-ENERGY     RMS[dD(SAO)]   TOL
   7  -1841.6071722214    -11019.901694     4888.9426338    0.450D-04 0.317D-14
                            Exc = -267.032339046     Coul =  5155.97497281    
                              N = 312.00042951    
                            current damping = 0.300
 
          Norm of current diis error: 0.61860E-01
          max. resid. norm for Fia-block=  8.999D-04 for orbital    102a         
          max. resid. fock norm         =  1.957D-03 for orbital   8321a         
          irrep a   : virtual orbitals shifted by    0.02452

 ITERATION  ENERGY          1e-ENERGY        2e-ENERGY     RMS[dD(SAO)]   TOL
   8  -1841.6072185926    -11019.887084     4888.9279769    0.111D-04 0.317D-14
                            Exc = -267.037927005     Coul =  5155.96590394    
                              N = 312.00043005    
                            current damping = 0.150
 
          Norm of current diis error: 0.45726E-01
          max. resid. norm for Fia-block=  3.651D-04 for orbital    101a         
          max. resid. fock norm         =  8.670D-04 for orbital   8320a         
          irrep a   : virtual orbitals shifted by    0.03374

 ITERATION  ENERGY          1e-ENERGY        2e-ENERGY     RMS[dD(SAO)]   TOL
   9  -1841.6072602489    -11019.956026     4888.9968771    0.356D-05 0.317D-14
                            Exc = -267.040630853     Coul =  5156.03750794    
                              N = 312.00043025    
                            current damping = 0.200
 
          Norm of current diis error: 0.11631E-01
          max. resid. norm for Fia-block=  1.783D-04 for orbital    156a         
          max. resid. fock norm         =  4.515D-04 for orbital   8312a         
          irrep a   : virtual orbitals shifted by    0.03092

 ITERATION  ENERGY          1e-ENERGY        2e-ENERGY     RMS[dD(SAO)]   TOL
  10  -1841.6072581255    -11019.981346     4889.0221997    0.103D-05 0.317D-14
                            Exc = -267.041115120     Coul =  5156.06331479    
                              N = 312.00043016    
                            current damping = 0.250
 
          Norm of current diis error: 0.15338E-01
          max. resid. norm for Fia-block=  8.804D-05 for orbital    145a         
          max. resid. fock norm         =  2.429D-04 for orbital     47a         
          irrep a   : virtual orbitals shifted by    0.02805
          mo-orthogonalization: Cholesky decomposition

 ITERATION  ENERGY          1e-ENERGY        2e-ENERGY     RMS[dD(SAO)]   TOL
  11  -1841.6072626261    -11019.965010     4889.0058593    0.507D-06 0.317D-14
                            Exc = -267.040495396     Coul =  5156.04635470    
                              N = 312.00043018    
                            current damping = 0.300
 
          Norm of current diis error: 0.50993E-02
          max. resid. norm for Fia-block=  4.483D-05 for orbital    155a         
          max. resid. fock norm         =  1.126D-04 for orbital   8300a         
          irrep a   : virtual orbitals shifted by    0.02518

 ITERATION  ENERGY          1e-ENERGY        2e-ENERGY     RMS[dD(SAO)]   TOL
  12  -1841.6072631190    -11019.959696     4889.0005444    0.302D-06 0.317D-14
                            Exc = -267.040405405     Coul =  5156.04094982    
                              N = 312.00043021    
                            current damping = 0.150
 
          Norm of current diis error: 0.20461E-02
          max. resid. norm for Fia-block=  2.452D-05 for orbital    145a         
          max. resid. fock norm         =  6.334D-05 for orbital     44a         
          irrep a   : virtual orbitals shifted by    0.03381

 ITERATION  ENERGY          1e-ENERGY        2e-ENERGY     RMS[dD(SAO)]   TOL
  13  -1841.6072631746    -11019.961055     4889.0019034    0.112D-06 0.317D-14
                            Exc = -267.040485618     Coul =  5156.04238897    
                              N = 312.00043022    
                            current damping = 0.200
 
          Norm of current diis error: 0.13015E-02
          max. resid. norm for Fia-block=  9.855D-06 for orbital    155a         
          max. resid. fock norm         =  2.463D-05 for orbital     45a         
          irrep a   : virtual orbitals shifted by    0.03093

 DENSITY CONVERGED !


 ITERATION  ENERGY          1e-ENERGY        2e-ENERGY     RMS[dD(SAO)]   TOL
  14  -1841.6072632086    -11019.960172     4889.0010203    0.504D-07 0.317D-14
                            Exc = -267.040448789     Coul =  5156.04146911    
                              N = 312.00043022    
                            current damping = 0.250
 
          Norm of current diis error: 0.37363E-03
          max. resid. norm for Fia-block=  4.369D-06 for orbital    154a         
          max. resid. fock norm         =  9.081D-06 for orbital   8291a         
          irrep a   : virtual orbitals shifted by    0.02806

 DENSITY CONVERGED !


 ITERATION  ENERGY          1e-ENERGY        2e-ENERGY     RMS[dD(SAO)]   TOL
  15  -1841.6072632109    -11019.960478     4889.0013261    0.228D-07 0.317D-14
                            Exc = -267.040461418     Coul =  5156.04178747    
                              N = 312.00043022    
                            current damping = 0.300
 
          Norm of current diis error: 0.18702E-03
          max. resid. norm for Fia-block=  1.542D-06 for orbital    154a         
          max. resid. fock norm         =  3.437D-06 for orbital   8291a         
          irrep a   : virtual orbitals shifted by    0.02518
          mo-orthogonalization: Cholesky decomposition

 DENSITY CONVERGED !


 ITERATION  ENERGY          1e-ENERGY        2e-ENERGY     RMS[dD(SAO)]   TOL
  16  -1841.6072632116    -11019.960420     4889.0012681    0.812D-08 0.317D-14
                            Exc = -267.040453465     Coul =  5156.04172156    
                              N = 312.00043022    
                            current damping = 0.350
 
          Norm of current diis error: 0.66580E-04
          max. resid. norm for Fia-block=  8.940D-07 for orbital    155a         
          max. resid. fock norm         =  3.173D-06 for orbital     47a         
          irrep a   : virtual orbitals shifted by    0.02230

 DENSITY CONVERGED !


 ITERATION  ENERGY          1e-ENERGY        2e-ENERGY     RMS[dD(SAO)]   TOL
  17  -1841.6072632117    -11019.960361     4889.0012093    0.398D-08 0.317D-14
                            Exc = -267.040452881     Coul =  5156.04166216    
                              N = 312.00043022    
                            current damping = 0.200
 
          Norm of current diis error: 0.43404E-04
          max. resid. norm for Fia-block=  3.940D-07 for orbital    145a         
          max. resid. fock norm         =  1.522D-06 for orbital     47a         
          irrep a   : virtual orbitals shifted by    0.03093

 ENERGY & DENSITY CONVERGED !


 ITERATION  ENERGY          1e-ENERGY        2e-ENERGY     RMS[dD(SAO)]   TOL
  18  -1841.6071061385    -11019.960371     4889.0013764    0.178D-08 0.317D-14
                            Exc = -267.040297256     Coul =  5156.04167363    
                              N = 312.00003553    
                            current damping = 0.250
 
          Norm of current diis error: 0.22092E-04
          max. resid. norm for Fia-block=  1.725D-07 for orbital    154a         
          max. resid. fock norm         =  5.725D-07 for orbital     44a         

 End of SCF iterations

   convergence criteria satisfied after   18 iterations


                  ------------------------------------------ 
                 |  total energy      =  -1841.60710613852  |
                  ------------------------------------------ 
                 :  kinetic energy    =   1833.11558843870  :
                 :  potential energy  =  -3674.72269457722  :
                 :  virial theorem    =      1.99538907204  :
                 :  wavefunction norm =      1.00000000000  :
                  .......................................... 


 <geterg> : there is no data group $energy 


 <skperg> : $end is missing 


 orbitals $scfmo  will be written to file mos

    irrep                152a        153a        154a        155a        156a   
 eigenvalues H         -0.23328    -0.23234    -0.20004    -0.19974    -0.17908
            eV          -6.3480     -6.3225     -5.4434     -5.4353     -4.8730
 occupation              2.0000      2.0000      2.0000      2.0000      2.0000 

    irrep                157a        158a        159a        160a        161a   
 eigenvalues H         -0.12152    -0.09916    -0.09896    -0.06304    -0.06177
            eV          -3.3069     -2.6983     -2.6930     -1.7155     -1.6808
 
 
 ! grave: sending quit signal to master process
 
 
 
 
 ==============================================================================
                           electrostatic moments
 ==============================================================================

 reference point for electrostatic moments:    0.00000   0.00000   0.00000

 
              nuc           elec       ->  total
 ------------------------------------------------------------------------------
                          charge      
 ------------------------------------------------------------------------------
         312.000000    -312.000000       0.000000
 
 ------------------------------------------------------------------------------
                       dipole moment  
 ------------------------------------------------------------------------------
   x      -0.790864       0.788865      -0.001999
   y       0.988515      -0.987207       0.001307
   z      -6.392535       6.393984       0.001450
 
   | dipole moment | =     0.0028 a.u. =     0.0071 debye 
 
 ------------------------------------------------------------------------------
                     quadrupole moment
 ------------------------------------------------------------------------------
  xx   22526.635185  -22743.164017    -216.528832
  yy   23579.615952  -23797.316545    -217.700593
  zz    2863.019086   -3043.267182    -180.248096
  xy     -56.956790      56.914685      -0.042104
  xz   -6081.133462    6088.029477       6.896015
  yz     160.663005    -160.898583      -0.235578
 
     1/3  trace=    -204.825840
     anisotropy=      38.768725
 
 ==============================================================================
 

    ridft profiling
  --------------------------------------------------------------------
             module   cpu total (s)       %  wall total (s)       %

               RIDFT         37907.1  100.00         43463.5  100.00
         Ridft_b_scf          1188.7    3.14          1190.1    2.74
        b_scf_prelim             0.0    0.00             0.0    0.00
        b_scf_molinp             0.0    0.00             0.0    0.00
         b_scf_init0             0.0    0.00             0.0    0.00
        b_scf_auxbas             0.0    0.00             0.0    0.00
      b_scf_symmetry             0.0    0.00             0.0    0.00
         b_scf_cosmo             0.0    0.00             0.0    0.00
        b_scf_params           102.4    0.27           102.6    0.24
          b_scf_ri-j           298.2    0.79           298.4    0.69
    b_scf_ri-j_auxpq           297.8    0.79           298.0    0.69
     ri-j_auxpq_chol            25.3    0.07            25.3    0.06
         b_scf_1elec            18.9    0.05            18.9    0.04
       b_scf_moinput           769.2    2.03           770.2    1.77
     moinput_orthmos           767.1    2.02           768.2    1.77
    b_scf_dft-dstmax             0.0    0.00             0.0    0.00
           Ridft_scf         36708.7   96.84         42258.9   97.23
          Scf_b_loop             0.0    0.00             0.0    0.00
                noga             0.0    0.00             0.0    0.00
            Scf_loop         36660.6   96.71         41855.3   96.30
     scf_loop_mkdmat           152.1    0.40           169.4    0.39
       scf_loop_ri-j          8061.4   21.27          8065.9   18.56
      parlp1.bc.dens            20.3    0.05            20.3    0.05
        parlp1.gs.gp           169.2    0.45           169.2    0.39
        parlp2.bc.gq             0.0    0.00             0.0    0.00
        scf_loop_dft         10984.9   28.98         10999.1   25.31
      pardft.bc.dens             0.0    0.00             0.0    0.00
        dft_grid_con           260.4    0.69           260.5    0.60
           dft_xcrhf         10270.7   27.09         10284.5   23.66
          dft_getval           375.4    0.99           376.0    0.87
          funct2 dst             5.7    0.02             5.6    0.01
      funct2 f2loop1            46.4    0.12            46.5    0.11
      funct2 f2loop2           140.4    0.37           140.9    0.32
          funct2 s+c           177.7    0.47           177.9    0.41
        funct2 cmf_2           167.7    0.44           167.9    0.39
          dft_mkdens          4498.5   11.87          4504.9   10.36
         dft_gga-fun             2.8    0.01             2.5    0.01
          dft_mkfock          5390.3   14.22          5397.5   12.42
     pardft.red.fock          1157.4    3.05          1158.5    2.67
     scf_loop_energy             3.3    0.01             3.3    0.01
     scf_loop_mkfock             3.5    0.01             3.5    0.01
       scf_loop_diis          3537.9    9.33          3543.2    8.15
       scf_loop_diag         11598.3   30.60         11617.8   26.73
         diag_tritrn          4867.6   12.84          4876.4   11.22
          diag_rdiag          6721.1   17.73          6731.7   15.49
     scf_loop_modump           749.1    1.98          5880.4   13.53
      scf_loop_ortho          1534.9    4.05          1537.5    3.54
          Scf_a_loop            48.0    0.13           403.5    0.93
         Ridft_a_scf             9.7    0.03            14.5    0.03
         a_scf_fanal             9.5    0.03            14.3    0.03
 


    ------------------------------------------------------------------------
         total  cpu-time : 10 hours 33 minutes and  9 seconds
         total wall-time : 12 hours  7 minutes and 55 seconds
    ------------------------------------------------------------------------


   ****  ridft : all done  ****


    2017-12-26 23:23:34.528 

