 this is node-proc. number 0 running on node c-4-19.local
 the total number of node-proc. spawned is  33

 dscfserver (c-4-19.local) : TURBOMOLE V7.2 ( 21471 ) 7 Nov 2017 at 16:15:16
 Copyright (C) 2017 TURBOMOLE GmbH, Karlsruhe


    2018-02-24 03:50:28.974 

