Using Slurm to start processes with PMI2
STARTING ridft ON 8 PROCESSORS!
RUNNING PROGRAM /beegfs/modfac/apps/TURBOMOLE/7.0_intel_GA/bin/em64t-unknown-linux-gnu_mpi/ridft_mpi.
PLEASE WAIT UNTIL ridft HAS FINISHED.
Look for the output in slave1.output.
  this is node-proc. number 1 running on node c-3-343.local
  the total number of node-proc. spawned is            8
  parallel platform: MPP, or cluster with fast interconnect

 ridft (c-3-343.local) : TURBOMOLE V7.0.2( ) 15 Jan 2016 at 17:47:42
 Copyright (C) 2016 TURBOMOLE GmbH, Karlsruhe


    2017-11-07 21:42:03.261 



                                  r i d f t

                        DFT program with RI approximation 
                                for coulomb part 




                                                 
                                 References:     
                                                 
          TURBOMOLE:                             
              R. Ahlrichs, M. Baer, M. Haeser, H. Horn, and
              C. Koelmel
              Electronic structure calculations on workstation
              computers: the program system TURBOMOLE
              Chem. Phys. Lett. 162: 165 (1989)
          Density Functional:                              
              O. Treutler and R. Ahlrichs                      
              Efficient Molecular Numerical Integration Schemes
              J. Chem. Phys. 102: 346 (1995)                   
          Parallel Version:                                
              Performance of parallel TURBOMOLE for Density    
              Functional Calculations                          
              M. v. Arnim and R. Ahlrichs                      
              J. Comp. Chem. 19: 1746 (1998)                   
          RI-J Method:                                     
              Auxiliary Basis Sets to approximate Coulomb      
              Potentials                                       
              Chem. Phys. Lett. 240: 283 (1995)                
              K. Eichkorn, O. Treutler, H. Oehm, M. Haeser     
              and R. Ahlrichs                                  
              Chem. Phys. Lett. 242: 652 (1995)                
                                                           
              Auxiliary Basis Sets for Main Row Atoms and their
              Use to approximate Coulomb Potentials            
              K. Eichkorn, F. Weigend, O. Treutler and         
              R. Ahlrichs                                      
              Theo. Chem. Acc. 97: 119 (1997)                   
                                                           
              Accurate Coulomb-fitting basis sets for H to Rn 
              F. Weigend                                        
              Phys. Chem. Chem. Phys. 8: 1057 (2006)            
                                                           
          Multipole accelerated RI-J (MARI-J):             
              Fast evaluation of the Coulomb potential for     
              electron densities using multipole accelerated   
              resolution of identity approximation             
              M. Sierka, A. Hogekamp and R. Ahlrichs           
              J. Chem. Phys. 118: 9136 (2003)                  
          RI-JK Method:                                     
              A fully direct RI-HF algorithm: Implementation,
              optimised auxiliary basis sets, demonstration of
              accuracy and efficiency                         
              F. Weigend                                      
              Phys. Chem. Chem. Phys. 4: 4285 (2002)           
          Two-component HF and DFT with spin-orbit coupling:  
              Self-consistent treatment of spin-orbit         
              interactions with efficient Hartree-Fock and    
              density functional methods                      
              M. K. Armbruster, F. Weigend, C. van Wüllen and 
              W. Klopper                                      
              Phys. Chem. Chem. Phys. 10: 1748 (2008)         
          Relativistic all-electron 2c calculations           
              An efficient implementation of two-component    
              relativistic exact-decoupling methods for large 
              molecules                                       
              D. Peng, N. Middendorf, F. Weigend, M. Reiher   
              J. Chem. Phys. 138, 184105 (2013)               
                                         


 


              +--------------------------------------------------+
              |      general information about current run       |
              +--------------------------------------------------+

 

 SCF run will be profiled !


 DENSITY CONVERGENCE CHECK SWITCHED ON !
 SCF CONVERGENCE IF RMS(delta[D]) <     0.1000000000E-06

 TPSS meta-GGA functional
 exchange:    LDA + TPSS
 correlation: LDA (PW) + TPSS
 A DFT calculation using the RI-J approximation will be carried out.
 Allocatable memory for RI due to $ricore (MB):       12000


              +--------------------------------------------------+
              | Atomic coordinate, charge and isotop information |
              +--------------------------------------------------+

                    atomic coordinates            atom    charge  isotop
          0.03087599   -2.73416033   -0.43315891    c      6.000     0
         -2.32492522    1.34882738   -0.49239404    c      6.000     0
          0.05509231    2.73389290    0.43154703    c      6.000     0
          2.40615525   -1.34276488    0.50452142    c      6.000     0
          2.38288229    1.33884600   -0.61353517    c      6.000     0
         -2.30234052   -1.34527729    0.59815730    c      6.000     0
          0.13077801    0.12974653    4.37881871    c      6.000     0
         -0.06895955   -0.12999672   -4.37989499    c      6.000     0
          2.31134358    1.27276831   -3.51941694    c      6.000     0
         -2.25663040   -1.24308822    3.49676876    c      6.000     0
          0.01744015   -2.82753678   -3.33677486    c      6.000     0
          0.17384500    2.82719859    3.33278816    c      6.000     0
         -2.41176526    1.24611914   -3.39006169    c      6.000     0
          2.46763028   -1.27591944    3.41054115    c      6.000     0
         -2.76648499   -0.99879609   -8.28419171    c      6.000     0
          2.09969971    2.07070760    8.33242655    c      6.000     0
          1.71125477   -2.07841833   -8.41806727    c      6.000     0
         -2.38316153    1.00730487    8.40255703    c      6.000     0
          0.40457876    2.33887917   -8.49432431    c      6.000     0
          0.78209354   -2.34158961    8.46740403    c      6.000     0
          0.15846524    0.21627394    7.37103786    n      7.000     0
         -0.17756290   -0.21675733   -7.37023349    n      7.000     0
          0.03944332   -4.67918434    0.28364704    h      1.000     0
          0.03424120    4.67902700   -0.28479133    h      1.000     0
          4.09656009    2.34492829   -0.02738462    h      1.000     0
         -4.02292896   -2.33841597    0.00250677    h      1.000     0
         -4.01505366    2.34487119    0.18070508    h      1.000     0
          4.08965300   -2.35195463   -0.15890532    h      1.000     0
         -1.59127142   -3.93649316   -4.00939424    h      1.000     0
          1.92668216    3.76470230    3.88863655    h      1.000     0
         -2.50236861    3.15916908   -4.16225813    h      1.000     0
          2.49909600   -3.21403409    4.11908977    h      1.000     0
          4.00258750    0.32962736   -4.24092116    h      1.000     0
         -3.94374409   -0.25336198    4.15179363    h      1.000     0
         -2.31430020   -3.15606282    4.27172999    h      1.000     0
          2.31193354    3.21108954   -4.22799837    h      1.000     0
         -1.40078436    3.93882100    4.07767023    h      1.000     0
          1.74156187   -3.76803455   -3.97181178    h      1.000     0
          4.19121906   -0.33407120    4.05313634    h      1.000     0
         -4.12863223    0.25872649   -3.96675018    h      1.000     0
         -3.34795518   -2.72578207   -7.32711784    h      1.000     0
          1.49873380    3.98680389    7.88520287    h      1.000     0
         -0.80277393    3.76407304   -7.63368526    h      1.000     0
          2.74739340   -2.79602628    8.06643844    h      1.000     0
          3.57312072   -1.68618719   -7.63956305    h      1.000     0
         -3.74598081   -0.50262171    8.10447346    h      1.000     0
          3.92313974    1.67081588    7.47160244    h      1.000     0
         -4.10856705    0.51629285   -7.92480513    h      1.000     0
         -3.00141281    2.73700380    7.47412373    h      1.000     0
          1.12317483   -3.99229021   -7.94488751    h      1.000     0
         -0.46864082   -3.76220345    7.66308087    h      1.000     0
          2.38785423    2.78613151   -8.18372631    h      1.000     0
         -2.60841766   -1.33897680  -10.31152828    h      1.000     0
          2.21048654    1.82031208   10.37602475    h      1.000     0
          1.73169441   -1.82762116  -10.46447360    h      1.000     0
         -2.13129758    1.34529221   10.42080075    h      1.000     0
          0.01258724    2.21192085  -10.51445861    h      1.000     0
          0.48347917   -2.21336169   10.50339038    h      1.000     0
 
       center of nuclear mass  :    0.01886514   -0.00017412   -0.00021244
       center of nuclear charge:    0.01831319   -0.00017648   -0.00019127

              +--------------------------------------------------+
              |               basis set information              |
              +--------------------------------------------------+

              we will work with the 1s 3p 5d 7f 9g ... basis set
              ...i.e. with spherical basis functions...

   type   atoms  prim   cont   basis
   ---------------------------------------------------------------------------
    c       20     77     55   cc-pVQZ   [5s4p3d2f1g|21s6p3d2f1g]
    n        2     77     55   cc-pVQZ   [5s4p3d2f1g|21s6p3d2f1g]
    h       36     32     30   cc-pVQZ   [4s3p2d1f|6s3p2d1f]
   ---------------------------------------------------------------------------
   total:   58   2846   2290
   ---------------------------------------------------------------------------

   total number of primitive shells          :   78
   total number of contracted shells         :  690
   total number of cartesian basis functions : 2800
   total number of SCF-basis functions       : 2290


 integral neglect threshold       :  0.12E-13
 integral storage threshold THIZE :  0.10E-04
 integral storage threshold THIME :         5

 RI-J AUXILIARY BASIS SET information:

              we will work with the 1s 3p 5d 7f 9g ... basis set
              ...i.e. with spherical basis functions...

   type   atoms  prim   cont   basis
   ---------------------------------------------------------------------------
    c       20     70     49   cc-pVQZ   [6s4p3d1f1g|12s5p4d2f1g]
    n        2     70     49   cc-pVQZ   [6s4p3d1f1g|12s5p4d2f1g]
    h       36     16     11   cc-pVQZ   [3s1p1d|5s2p1d]
   ---------------------------------------------------------------------------
   total:   58   2116   1474
   ---------------------------------------------------------------------------

   total number of primitive shells          :   56
   total number of contracted shells         :  510
   total number of cartesian basis functions : 1774
   total number of SCF-basis functions       : 1474


 symmetry group of the molecule :   c1 

 the group has the following generators :
   c1(z)

    1 symmetry operations found

 there are 1 real representations :   a   

 maximum number of shells which are related by symmetry :  1


    mo occupation :
   irrep   mo's   occupied
    a     2290       84
 
 number of basis functions   :         2290
 number of occupied orbitals :           84
 
  
           ------------------
           density functional
           ------------------
 TPSS meta-GGA functional
 exchange:    LDA + TPSS
 correlation: LDA (PW) + TPSS
 grinp -> nfun, dfgga, dfhybrid 
           5 F F
 iterations will be done with small grid
  
 spherical integration : Lebedev's spherical grid
 spherical gridsize    :           5
    i.e. gridpoints    :         590
 value for diffuse not defined
 radial integration    : Chebyshev 2nd kind (scaling 3)
 radial gridsize       :           8
 integration cells     :          58
 partition function    : becke
 partition sharpness   :           3
  

 <rddim> : input of entry tasksize
           from data group '$pardft' failed !

               Default values taken

 <rddim> : input of entry memdiv
           from data group '$pardft' failed !

               Default values taken
  RIDFT: memory allocation for DFT gridpoints
  MEMORY is divided by 1 as DEFAULT
 Each node can hold at most  the            1 -th part
 of the gridpoints    

 biggest AO integral is expected to be     4.161848376
  
           ------------------------
               RI-J - INFORMATION
           ------------------------
 
 
 **************************************************
 *      MEMORY ALLOCATION FOR PARALLEL RI-DFT     *
 **************************************************
 
 
MEMORY FOR (MU NU/ ALPHA), SEQUENTIAL RUN              11982 MByte
 
            DIFFERENCE IN MEMORY NEED:       DIAG./SLAVE  
 
      TOTAL DIFFERENCE :                    231 MByte
 
      difference in xcore:                   19 MByte
      difference in fatmat:                  72 MByte
      getcor calls skipped by slaves:       140 MByte
 
 
           Integral memory available for diagonal.     11982 MByte
 
           Integral memory available for slave             0 MByte
 
         MEMORY FOR (MU NU/ ALPHA) ON DIAGONALIZER     11982 MByte
 
         MEMORY FOR (MU NU/ ALPHA) ON ONE SLAVE            0 MByte
 
         TOTAL MEMORY FOR (MU NU/ ALPHA),ALL NODES     11982 MByte
 
 Contributions to RI integral batches: 
  neglected integral batches:       94356
  direct contribution:              74643
  memory contribution:       69396
 Memory core needed for (P|Q) and Cholesky     17 MByte
 Memory core minimum needed except of (P|Q)     8 MByte
 Total minimum memory core needed (sum)        24 MByte
     number of direct tasks:         160
  
 ****************************************
 Memory allocated for RI-J 12006 MByte
 ****************************************
                                            

          ------------------------
          nuclear repulsion energy  :   2180.83991053    
          ------------------------

 
          -----------------
          -S integrals
          -----------------

 1e-integrals will be neglected if expon. factor < 0.119356E-14
 
          -----------------
          -T+V integrals
          -----------------

 1e-integrals will be neglected if expon. factor < 0.119356E-14
 Difference densities >>NOT<< switched on in parallel ridft!

 automatic virtual orbital shift switched on 
      shift if e(lumo)-e(homo) < 0.10000000    


 DIIS switched on: error vector is FDS-SDF
 Max. Iterations for DIIS is     :   4
 DIIS matrix (see manual) 
    Scaling factor of diagonals  :  1.200
    threshold for scaling factor :  0.000

 scf convergence criterion : increment of total energy < .1000000D-08
                  and increment of one-electron energy < .1000000D-05


 <geterg> : there is no data group $energy 

  MOs are in ASCII format !


 reading orbital data $scfmo  from file mos . 

 orbital characterization : expanded
 
 mo provided and orthogonalized by Cholesky decomposition

 DSCF restart information will be dumped onto file mos


 Starting SCF iterations


 ITERATION  ENERGY          1e-ENERGY        2e-ENERGY     RMS[dD(SAO)]   TOL
   1  -890.38354948856    -5453.9497943     2382.7263343    0.000D+00 0.119D-13
                            Exc = -131.936710265     Coul =  2514.66304457    
                              N = 167.99969249    
                            current damping = 0.700
 
          max. resid. norm for Fia-block=  2.819D-01 for orbital      2a         
          max. resid. fock norm         =  6.985D+00 for orbital   2128a         

 ITERATION  ENERGY          1e-ENERGY        2e-ENERGY     RMS[dD(SAO)]   TOL
   2  -892.65734020151    -5485.9823477     2412.4850970    0.444D-02 0.119D-13
                            Exc = -134.397376053     Coul =  2546.88247303    
                              N = 167.99976742    
                            current damping = 0.650
 
          Norm of current diis error:  5.4706    
          max. resid. norm for Fia-block=  1.167D-01 for orbital      2a         
          max. resid. fock norm         =  1.765D-01 for orbital   1949a         

 ITERATION  ENERGY          1e-ENERGY        2e-ENERGY     RMS[dD(SAO)]   TOL
   3  -893.12979023875    -5490.3769451     2416.4072443    0.157D-02 0.119D-13
                            Exc = -135.140460172     Coul =  2551.54770448    
                              N = 167.99979327    
                            current damping = 0.550
 
          Norm of current diis error:  2.7176    
          max. resid. norm for Fia-block=  5.528D-02 for orbital     25a         
          max. resid. fock norm         =  6.396D-02 for orbital     25a         

 ITERATION  ENERGY          1e-ENERGY        2e-ENERGY     RMS[dD(SAO)]   TOL
   4  -893.27698999938    -5498.7748229     2424.6579224    0.539D-03 0.119D-13
                            Exc = -135.744480160     Coul =  2560.40240251    
                              N = 167.99983010    
                            current damping = 0.450
 
          Norm of current diis error:  1.0254    
          max. resid. norm for Fia-block=  2.156D-02 for orbital     25a         
          max. resid. fock norm         =  3.120D-02 for orbital    262a         

 ITERATION  ENERGY          1e-ENERGY        2e-ENERGY     RMS[dD(SAO)]   TOL
   5  -893.29947185130    -5497.9299366     2423.7905542    0.235D-03 0.119D-13
                            Exc = -135.904083996     Coul =  2559.69463824    
                              N = 167.99983166    
                            current damping = 0.500
 
          Norm of current diis error: 0.53077    
          max. resid. norm for Fia-block=  8.438D-03 for orbital     43a         
          max. resid. fock norm         =  1.146D-02 for orbital     43a         
          mo-orthogonalization: Cholesky decomposition

 ITERATION  ENERGY          1e-ENERGY        2e-ENERGY     RMS[dD(SAO)]   TOL
   6  -893.30466959727    -5500.0436206     2425.8990405    0.663D-04 0.119D-13
                            Exc = -136.005698985     Coul =  2561.90473949    
                              N = 167.99984043    
                            current damping = 0.550
 
          Norm of current diis error: 0.12521    
          max. resid. norm for Fia-block=  2.699D-03 for orbital     37a         
          max. resid. fock norm         =  3.966D-03 for orbital   2235a         

 ITERATION  ENERGY          1e-ENERGY        2e-ENERGY     RMS[dD(SAO)]   TOL
   7  -893.30502581182    -5500.0308533     2425.8859170    0.290D-04 0.119D-13
                            Exc = -136.023814142     Coul =  2561.90973111    
                              N = 167.99984023    
                            current damping = 0.600
 
          Norm of current diis error: 0.50261E-01
          max. resid. norm for Fia-block=  1.129D-03 for orbital     24a         
          max. resid. fock norm         =  1.663D-03 for orbital    104a         

 ITERATION  ENERGY          1e-ENERGY        2e-ENERGY     RMS[dD(SAO)]   TOL
   8  -893.30507738630    -5500.0283294     2425.8833415    0.108D-04 0.119D-13
                            Exc = -136.028358256     Coul =  2561.91169975    
                              N = 167.99984062    
                            current damping = 0.450
 
          Norm of current diis error: 0.22637E-01
          max. resid. norm for Fia-block=  4.562D-04 for orbital     37a         
          max. resid. fock norm         =  7.710D-04 for orbital   2137a         

 ITERATION  ENERGY          1e-ENERGY        2e-ENERGY     RMS[dD(SAO)]   TOL
   9  -893.30508861387    -5500.0855897     2425.9405906    0.495D-05 0.119D-13
                            Exc = -136.032860724     Coul =  2561.97345128    
                              N = 167.99984072    
                            current damping = 0.500
 
          Norm of current diis error: 0.51900E-02
          max. resid. norm for Fia-block=  1.167D-04 for orbital     25a         
          max. resid. fock norm         =  2.974D-04 for orbital   2255a         

 ITERATION  ENERGY          1e-ENERGY        2e-ENERGY     RMS[dD(SAO)]   TOL
  10  -893.30508925997    -5500.0936117     2425.9486119    0.182D-05 0.119D-13
                            Exc = -136.033585198     Coul =  2561.98219714    
                              N = 167.99984074    
                            current damping = 0.350
 
          Norm of current diis error: 0.24627E-02
          max. resid. norm for Fia-block=  5.654D-05 for orbital     80a         
          max. resid. fock norm         =  1.004D-04 for orbital   2235a         
          mo-orthogonalization: Cholesky decomposition

 ITERATION  ENERGY          1e-ENERGY        2e-ENERGY     RMS[dD(SAO)]   TOL
  11  -893.30508935260    -5500.0851044     2425.9401045    0.823D-06 0.119D-13
                            Exc = -136.033674955     Coul =  2561.97377946    
                              N = 167.99984072    
                            current damping = 0.400
 
          Norm of current diis error: 0.16516E-02
          max. resid. norm for Fia-block=  2.909D-05 for orbital     74a         
          max. resid. fock norm         =  5.403D-05 for orbital   2253a         

 ITERATION  ENERGY          1e-ENERGY        2e-ENERGY     RMS[dD(SAO)]   TOL
  12  -893.30508938360    -5500.0924731     2425.9474732    0.291D-06 0.119D-13
                            Exc = -136.033908613     Coul =  2561.98138184    
                              N = 167.99984075    
                            current damping = 0.450
 
          Norm of current diis error: 0.95472E-03
          max. resid. norm for Fia-block=  1.538D-05 for orbital     82a         
          max. resid. fock norm         =  2.503D-05 for orbital   2089a         

 ITERATION  ENERGY          1e-ENERGY        2e-ENERGY     RMS[dD(SAO)]   TOL
  13  -893.30508939762    -5500.0923792     2425.9473793    0.121D-06 0.119D-13
                            Exc = -136.033934597     Coul =  2561.98131390    
                              N = 167.99984074    
                            current damping = 0.500
 
          Norm of current diis error: 0.36407E-03
          max. resid. norm for Fia-block=  8.462D-06 for orbital     48a         
          max. resid. fock norm         =  1.297D-05 for orbital   2137a         

 DENSITY CONVERGED !


 ITERATION  ENERGY          1e-ENERGY        2e-ENERGY     RMS[dD(SAO)]   TOL
  14  -893.30508939967    -5500.0911276     2425.9461277    0.533D-07 0.119D-13
                            Exc = -136.033892250     Coul =  2561.98001996    
                              N = 167.99984074    
                            current damping = 0.350
 
          Norm of current diis error: 0.13773E-03
          max. resid. norm for Fia-block=  2.550D-06 for orbital     74a         
          max. resid. fock norm         =  4.131D-06 for orbital   2137a         

 DENSITY CONVERGED !


 ITERATION  ENERGY          1e-ENERGY        2e-ENERGY     RMS[dD(SAO)]   TOL
  15  -893.30508940016    -5500.0911981     2425.9461982    0.270D-07 0.119D-13
                            Exc = -136.033899050     Coul =  2561.98009721    
                              N = 167.99984074    
                            current damping = 0.400
 
          Norm of current diis error: 0.33122E-04
          max. resid. norm for Fia-block=  7.125D-07 for orbital     74a         
          max. resid. fock norm         =  1.333D-06 for orbital   2233a         
          mo-orthogonalization: Cholesky decomposition

 DENSITY CONVERGED !


 ITERATION  ENERGY          1e-ENERGY        2e-ENERGY     RMS[dD(SAO)]   TOL
  16  -893.30508940014    -5500.0912665     2425.9462666    0.112D-07 0.119D-13
                            Exc = -136.033900007     Coul =  2561.98016657    
                              N = 167.99984074    
                            current damping = 0.250
 
          Norm of current diis error: 0.77886E-05
          max. resid. norm for Fia-block=  1.592D-07 for orbital     51a         
          max. resid. fock norm         =  6.147D-07 for orbital   2255a         

 ENERGY & DENSITY CONVERGED !


 ITERATION  ENERGY          1e-ENERGY        2e-ENERGY     RMS[dD(SAO)]   TOL
  17  -893.30480202744    -5500.0912828     2425.9465702    0.555D-08 0.119D-13
                            Exc = -136.033613944     Coul =  2561.98018416    
                              N = 168.00008917    
                            current damping = 0.100
 
          Norm of current diis error: 0.34605E-05
          max. resid. norm for Fia-block=  5.912D-08 for orbital     82a         
          max. resid. fock norm         =  1.624D-07 for orbital   2255a         

 End of SCF iterations

   convergence criteria satisfied after   17 iterations


                  ------------------------------------------ 
                 |  total energy      =   -893.30480202744  |
                  ------------------------------------------ 
                 :  kinetic energy    =    889.08107610438  :
                 :  potential energy  =  -1782.38587813182  :
                 :  virial theorem    =      1.99527179758  :
                 :  wavefunction norm =      1.00000000000  :
                  .......................................... 


 <geterg> : there is no data group $energy 


 <skperg> : $end is missing 


 orbitals $scfmo  will be written to file mos

    irrep                 80a         81a         82a         83a         84a   
 eigenvalues H         -0.51322    -0.50969    -0.49857    -0.47661    -0.47652
            eV         -13.9655    -13.8695    -13.5670    -12.9693    -12.9667
 occupation              2.0000      2.0000      2.0000      2.0000      2.0000 

    irrep                 85a         86a         87a         88a         89a   
 eigenvalues H         -0.22502    -0.20641    -0.19591    -0.19510    -0.18662
            eV          -6.1231     -5.6167     -5.3310     -5.3091     -5.0784
 
 
 ! grave: sending quit signal to master process
 
 
 
 
 ==============================================================================
                           electrostatic moments
 ==============================================================================

 reference point for electrostatic moments:    0.00000   0.00000   0.00000

 
              nuc           elec       ->  total
 ------------------------------------------------------------------------------
                          charge      
 ------------------------------------------------------------------------------
         170.000000    -168.000000       2.000000
 
 ------------------------------------------------------------------------------
                       dipole moment  
 ------------------------------------------------------------------------------
   x       3.113242      -3.115536      -0.002294
   y      -0.030002       0.029598      -0.000404
   z      -0.032516       0.032972       0.000457
 
   | dipole moment | =     0.0024 a.u. =     0.0060 debye 
 
 ------------------------------------------------------------------------------
                     quadrupole moment
 ------------------------------------------------------------------------------
  xx     679.315784    -764.652045     -85.336261
  yy     680.307978    -765.626525     -85.318547
  zz    5541.607083   -5525.842396      15.764686
  xy       3.292615      -3.224660       0.067956
  xz     110.931188    -108.625357       2.305831
  yz     143.480328    -140.497500       2.982827
 
     1/3  trace=     -51.630041
     anisotropy=     101.302849
 
 ==============================================================================
 

    ridft profiling
  --------------------------------------------------------------------
             module   cpu total (s)       %  wall total (s)       %

               RIDFT          3467.4  100.00          3472.8  100.00
         Ridft_b_scf            83.2    2.40            83.2    2.39
        b_scf_prelim             0.0    0.00             0.0    0.00
        b_scf_molinp             0.0    0.00             0.0    0.00
         b_scf_init0             0.0    0.00             0.0    0.00
        b_scf_auxbas             0.0    0.00             0.0    0.00
      b_scf_symmetry             0.0    0.00             0.0    0.00
         b_scf_cosmo             0.0    0.00             0.0    0.00
        b_scf_params             5.8    0.17             5.8    0.17
          b_scf_ri-j            46.7    1.35            46.7    1.34
    b_scf_ri-j_auxpq            46.6    1.34            46.6    1.34
     ri-j_auxpq_chol             0.5    0.01             0.5    0.01
         b_scf_1elec             3.3    0.09             3.3    0.09
       b_scf_moinput            27.4    0.79            27.4    0.79
     moinput_orthmos            27.2    0.78            27.2    0.78
    b_scf_dft-dstmax             0.0    0.00             0.0    0.00
           Ridft_scf          3383.4   97.58          3388.7   97.58
          Scf_b_loop             0.0    0.00             0.0    0.00
                noga             0.0    0.00             0.0    0.00
            Scf_loop          3379.7   97.47          3384.7   97.46
     scf_loop_mkdmat             6.1    0.18             6.1    0.18
       scf_loop_ri-j           239.3    6.90           239.2    6.89
      parlp1.bc.dens             1.3    0.04             1.3    0.04
        parlp1.gs.gp             0.0    0.00             0.1    0.00
        parlp2.bc.gq             0.0    0.00             0.0    0.00
        scf_loop_dft          2821.6   81.38          2821.4   81.24
      pardft.bc.dens             0.0    0.00             0.0    0.00
        dft_grid_con             1.9    0.05             1.9    0.05
          dft_xcmrhf          2775.6   80.05          2775.4   79.92
          dft_getval            28.6    0.83            28.6    0.82
          funct2 dst             0.3    0.01             0.3    0.01
      funct2 f2loop1             6.6    0.19             6.5    0.19
      funct2 f2loop2            11.9    0.34            12.0    0.35
          funct2 s+c             9.3    0.27             9.2    0.27
        funct2 cmf_2             8.1    0.23             8.2    0.24
          dft_mkdens          1380.2   39.80          1380.1   39.74
        dft_mgga-fun             1.0    0.03             1.0    0.03
          dft_mkfock          1365.3   39.38          1365.2   39.31
     pardft.red.fock           275.6    7.95           275.6    7.94
     scf_loop_energy             0.1    0.00             0.1    0.00
     scf_loop_mkfock             0.1    0.00             0.1    0.00
       scf_loop_diis           154.2    4.45           154.1    4.44
       scf_loop_diag            80.3    2.32            80.3    2.31
         diag_tritrn            26.5    0.76            26.5    0.76
          diag_rdiag            53.6    1.55            53.6    1.54
     scf_loop_modump            51.4    1.48            56.7    1.63
      scf_loop_ortho            24.6    0.71            24.6    0.71
          Scf_a_loop             3.7    0.11             4.0    0.11
         Ridft_a_scf             0.8    0.02             0.9    0.03
         a_scf_fanal             0.8    0.02             0.8    0.02
 


    ------------------------------------------------------------------------
         total  cpu-time : 57 minutes and 52 seconds
         total wall-time : 57 minutes and 57 seconds
    ------------------------------------------------------------------------


   ****  ridft : all done  ****


    2017-11-07 22:40:00.446 

