 operating system is UNIX !
 hostname is c-9-413.local

 ridft (c-9-413.local) : TURBOMOLE V7.1 ( ) 5 Apr 2016 at 11:29:09
 Copyright (C) 2016 TURBOMOLE GmbH, Karlsruhe


    2016-06-24 19:53:56.887 



                                  r i d f t

                        DFT program with RI approximation 
                                for coulomb part 




                                                 
                                 References:     
                                                 
          TURBOMOLE:                             
              R. Ahlrichs, M. Baer, M. Haeser, H. Horn, and
              C. Koelmel
              Electronic structure calculations on workstation
              computers: the program system TURBOMOLE
              Chem. Phys. Lett. 162: 165 (1989)
          Density Functional:                              
              O. Treutler and R. Ahlrichs                      
              Efficient Molecular Numerical Integration Schemes
              J. Chem. Phys. 102: 346 (1995)                   
          Parallel Version:                                
              Performance of parallel TURBOMOLE for Density    
              Functional Calculations                          
              M. v. Arnim and R. Ahlrichs                      
              J. Comp. Chem. 19: 1746 (1998)                   
          RI-J Method:                                     
              Auxiliary Basis Sets to approximate Coulomb      
              Potentials                                       
              Chem. Phys. Lett. 240: 283 (1995)                
              K. Eichkorn, O. Treutler, H. Oehm, M. Haeser     
              and R. Ahlrichs                                  
              Chem. Phys. Lett. 242: 652 (1995)                
                                                           
              Auxiliary Basis Sets for Main Row Atoms and their
              Use to approximate Coulomb Potentials            
              K. Eichkorn, F. Weigend, O. Treutler and         
              R. Ahlrichs                                      
              Theo. Chem. Acc. 97: 119 (1997)                   
                                                           
              Accurate Coulomb-fitting basis sets for H to Rn 
              F. Weigend                                        
              Phys. Chem. Chem. Phys. 8: 1057 (2006)            
                                                           
          Multipole accelerated RI-J (MARI-J):             
              Fast evaluation of the Coulomb potential for     
              electron densities using multipole accelerated   
              resolution of identity approximation             
              M. Sierka, A. Hogekamp and R. Ahlrichs           
              J. Chem. Phys. 118: 9136 (2003)                  
          RI-JK Method:                                     
              A fully direct RI-HF algorithm: Implementation,
              optimised auxiliary basis sets, demonstration of
              accuracy and efficiency                         
              F. Weigend                                      
              Phys. Chem. Chem. Phys. 4: 4285 (2002)           
          Two-component HF and DFT with spin-orbit coupling:  
              Self-consistent treatment of spin-orbit         
              interactions with efficient Hartree-Fock and    
              density functional methods                      
              M. K. Armbruster, F. Weigend, C. van Wüllen and 
              W. Klopper                                      
              Phys. Chem. Chem. Phys. 10: 1748 (2008)         
          Relativistic all-electron 2c calculations           
              An efficient implementation of two-component    
              relativistic exact-decoupling methods for large 
              molecules                                       
              D. Peng, N. Middendorf, F. Weigend, M. Reiher   
              J. Chem. Phys. 138, 184105 (2013)               
                                         


 


              +--------------------------------------------------+
              |      general information about current run       |
              +--------------------------------------------------+

 

 DENSITY CONVERGENCE CHECK SWITCHED ON !
 SCF CONVERGENCE IF RMS(delta[D]) <     0.1000000000E-06

 PBE functional
 exchange:    LDA + PBE
 correlation: LDA (PW) + PBE
 A DFT calculation using the RI-J approximation will be carried out.
 Allocatable memory for RI due to $ricore (MB):        2000


              +--------------------------------------------------+
              | Atomic coordinate, charge and isotop information |
              +--------------------------------------------------+

                    atomic coordinates            atom    charge  isotop
          5.56725898    3.51365453  -13.87279748    c      6.000     0
          5.97277792    1.36830521  -15.34231881    c      6.000     0
          5.37267957   -0.99579749  -14.35375186    c      6.000     0
          4.39851916   -1.12612195  -11.90476396    c      6.000     0
          4.02671193    0.93252811  -10.46855192    n      7.000     0
          4.58570614    3.20808217  -11.44246598    c      6.000     0
          3.69461562   -3.67151168  -10.81901439    c      6.000     0
          3.94452410   -5.62674679  -12.04651228    o      8.000     0
          4.09229796    5.51824688   -9.83842648    c      6.000     0
          4.52317633    7.65939460  -10.62709087    o      8.000     0
          2.77789597   -3.50920508   -8.41573007    n      7.000     0
          1.91725947   -5.51293391   -6.84778218    c      6.000     0
         -0.07447608   -7.08377141   -7.61359747    c      6.000     0
         -0.93092763   -8.92866846   -5.91633319    c      6.000     0
          0.10690282   -9.22193654   -3.51183755    c      6.000     0
          2.09605492   -7.61811736   -2.81896253    c      6.000     0
          3.02475812   -5.77072991   -4.44203682    c      6.000     0
         -0.85816268  -11.17009454   -1.58166516    c      6.000     0
         -3.32791827  -12.45998491   -2.47319413    c      6.000     0
         -4.18072876  -14.55608047   -0.66910016    c      6.000     0
         -2.16270158  -16.62663285   -0.50823990    c      6.000     0
          0.36395008  -15.50644019    0.35643042    c      6.000     0
          1.17711920  -13.26685635   -1.30510998    c      6.000     0
         -1.93467478  -17.49843524   -2.38062775    h      1.000     0
         -2.75750285  -18.12779154    0.78978832    h      1.000     0
         -1.33471589   -9.69805307    0.87815403    c      6.000     0
         -3.23213521   -7.85191670    0.90611769    c      6.000     0
         -3.64438644   -6.30473540    2.99172631    c      6.000     0
         -2.09914680   -6.61395191    5.13538775    c      6.000     0
         -0.16794877   -8.42744899    5.17780856    c      6.000     0
          0.16397373   -9.94229442    3.03170859    c      6.000     0
         -5.68617897   -4.31754457    2.95390191    c      6.000     0
         -2.45737965   -4.93352223    7.19907824    n      7.000     0
         -2.93343675   -5.55046678    9.65616986    c      6.000     0
         -3.15614739   -7.70546957   10.49150663    o      8.000     0
          1.57989000   -8.70892543    7.40244401    c      6.000     0
         -1.35026543   -6.76615050  -10.13477684    c      6.000     0
          5.15435344   -4.05810912   -3.63542020    c      6.000     0
         -3.15761868   -3.26161603   11.34729577    c      6.000     0
         -2.83193096   -0.96949397   10.30851126    n      7.000     0
         -2.95497823    1.07090878   11.81209147    c      6.000     0
         -3.44201204    0.90495595   14.40032723    c      6.000     0
         -3.80668267   -1.47654586   15.45942781    c      6.000     0
         -3.65359886   -3.60310349   13.91653763    c      6.000     0
         -2.50525750    3.63530201   10.64113875    c      6.000     0
         -2.52866485    5.57527912   11.91679281    o      8.000     0
          3.13919104    4.93313189   -7.51631526    n      7.000     0
          2.44810101    6.63007371   -5.55255481    c      6.000     0
          0.61278588    8.49942058   -5.94981602    c      6.000     0
         -0.08725284   10.01635220   -3.89400902    c      6.000     0
          0.95412122    9.70451361   -1.49341641    c      6.000     0
          2.78447473    7.81849904   -1.17437253    c      6.000     0
          3.55480718    6.27638246   -3.15874162    c      6.000     0
          0.15471382   11.28418118    0.81234164    c      6.000     0
         -2.17810262   12.95269759    0.23724318    c      6.000     0
         -2.85190627   14.69186655    2.45040323    c      6.000     0
         -0.65364819   16.48804563    3.02279821    c      6.000     0
          1.75209924   14.98466502    3.60527503    c      6.000     0
          2.37112404   13.08107993    1.50044136    c      6.000     0
         -0.32934284   17.71010285    1.37364144    h      1.000     0
         -1.12036140   17.73022781    4.61378726    h      1.000     0
         -0.47498782    9.37896093    2.91406306    c      6.000     0
         -2.53741347    7.75339902    2.57903838    c      6.000     0
         -3.10539599    5.84609294    4.29734035    c      6.000     0
         -1.54983426    5.54991139    6.43531237    c      6.000     0
          0.54306995    7.12539447    6.83142659    c      6.000     0
          1.02799160    9.02196159    5.04882620    c      6.000     0
         -5.32542336    4.11146500    3.87160122    c      6.000     0
         -2.07597485    3.51168564    8.10236775    n      7.000     0
          2.29761163    6.76567285    9.03934817    c      6.000     0
         -0.66460282    8.83557522   -8.46772832    c      6.000     0
          5.51428320    4.24813712   -2.75293570    c      6.000     0
         -2.53449509   -3.04500420    6.85359155    h      1.000     0
          2.90763611   -1.74409224   -7.66738892    h      1.000     0
         -4.39006005   -7.56631027   -0.76663947    h      1.000     0
          1.70142668  -11.29870125    3.06514348    h      1.000     0
         -2.49809423  -10.10844609   -6.51487287    h      1.000     0
          2.91490928   -7.78401507   -0.94147898    h      1.000     0
         -6.91045855   -4.46432622    4.61719016    h      1.000     0
         -6.85067567   -4.50542669    1.25874080    h      1.000     0
         -4.89012099   -2.39996829    2.95044094    h      1.000     0
          2.17008297   -6.85819765    8.12091487    h      1.000     0
          3.26557771   -9.77571265    6.86303929    h      1.000     0
          0.63391744   -9.68572464    8.96223931    h      1.000     0
          6.66164342   -4.00992575   -5.05394410    h      1.000     0
          5.95553811   -4.69370242   -1.84111520    h      1.000     0
          4.50768606   -2.10337028   -3.36744176    h      1.000     0
         -1.68170846   -4.76404847  -10.54999819    h      1.000     0
         -3.16619415   -7.75209976  -10.15217341    h      1.000     0
         -0.16370455   -7.50718358  -11.65945706    h      1.000     0
         -4.82375007  -11.04985194   -2.71442410    h      1.000     0
         -2.98795331  -13.30350909   -4.33794475    h      1.000     0
         -4.51959349  -13.75900756    1.21670590    h      1.000     0
         -5.97882400  -15.34786113   -1.32685060    h      1.000     0
          0.17327269  -14.90120766    2.32795407    h      1.000     0
          1.84955608  -16.95138967    0.31398907    h      1.000     0
          1.58323115  -13.95775322   -3.21844861    h      1.000     0
          2.94502549  -12.44190848   -0.60782328    h      1.000     0
         -3.89394204   -5.51005580   14.62650975    h      1.000     0
         -4.19218099   -1.67367762   17.46564851    h      1.000     0
          5.62212661   -2.73587227  -15.40653875    h      1.000     0
          6.73635102    1.53772152  -17.23987492    h      1.000     0
         -2.32923579    1.75493178    7.36636059    h      1.000     0
          3.10764932    3.04552232   -7.15776875    h      1.000     0
         -3.70728190    7.93620845    0.90010165    h      1.000     0
          2.68661834   10.19061147    5.34488384    h      1.000     0
         -1.53741546   11.43099265   -4.21410243    h      1.000     0
          3.60018337    7.51242739    0.68681768    h      1.000     0
         -6.53962985    4.01840596    5.54606748    h      1.000     0
         -6.45708797    4.76035325    2.27082881    h      1.000     0
         -4.71409923    2.17169657    3.45368051    h      1.000     0
          2.70627305    4.75793962    9.34270677    h      1.000     0
          4.07967887    7.75950365    8.71198254    h      1.000     0
          1.44031248    7.47519201   10.78398052    h      1.000     0
          7.02169063    4.36199958   -4.16752519    h      1.000     0
          6.35594588    4.41905572   -0.87481613    h      1.000     0
          4.69076242    2.34725517   -2.89232787    h      1.000     0
         -1.16974665    7.00379505   -9.29240828    h      1.000     0
         -2.38514711    9.96067095   -8.25787842    h      1.000     0
          0.59636619    9.77323904   -9.81405106    h      1.000     0
         -3.79461554   11.76788866   -0.27982432    h      1.000     0
         -1.74499689   14.13458020   -1.41205213    h      1.000     0
         -3.28076223   13.55067339    4.12961016    h      1.000     0
         -4.56291081   15.76624936    1.99159439    h      1.000     0
          1.48963415   13.99706759    5.40659329    h      1.000     0
          3.36394537   16.26456071    3.85237408    h      1.000     0
          2.85417372   14.11970900   -0.22906310    h      1.000     0
          4.05044001   11.97036476    1.98823068    h      1.000     0
         -3.51159455    2.63217256   15.50051740    h      1.000     0
          5.97364935    5.40861283  -14.53780826    h      1.000     0
 
       center of nuclear mass  :    0.11145585    0.00015967   -0.04922609
       center of nuclear charge:    0.09650532    0.00009145   -0.04218219

              +--------------------------------------------------+
              |               basis set information              |
              +--------------------------------------------------+

              we will work with the 1s 3p 5d 7f 9g ... basis set
              ...i.e. with spherical basis functions...

   type   atoms  prim   cont   basis
   ---------------------------------------------------------------------------
    c       58     77     57   def2-QZVP   [7s4p3d2f1g|15s8p3d2f1g]
    n        6     77     57   def2-QZVP   [7s4p3d2f1g|15s8p3d2f1g]
    o        4     77     57   def2-QZVP   [7s4p3d2f1g|15s8p3d2f1g]
    h       62     33     30   def2-QZVP   [4s3p2d1f|7s3p2d1f]
   ---------------------------------------------------------------------------
   total:  130   7282   5736
   ---------------------------------------------------------------------------

   total number of primitive shells          :  100
   total number of contracted shells         : 1776
   total number of cartesian basis functions : 7066
   total number of SCF-basis functions       : 5736


 integral neglect threshold       :  0.47E-14
 integral storage threshold THIZE :  0.10E-04
 integral storage threshold THIME :         5

 RI-J AUXILIARY BASIS SET information:

              we will work with the 1s 3p 5d 7f 9g ... basis set
              ...i.e. with spherical basis functions...

   type   atoms  prim   cont   basis
   ---------------------------------------------------------------------------
    c       58     70     49   def2-QZVP   [6s4p3d1f1g|12s5p4d2f1g]
    n        6     70     49   def2-QZVP   [6s4p3d1f1g|12s5p4d2f1g]
    o        4     70     49   def2-QZVP   [6s4p3d1f1g|12s5p4d2f1g]
    h       62     16     11   def2-QZVP   [3s1p1d|5s2p1d]
   ---------------------------------------------------------------------------
   total:  130   5752   4014
   ---------------------------------------------------------------------------

   total number of primitive shells          :   80
   total number of contracted shells         : 1330
   total number of cartesian basis functions : 4892
   total number of SCF-basis functions       : 4014


 symmetry group of the molecule :   c1 

 the group has the following generators :
   c1(z)

    1 symmetry operations found

 there are 1 real representations :   a   

 maximum number of shells which are related by symmetry :  1


    mo occupation :
   irrep   mo's   occupied
    a     5736      242
 
 number of basis functions   :         5736
 number of occupied orbitals :          242
 
  
           ------------------
           density functional
           ------------------
 PBE functional
 exchange:    LDA + PBE
 correlation: LDA (PW) + PBE
 iterations will be done with small grid
  
 spherical integration : Lebedev's spherical grid
 spherical gridsize    :           5
    i.e. gridpoints    :         590
 value for diffuse not defined
 radial integration    : Chebyshev 2nd kind (scaling 3)
 radial gridsize       :           8
 integration cells     :         130
 partition function    : becke
 partition sharpness   :           3
  

 biggest AO integral is expected to be     6.990327543
  
           ------------------------
               RI-J - INFORMATION
           ------------------------
 Contributions to RI integral batches: 
  neglected integral batches:     1145137
  direct contribution:             413087
  memory contribution:       19752
 Memory core needed for (P|Q) and Cholesky    123 MByte
 Memory core minimum needed except of (P|Q)    14 MByte
 Total minimum memory core needed (sum)       137 MByte
  
 ****************************************
 Memory allocated for RI-J  1757 MByte
 ****************************************
                                            

          ------------------------
          nuclear repulsion energy  :   10192.1674592    
          ------------------------

 
          -----------------
          -S,T+V- integrals
          -----------------

 1e-integrals will be neglected if expon. factor < 0.472964E-15
 
   Difference densities algorithm switched on.
   The maximal number of linear combinations of
   difference densities is          20 .

 DIIS switched on: error vector is FDS-SDF
 Max. Iterations for DIIS is     :   4
 DIIS matrix (see manual) 
    Scaling factor of diagonals  :  1.200
    threshold for scaling factor :  0.000

 scf convergence criterion : increment of total energy < .1000000D-08
                  and increment of one-electron energy < .1000000D-05


 <geterg> : there is no data group $energy 

  MOs are in ASCII format !


 automatic virtual orbital shift switched on 
      shift if e(lumo)-e(homo) < 0.10000000    


 reading orbital data $scfmo  from file mos
 orbital characterization : scfconv=9

 DSCF restart information will be dumped onto file mos


 Starting SCF iterations

          Overall gridpoints after grid construction =        609007

 ITERATION  ENERGY          1e-ENERGY        2e-ENERGY     RMS[dD(SAO)]   TOL
   1  -2874.6462978874    -24211.671843     11144.858086    0.000D+00 0.472D-14
                            Exc = -411.193391908     Coul =  11556.0514778    
                              N = 483.99969943    
                            current damping = 0.700
 
          max. resid. norm for Fia-block=  1.518D-01 for orbital      4a         
          max. resid. fock norm         =  3.013D-01 for orbital   5566a         

 ITERATION  ENERGY          1e-ENERGY        2e-ENERGY     RMS[dD(SAO)]   TOL
   2  -2874.6913974481    -24211.949757     11145.090900    0.366D-03 0.291D-14
                            Exc = -410.832132620     Coul =  11555.9230326    
                              N = 483.99970570    
                            current damping = 0.650
 
          Norm of current diis error: 0.66471    
          max. resid. norm for Fia-block=  6.428D-02 for orbital      4a         
          max. resid. fock norm         =  1.234D-01 for orbital   5588a         

 ITERATION  ENERGY          1e-ENERGY        2e-ENERGY     RMS[dD(SAO)]   TOL
   3  -2874.6971343681    -24210.679772     11143.815178    0.185D-03 0.224D-14
                            Exc = -410.712728785     Coul =  11554.5279071    
                              N = 483.99970830    
                            current damping = 0.600
 
          Norm of current diis error: 0.38207    
          max. resid. norm for Fia-block=  2.632D-02 for orbital      3a         
          max. resid. fock norm         =  5.218D-02 for orbital   5586a         

 ITERATION  ENERGY          1e-ENERGY        2e-ENERGY     RMS[dD(SAO)]   TOL
   4  -2874.6990457343    -24211.322592     11144.456087    0.932D-04 0.208D-14
                            Exc = -410.617596218     Coul =  11555.0736833    
                              N = 483.99971195    
                            current damping = 0.650
 
          Norm of current diis error: 0.24100    
          max. resid. norm for Fia-block=  9.657D-03 for orbital      3a         
          max. resid. fock norm         =  1.843D-02 for orbital   5562a         

 ITERATION  ENERGY          1e-ENERGY        2e-ENERGY     RMS[dD(SAO)]   TOL
   5  -2874.7004063061    -24211.085241     11144.217376    0.380D-04 0.196D-14
                            Exc = -410.644314653     Coul =  11554.8616904    
                              N = 483.99971067    
                            current damping = 0.700
 
          Norm of current diis error: 0.97460E-01
          max. resid. norm for Fia-block=  3.922D-03 for orbital      3a         
          max. resid. fock norm         =  7.373D-03 for orbital   5571a         
          mo-orthogonalization: Cholesky decomposition

 ITERATION  ENERGY          1e-ENERGY        2e-ENERGY     RMS[dD(SAO)]   TOL
   6  -2874.7005673834    -24211.305340     11144.437314    0.134D-04 0.192D-14
                            Exc = -410.634712574     Coul =  11555.0720265    
                              N = 483.99971103    
                            current damping = 0.750
 
          Norm of current diis error: 0.42886E-01
          max. resid. norm for Fia-block=  1.613D-03 for orbital      2a         
          max. resid. fock norm         =  3.176D-03 for orbital   5584a         

 ITERATION  ENERGY          1e-ENERGY        2e-ENERGY     RMS[dD(SAO)]   TOL
   7  -2874.7005938982    -24211.007504     11144.139451    0.570D-05 0.190D-14
                            Exc = -410.623254668     Coul =  11554.7627054    
                              N = 483.99971149    
                            current damping = 0.800
 
          Norm of current diis error: 0.26652E-01
          max. resid. norm for Fia-block=  7.094D-04 for orbital      4a         
          max. resid. fock norm         =  1.348D-03 for orbital   5530a         

 ITERATION  ENERGY          1e-ENERGY        2e-ENERGY     RMS[dD(SAO)]   TOL
   8  -2874.7006075971    -24211.065032     11144.196965    0.247D-05 0.189D-14
                            Exc = -410.622685451     Coul =  11554.8196503    
                              N = 483.99971140    
                            current damping = 0.850
 
          Norm of current diis error: 0.83510E-02
          max. resid. norm for Fia-block=  3.143D-04 for orbital      4a         
          max. resid. fock norm         =  5.855D-04 for orbital   5562a         

 ITERATION  ENERGY          1e-ENERGY        2e-ENERGY     RMS[dD(SAO)]   TOL
   9  -2874.7006084988    -24211.102042     11144.233974    0.143D-05 0.187D-14
                            Exc = -410.625754537     Coul =  11554.8597286    
                              N = 483.99971134    
                            current damping = 0.700
 
          Norm of current diis error: 0.54548E-02
          max. resid. norm for Fia-block=  1.557D-04 for orbital      2a         
          max. resid. fock norm         =  3.298D-04 for orbital   5530a         

 ITERATION  ENERGY          1e-ENERGY        2e-ENERGY     RMS[dD(SAO)]   TOL
  10  -2874.7006091991    -24211.111976     11144.243908    0.661D-06 0.183D-14
                            Exc = -410.625064413     Coul =  11554.8689720    
                              N = 483.99971137    
                            current damping = 0.550
 
          Norm of current diis error: 0.20274E-02
          max. resid. norm for Fia-block=  6.459D-05 for orbital      3a         
          max. resid. fock norm         =  1.136D-04 for orbital   5584a         
          mo-orthogonalization: Cholesky decomposition

 ITERATION  ENERGY          1e-ENERGY        2e-ENERGY     RMS[dD(SAO)]   TOL
  11  -2874.7006092878    -24211.101788     11144.233719    0.280D-06 0.179D-14
                            Exc = -410.624769180     Coul =  11554.8584886    
                              N = 483.99971137    
                            current damping = 0.600
 
          Norm of current diis error: 0.45331E-03
          max. resid. norm for Fia-block=  2.451D-05 for orbital      2a         
          max. resid. fock norm         =  4.331D-05 for orbital   5530a         

 ITERATION  ENERGY          1e-ENERGY        2e-ENERGY     RMS[dD(SAO)]   TOL
  12  -2874.7006092893    -24211.103503     11144.235435    0.106D-06 0.176D-14
                            Exc = -410.624730811     Coul =  11554.8601656    
                              N = 483.99971138    
                            current damping = 0.650
 
          Norm of current diis error: 0.32493E-03
          max. resid. norm for Fia-block=  9.148D-06 for orbital      3a         
          max. resid. fock norm         =  1.538D-05 for orbital   5572a         

 DENSITY CONVERGED !


 ITERATION  ENERGY          1e-ENERGY        2e-ENERGY     RMS[dD(SAO)]   TOL
  13  -2874.7006092907    -24211.103534     11144.235466    0.427D-07 0.174D-14
                            Exc = -410.624767626     Coul =  11554.8602337    
                              N = 483.99971138    
                            current damping = 0.500
 
          Norm of current diis error: 0.10643E-03
          max. resid. norm for Fia-block=  3.812D-06 for orbital      2a         
          max. resid. fock norm         =  6.584D-06 for orbital   5690a         

 DENSITY CONVERGED !


 ITERATION  ENERGY          1e-ENERGY        2e-ENERGY     RMS[dD(SAO)]   TOL
  14  -2874.7006092900    -24211.103239     11144.235170    0.169D-07 0.173D-14
                            Exc = -410.624750909     Coul =  11554.8599214    
                              N = 483.99971138    
                            current damping = 0.550
 
          Norm of current diis error: 0.75356E-04
          max. resid. norm for Fia-block=  1.303D-06 for orbital      4a         
          max. resid. fock norm         =  2.155D-06 for orbital   5735a         

 DENSITY CONVERGED !


 ITERATION  ENERGY          1e-ENERGY        2e-ENERGY     RMS[dD(SAO)]   TOL
  15  -2874.7006092897    -24211.103190     11144.235121    0.751D-08 0.171D-14
                            Exc = -410.624755731     Coul =  11554.8598769    
                              N = 483.99971138    
                            current damping = 0.400
 
          Norm of current diis error: 0.33381E-04
          max. resid. norm for Fia-block=  4.993D-07 for orbital      2a         
          max. resid. fock norm         =  8.711D-07 for orbital   5694a         
          mo-orthogonalization: Cholesky decomposition

 DENSITY CONVERGED !


 ITERATION  ENERGY          1e-ENERGY        2e-ENERGY     RMS[dD(SAO)]   TOL
  16  -2874.7006092899    -24211.103272     11144.235203    0.315D-08 0.169D-14
                            Exc = -410.624755823     Coul =  11554.8599590    
                              N = 483.99971138    
                            current damping = 0.450
 
          Norm of current diis error: 0.96387E-05
          max. resid. norm for Fia-block=  2.060D-07 for orbital    232a         
          max. resid. fock norm         =  3.082D-07 for orbital   5513a         

 ENERGY & DENSITY CONVERGED !

          Overall gridpoints after grid construction =       1944734

 ITERATION  ENERGY          1e-ENERGY        2e-ENERGY     RMS[dD(SAO)]   TOL
  17  -2874.7006649736    -24211.103269     11144.235144    0.147D-08 0.167D-14
                            Exc = -410.624814046     Coul =  11554.8599584    
                              N = 483.99997655    
                            current damping = 0.500
 
          Norm of current diis error: 0.79582E-05
          max. resid. norm for Fia-block=  9.887D-08 for orbital    232a         
          max. resid. fock norm         =  1.649D-07 for orbital   5530a         

 End of SCF iterations

   convergence criteria satisfied after   17 iterations


                  ------------------------------------------ 
                 |  total energy      =  -2874.70066497364  |
                  ------------------------------------------ 
                 :  kinetic energy    =   2861.86942876472  :
                 :  potential energy  =  -5736.57009373836  :
                 :  virial theorem    =      1.99553649659  :
                 :  wavefunction norm =      1.00000000000  :
                  .......................................... 


 <geterg> : there is no data group $energy 


 <skperg> : $end is missing 


 orbitals $scfmo  will be written to file mos

    irrep                238a        239a        240a        241a        242a   
 eigenvalues H         -0.21887    -0.21382    -0.21201    -0.20091    -0.19942
            eV          -5.9558     -5.8184     -5.7691     -5.4670     -5.4266
 occupation              2.0000      2.0000      2.0000      2.0000      2.0000 

    irrep                243a        244a        245a        246a        247a   
 eigenvalues H         -0.10505    -0.10337    -0.10024    -0.09831    -0.05412
            eV          -2.8585     -2.8130     -2.7276     -2.6753     -1.4728
 
 
 
 
 ==============================================================================
                           electrostatic moments
 ==============================================================================

 reference point for electrostatic moments:    0.00000   0.00000   0.00000

 
              nuc           elec       ->  total
 ------------------------------------------------------------------------------
                          charge      
 ------------------------------------------------------------------------------
         484.000000    -484.000000       0.000000
 
 ------------------------------------------------------------------------------
                       dipole moment  
 ------------------------------------------------------------------------------
   x      46.708577     -46.928431      -0.219854
   y       0.044264      -0.049575      -0.005311
   z     -20.416180      20.557092       0.140912
 
   | dipole moment | =     0.2612 a.u. =     0.6639 debye 
 
 ------------------------------------------------------------------------------
                     quadrupole moment
 ------------------------------------------------------------------------------
  xx    4870.663635   -5164.981962    -294.318326
  yy   34072.134998  -34389.557874    -317.422876
  zz   29256.415429  -29554.590352    -298.174922
  xy    2158.769889   -2160.496664      -1.726775
  xz   -7841.334914    7847.425010       6.090096
  yz     892.495749    -894.912343      -2.416595
 
     1/3  trace=    -303.305375
     anisotropy=      24.440161
 
 ==============================================================================
 


    ------------------------------------------------------------------------
         total  cpu-time :  4 hours  1 minutes and 34 seconds
         total wall-time :  4 hours  2 minutes and 56 seconds
    ------------------------------------------------------------------------

   ****  ridft : all done  ****


    2016-06-24 23:56:53.315 

