Using Slurm to start processes with PMI2
STARTING ridft ON 8 PROCESSORS!
RUNNING PROGRAM /beegfs/modfac/apps/TURBOMOLE/7.0_intel_GA/bin/em64t-unknown-linux-gnu_mpi/ridft_mpi.
PLEASE WAIT UNTIL ridft HAS FINISHED.
Look for the output in slave1.output.
  this is node-proc. number 1 running on node c-5-27.local
  the total number of node-proc. spawned is            8
  parallel platform: MPP, or cluster with fast interconnect

 ridft (c-5-27.local) : TURBOMOLE V7.0.2( ) 15 Jan 2016 at 17:47:42
 Copyright (C) 2016 TURBOMOLE GmbH, Karlsruhe


    2017-11-18 05:45:38.360 



                                  r i d f t

                        DFT program with RI approximation 
                                for coulomb part 




                                                 
                                 References:     
                                                 
          TURBOMOLE:                             
              R. Ahlrichs, M. Baer, M. Haeser, H. Horn, and
              C. Koelmel
              Electronic structure calculations on workstation
              computers: the program system TURBOMOLE
              Chem. Phys. Lett. 162: 165 (1989)
          Density Functional:                              
              O. Treutler and R. Ahlrichs                      
              Efficient Molecular Numerical Integration Schemes
              J. Chem. Phys. 102: 346 (1995)                   
          Parallel Version:                                
              Performance of parallel TURBOMOLE for Density    
              Functional Calculations                          
              M. v. Arnim and R. Ahlrichs                      
              J. Comp. Chem. 19: 1746 (1998)                   
          RI-J Method:                                     
              Auxiliary Basis Sets to approximate Coulomb      
              Potentials                                       
              Chem. Phys. Lett. 240: 283 (1995)                
              K. Eichkorn, O. Treutler, H. Oehm, M. Haeser     
              and R. Ahlrichs                                  
              Chem. Phys. Lett. 242: 652 (1995)                
                                                           
              Auxiliary Basis Sets for Main Row Atoms and their
              Use to approximate Coulomb Potentials            
              K. Eichkorn, F. Weigend, O. Treutler and         
              R. Ahlrichs                                      
              Theo. Chem. Acc. 97: 119 (1997)                   
                                                           
              Accurate Coulomb-fitting basis sets for H to Rn 
              F. Weigend                                        
              Phys. Chem. Chem. Phys. 8: 1057 (2006)            
                                                           
          Multipole accelerated RI-J (MARI-J):             
              Fast evaluation of the Coulomb potential for     
              electron densities using multipole accelerated   
              resolution of identity approximation             
              M. Sierka, A. Hogekamp and R. Ahlrichs           
              J. Chem. Phys. 118: 9136 (2003)                  
          RI-JK Method:                                     
              A fully direct RI-HF algorithm: Implementation,
              optimised auxiliary basis sets, demonstration of
              accuracy and efficiency                         
              F. Weigend                                      
              Phys. Chem. Chem. Phys. 4: 4285 (2002)           
          Two-component HF and DFT with spin-orbit coupling:  
              Self-consistent treatment of spin-orbit         
              interactions with efficient Hartree-Fock and    
              density functional methods                      
              M. K. Armbruster, F. Weigend, C. van Wüllen and 
              W. Klopper                                      
              Phys. Chem. Chem. Phys. 10: 1748 (2008)         
          Relativistic all-electron 2c calculations           
              An efficient implementation of two-component    
              relativistic exact-decoupling methods for large 
              molecules                                       
              D. Peng, N. Middendorf, F. Weigend, M. Reiher   
              J. Chem. Phys. 138, 184105 (2013)               
                                         


 


              +--------------------------------------------------+
              |      general information about current run       |
              +--------------------------------------------------+

 

 SCF run will be profiled !


 DENSITY CONVERGENCE CHECK SWITCHED ON !
 SCF CONVERGENCE IF RMS(delta[D]) <     0.1000000000E-06

 TPSS meta-GGA functional
 exchange:    LDA + TPSS
 correlation: LDA (PW) + TPSS
 A DFT calculation using the RI-J approximation will be carried out.
 Allocatable memory for RI due to $ricore (MB):        7000


              +--------------------------------------------------+
              | Atomic coordinate, charge and isotop information |
              +--------------------------------------------------+

                    atomic coordinates            atom    charge  isotop
         -0.14230526   -2.44974723    7.80850844    c      0.000     0
          0.95815540   -2.13047120    5.46128660    c      0.000     0
         -0.36350885   -0.96463565    3.44779494    c      0.000     0
         -2.88283920   -0.12582590    3.92118513    c      0.000     0
         -3.97078987   -0.47298862    6.33968441    c      0.000     0
         -2.62880237   -1.61595886    8.26016433    c      0.000     0
         -4.26306550    1.05453880    1.93502230    c      0.000     0
         -3.22146886    1.39511696   -0.40392046    c      0.000     0
         -0.71045879    0.58842047   -0.96794343    c      0.000     0
          0.72718192   -0.59534367    0.96240898    c      0.000     0
          3.23900703   -1.39998773    0.39899148    c      0.000     0
          4.28133027   -1.05767008   -1.93938511    c      0.000     0
          2.90039173    0.12095192   -3.92611731    c      0.000     0
          0.37994928    0.95696506   -3.45358184    c      0.000     0
         -0.94326077    2.11915400   -5.46816691    c      0.000     0
          0.15712430    2.43844100   -7.81540330    c      0.000     0
          2.64537338    1.60916133   -8.26573807    c      0.000     0
          3.98861793    0.46905251   -6.34440589    c      0.000     0
          5.39238511    5.86136298   -3.05655019    c      6.000     0
          3.79569333    7.40629460   -4.51205468    c      6.000     0
          1.62785412    8.41360253   -3.34714926    c      6.000     0
          1.08064461    7.88579994   -0.84253629    c      6.000     0
          2.66178357    6.31416555    0.60750273    c      6.000     0
          4.83471653    5.32426275   -0.55534138    c      6.000     0
          2.05034265    5.70687277    3.25380038    c      6.000     0
         -0.44162616    5.88247632    4.15551268    c      6.000     0
         -1.02774456    5.27455218    6.63375981    c      6.000     0
          0.85174700    4.45430068    8.32178527    c      6.000     0
          3.35107630    4.29303769    7.42818424    c      6.000     0
          3.93570030    4.91410563    4.95358881    c      6.000     0
          0.21044179    3.73291700   10.91767711    c      6.000     0
         -2.06698263    4.50392716   12.06330166    c      6.000     0
         -2.67972576    3.70616434   14.46121427    c      6.000     0
         -1.09657085    2.18890946   15.78011877    n      7.000     0
          1.14563607    1.45739497   14.77932963    c      6.000     0
          1.82406439    2.20475236   12.38148392    c      6.000     0
         -1.92203554    1.06278273   18.24361867    c      6.000     0
         -3.04301692   -1.50991235   17.71740761    c      6.000     0
         -5.56313812   -1.75047826   16.95089349    c      6.000     0
         -6.49549743   -4.09269799   16.19371084    c      6.000     0
         -4.91588046   -6.21428899   16.19751240    c      6.000     0
         -2.42440581   -5.99125708   17.05136834    c      6.000     0
         -1.49138169   -3.64773269   17.80817739    c      6.000     0
         -5.80666410   -8.69278840   15.09525178    c      6.000     0
         -5.38962176   -8.61919320   12.29539953    n      7.000     0
         -3.04008066   -9.08606894   11.38658563    c      6.000     0
         -2.50996297   -8.73629651    8.86393390    c      6.000     0
         -4.38403102   -7.88358159    7.17796579    c      6.000     0
         -6.81379950   -7.48949111    8.19488015    c      6.000     0
         -7.26299912   -7.85109701   10.73067756    c      6.000     0
         -3.82398215   -7.39631061    4.50974449    c      6.000     0
         -5.41179543   -5.85031356    3.04545183    c      6.000     0
         -4.84469448   -5.32057684    0.54481296    c      6.000     0
         -2.67001144   -6.31795124   -0.60825409    c      6.000     0
         -1.09766783   -7.89045830    0.85016983    c      6.000     0
         -1.65517654   -8.41209717    3.35382075    c      6.000     0
         -2.04766377   -5.71599051   -3.25314067    c      6.000     0
          0.44871037   -5.88847450   -4.14282808    c      6.000     0
          1.04542144   -5.28195802   -6.61900559    c      6.000     0
         -0.82774710   -4.46778388   -8.31708703    c      6.000     0
         -3.33184380   -4.31221142   -7.43562957    c      6.000     0
         -3.92691024   -4.93035387   -4.96286963    c      6.000     0
          4.34637445    7.90118363   -7.18064674    c      6.000     0
          2.46198831    8.74024245   -8.86177754    c      6.000     0
          2.98422168    9.09671755  -11.38525167    c      6.000     0
          5.33597263    8.65074161  -12.29865137    n      7.000     0
          7.21896831    7.89740702  -10.73821341    c      6.000     0
          6.77758649    7.52875830   -8.20211458    c      6.000     0
          5.74752210    8.72826744  -15.09914896    c      6.000     0
          4.88494035    6.23838092  -16.19841909    c      6.000     0
          6.48664860    4.13340572  -16.18676723    c      6.000     0
          5.57990358    1.77962861  -16.93915073    c      6.000     0
          3.06393203    1.51101859  -17.70994338    c      6.000     0
          1.49047878    3.63245633  -17.80947771    c      6.000     0
          2.39749498    5.98731342  -17.05609058    c      6.000     0
          1.97095752   -1.07432178  -18.23259986    c      6.000     0
          1.14347026   -2.20021702  -15.76957107    n      7.000     0
          2.73189184   -3.70172859  -14.43903096    c      6.000     0
          2.11324766   -4.49969455  -12.04259726    c      6.000     0
         -0.17672964   -3.74592210  -10.91055512    c      6.000     0
         -1.79418479   -2.23273070  -12.38572617    c      6.000     0
         -1.10924675   -1.48435663  -14.78127038    c      6.000     0
          1.95830864   -6.41883446   -2.86427018    h      1.000     0
          3.00739502   -5.36019873   -7.20447052    h      1.000     0
         -4.84256929   -3.75083633   -8.70256433    h      1.000     0
         -5.88505013   -4.83649703   -4.36334117    h      1.000     0
          3.43204993   -5.72699476  -11.07323710    h      1.000     0
          4.48130487   -4.22194222  -15.36364618    h      1.000     0
         -2.30040009   -0.33419542  -16.00909669    h      1.000     0
         -3.58860712   -1.57176799  -11.65875476    h      1.000     0
          0.28513492   -0.95454716  -19.42078236    h      1.000     0
          3.34808864   -2.36988419  -19.05076662    h      1.000     0
          6.82899460    0.14921788  -16.90210227    h      1.000     0
          8.43639470    4.32190307  -15.56814195    h      1.000     0
          1.17683791    7.64404085  -17.09668265    h      1.000     0
         -0.45257939    3.41268949  -18.45168545    h      1.000     0
          7.75543057    9.07778741  -15.40000017    h      1.000     0
          4.61712855   10.30161298  -15.81663168    h      1.000     0
          1.60122712    9.76466506  -12.76026308    h      1.000     0
          0.54457731    9.07169247   -8.22988222    h      1.000     0
          8.35437190    6.96173898   -7.02847315    h      1.000     0
          9.05394303    7.61236092  -11.59702629    h      1.000     0
          0.37939143    9.66320718   -4.38778062    h      1.000     0
         -0.57909524    8.73693372    0.00783480    h      1.000     0
          6.06077293    4.04982162    0.47799149    h      1.000     0
          7.04284621    4.99259692   -3.90474470    h      1.000     0
         -1.95673336    6.41716205    2.88534101    h      1.000     0
         -2.98660765    5.35596461    7.22921932    h      1.000     0
          4.86607503    3.72570940    8.68743008    h      1.000     0
          5.89083458    4.81673711    4.34491710    h      1.000     0
         -3.37949249    5.74516259   11.10319247    h      1.000     0
         -4.41918843    4.23998835   15.39676798    h      1.000     0
          2.33299201    0.29502858   15.99980245    h      1.000     0
          3.60944343    1.53150417   11.64344571    h      1.000     0
         -0.23158688    0.92267636   19.42272746    h      1.000     0
         -3.28214419    2.36886374   19.07347470    h      1.000     0
         -6.79553549   -0.10726407   16.92047287    h      1.000     0
         -8.44812915   -4.25947615   15.57796475    h      1.000     0
         -1.22125781   -7.66089343   17.08671302    h      1.000     0
          0.45553077   -3.44933525   18.44564740    h      1.000     0
         -7.81912927   -9.01817373   15.39261984    h      1.000     0
         -4.69650537  -10.28010960   15.81379350    h      1.000     0
         -1.66598010   -9.76539752   12.76469619    h      1.000     0
         -0.59415163   -9.08471004    8.23647056    h      1.000     0
         -8.38367418   -6.90973750    7.01829584    h      1.000     0
         -9.09679559   -7.54800988   11.58588390    h      1.000     0
         -0.41333432   -9.66282923    4.40087850    h      1.000     0
          0.56307848   -8.74684194    0.00691281    h      1.000     0
         -6.06412946   -4.04590441   -0.49611925    h      1.000     0
         -7.06307913   -4.97533351    3.88564883    h      1.000     0
         -2.86223211    2.78009668   -5.18853790    h      0.000     0
          5.91150554   -0.18369329   -6.65805772    h      0.000     0
         -0.91032719    3.33644150   -9.32108965    h      0.000     0
          3.49681500    1.86741433  -10.11650807    h      0.000     0
          6.19979554   -1.68874979   -2.31698679    h      0.000     0
          4.35824949   -2.30705854    1.85577116    h      0.000     0
         -4.34031882    2.30327777   -1.86031897    h      0.000     0
         -6.18061464    1.68786823    2.31349212    h      0.000     0
         -5.89264324    0.18240506    6.65410725    h      0.000     0
         -3.48034981   -1.87400947   10.11092827    h      0.000     0
          2.87573685   -2.79505216    5.18066851    h      0.000     0
          0.92373631   -3.35162469    9.31287746    h      0.000     0
          4.56284957   -0.83689602   19.79105115    cl    17.000     0
         -0.08538217  -12.47792250   16.06084930    cl    17.000     0
         -0.02691329   12.43636629  -16.06243648    cl    17.000     0
         -4.51593353    0.73774549  -19.83306486    cl    17.000     0
 
       center of nuclear mass  :   -0.00143859   -0.00343177   -0.00106416
       center of nuclear charge:   -0.00358693   -0.00298257   -0.00051803

              +--------------------------------------------------+
              |               basis set information              |
              +--------------------------------------------------+

              we will work with the 1s 3p 5d 7f 9g ... basis set
              ...i.e. with spherical basis functions...

   type   atoms  prim   cont   basis
   ---------------------------------------------------------------------------
    c       78     77     55   cc-pVQZ   [5s4p3d2f1g|21s6p3d2f1g]
    n        4     77     55   cc-pVQZ   [5s4p3d2f1g|21s6p3d2f1g]
    h       60     32     30   cc-pVQZ   [4s3p2d1f|6s3p2d1f]
    cl       4    137     59   cc-pVQZ   [6s5p3d2f1g|42s19p3d2f1g]
   ---------------------------------------------------------------------------
   total:  146   8782   6546
   ---------------------------------------------------------------------------

   total number of primitive shells          :  145
   total number of contracted shells         : 1898
   total number of cartesian basis functions : 8136
   total number of SCF-basis functions       : 6546


 integral neglect threshold       :  0.41E-14
 integral storage threshold THIZE :  0.10E-04
 integral storage threshold THIME :         5

 RI-J AUXILIARY BASIS SET information:

              we will work with the 1s 3p 5d 7f 9g ... basis set
              ...i.e. with spherical basis functions...

   type   atoms  prim   cont   basis
   ---------------------------------------------------------------------------
    c       78     70     49   cc-pVQZ   [6s4p3d1f1g|12s5p4d2f1g]
    n        4     70     49   cc-pVQZ   [6s4p3d1f1g|12s5p4d2f1g]
    h       60     16     11   cc-pVQZ   [3s1p1d|5s2p1d]
    cl       4     77     51   cc-pVQZ   [8s4p3d1f1g|14s5p5d2f1g]
   ---------------------------------------------------------------------------
   total:  146   7008   4882
   ---------------------------------------------------------------------------

   total number of primitive shells          :   83
   total number of contracted shells         : 1598
   total number of cartesian basis functions : 5974
   total number of SCF-basis functions       : 4882


 symmetry group of the molecule :   c1 

 the group has the following generators :
   c1(z)

    1 symmetry operations found

 there are 1 real representations :   a   

 maximum number of shells which are related by symmetry :  1


    mo occupation :
   irrep   mo's   occupied
    a     6546      252
 
 number of basis functions   :         6546
 number of occupied orbitals :          252
 
  
           ------------------
           density functional
           ------------------
 Dummy atoms with grid-point found.
 DFT quadrature threshold dgrenze tightened by factor 1/10.

 TPSS meta-GGA functional
 exchange:    LDA + TPSS
 correlation: LDA (PW) + TPSS
 Dummy atoms with grid-point found.
 DFT quadrature threshold dgrenze tightened by factor 1/10.

 Dummy atoms with grid-point found.
 DFT quadrature threshold dgrenze tightened by factor 1/10.

 grinp -> nfun, dfgga, dfhybrid 
           5 F F
 iterations will be done with small grid
  
 spherical integration : Lebedev's spherical grid
 spherical gridsize    :           5
    i.e. gridpoints    :         590
 value for diffuse not defined
 radial integration    : Chebyshev 2nd kind (scaling 3)
 radial gridsize       :           8
 integration cells     :         146
 partition function    : becke
 partition sharpness   :           3
  
 found dummy atom(s) with basis: included in dft

 <rddim> : input of entry tasksize
           from data group '$pardft' failed !

               Default values taken

 <rddim> : input of entry memdiv
           from data group '$pardft' failed !

               Default values taken
  RIDFT: memory allocation for DFT gridpoints
  MEMORY is divided by 1 as DEFAULT
 Each node can hold at most  the            1 -th part
 of the gridpoints    

 biggest AO integral is expected to be    10.299525420
  
           ------------------------
               RI-J - INFORMATION
           ------------------------
 
 
 **************************************************
 *      MEMORY ALLOCATION FOR PARALLEL RI-DFT     *
 **************************************************
 
 
MEMORY FOR (MU NU/ ALPHA), SEQUENTIAL RUN               6803 MByte
 
            DIFFERENCE IN MEMORY NEED:       DIAG./SLAVE  
 
      TOTAL DIFFERENCE :                   1936 MByte
 
      difference in xcore:                  198 MByte
      difference in fatmat:                 579 MByte
      getcor calls skipped by slaves:      1160 MByte
 
 
           Integral memory available for diagonal.      6803 MByte
 
           Integral memory available for slave             0 MByte
 
         MEMORY FOR (MU NU/ ALPHA) ON DIAGONALIZER      6803 MByte
 
         MEMORY FOR (MU NU/ ALPHA) ON ONE SLAVE            0 MByte
 
         TOTAL MEMORY FOR (MU NU/ ALPHA),ALL NODES      6803 MByte
 
 Contributions to RI integral batches: 
  neglected integral batches:     1302386
  direct contribution:             453148
  memory contribution:       46617
 Memory core needed for (P|Q) and Cholesky    182 MByte
 Memory core minimum needed except of (P|Q)    17 MByte
 Total minimum memory core needed (sum)       199 MByte
     number of direct tasks:         160
  
 ****************************************
 Memory allocated for RI-J  7002 MByte
 ****************************************
                                            

          ------------------------
          nuclear repulsion energy  :   9734.15431775    
          ------------------------

 
          -----------------
          -S integrals
          -----------------

 1e-integrals will be neglected if expon. factor < 0.410762E-15
 
          -----------------
          -T+V integrals
          -----------------

 1e-integrals will be neglected if expon. factor < 0.410762E-15
 Difference densities >>NOT<< switched on in parallel ridft!

 automatic virtual orbital shift switched on 
      shift if e(lumo)-e(homo) < 0.10000000    


 DIIS switched on: error vector is FDS-SDF
 Max. Iterations for DIIS is     :   4
 DIIS matrix (see manual) 
    Scaling factor of diagonals  :  1.200
    threshold for scaling factor :  0.000

 scf convergence criterion : increment of total energy < .1000000D-08
                  and increment of one-electron energy < .1000000D-05


 <geterg> : there is no data group $energy 

  MOs are in ASCII format !


 reading orbital data $scfmo  from file mos . 

 orbital characterization : expanded
 
 mo provided and orthogonalized by Cholesky decomposition

 DSCF restart information will be dumped onto file mos


 Starting SCF iterations


 ITERATION  ENERGY          1e-ENERGY        2e-ENERGY     RMS[dD(SAO)]   TOL
   1  -4368.1059887266    -25247.164415     11144.904109    0.000D+00 0.410D-14
                            Exc = -476.121365225     Coul =  11621.0254739    
                              N = 503.99800004    
                            current damping = 0.700
 
          max. resid. norm for Fia-block=  3.158D-01 for orbital      5a         
          max. resid. fock norm         =  1.202D+01 for orbital   5761a         

 ITERATION  ENERGY          1e-ENERGY        2e-ENERGY     RMS[dD(SAO)]   TOL
   2  -4374.7907132039    -25318.489444     11209.544413    0.843D-02 0.410D-14
                            Exc = -482.020306753     Coul =  11691.5647197    
                              N = 503.99832160    
                            current damping = 0.650
 
          Norm of current diis error:  9.4071    
          max. resid. norm for Fia-block=  1.339D-01 for orbital      5a         
          max. resid. fock norm         =  2.727D-01 for orbital   6470a         

 ITERATION  ENERGY          1e-ENERGY        2e-ENERGY     RMS[dD(SAO)]   TOL
   3  -4376.2081491999    -25334.029881     11223.667414    0.233D-02 0.410D-14
                            Exc = -483.676074704     Coul =  11707.3434885    
                              N = 503.99847226    
                            current damping = 0.550
 
          Norm of current diis error:  4.4747    
          max. resid. norm for Fia-block=  5.585D-02 for orbital     96a         
          max. resid. fock norm         =  8.115D-02 for orbital   3979a         
          irrep a   : virtual orbitals shifted by    0.03123

 ITERATION  ENERGY          1e-ENERGY        2e-ENERGY     RMS[dD(SAO)]   TOL
   4  -4376.6194535672    -25348.130427     11237.356655    0.793D-03 0.410D-14
                            Exc = -484.763943676     Coul =  11722.1205989    
                              N = 503.99854268    
                            current damping = 0.450
 
          Norm of current diis error:  1.7430    
          max. resid. norm for Fia-block=  2.319D-02 for orbital     87a         
          max. resid. fock norm         =  4.423D-02 for orbital   3913a         
          irrep a   : virtual orbitals shifted by    0.10262

 ITERATION  ENERGY          1e-ENERGY        2e-ENERGY     RMS[dD(SAO)]   TOL
   5  -4376.6912483295    -25350.921426     11240.075860    0.396D-03 0.410D-14
                            Exc = -485.111630607     Coul =  11725.1874905    
                              N = 503.99859168    
                            current damping = 0.350
 
          Norm of current diis error: 0.76154    
          max. resid. norm for Fia-block=  1.098D-02 for orbital     88a         
          max. resid. fock norm         =  1.778D-02 for orbital   6291a         
          irrep a   : virtual orbitals shifted by    0.09705
          mo-orthogonalization: Cholesky decomposition

 ITERATION  ENERGY          1e-ENERGY        2e-ENERGY     RMS[dD(SAO)]   TOL
   6  -4376.7062337190    -25354.672700     11243.812149    0.209D-03 0.410D-14
                            Exc = -485.347077251     Coul =  11729.1592258    
                              N = 503.99860225    
                            current damping = 0.250
 
          Norm of current diis error: 0.42081    
          max. resid. norm for Fia-block=  4.882D-03 for orbital    241a         
          max. resid. fock norm         =  1.106D-02 for orbital   6253a         
          irrep a   : virtual orbitals shifted by    0.11134

 ITERATION  ENERGY          1e-ENERGY        2e-ENERGY     RMS[dD(SAO)]   TOL
   7  -4376.7115866636    -25355.097312     11244.231408    0.952D-04 0.410D-14
                            Exc = -485.367089160     Coul =  11729.5984971    
                              N = 503.99861716    
                            current damping = 0.100
 
          Norm of current diis error: 0.11166    
          max. resid. norm for Fia-block=  3.275D-03 for orbital    241a         
          max. resid. fock norm         =  5.944D-03 for orbital   3856a         
          irrep a   : virtual orbitals shifted by    0.09633

 ITERATION  ENERGY          1e-ENERGY        2e-ENERGY     RMS[dD(SAO)]   TOL
   8  -4376.7125347062    -25355.074482     11244.207629    0.384D-04 0.410D-14
                            Exc = -485.382286823     Coul =  11729.5899159    
                              N = 503.99862344    
                            current damping = 0.150
 
          Norm of current diis error: 0.85883E-01
          max. resid. norm for Fia-block=  2.552D-03 for orbital    241a         
          max. resid. fock norm         =  2.988D-03 for orbital    253a         
          irrep a   : virtual orbitals shifted by    0.10365

 ITERATION  ENERGY          1e-ENERGY        2e-ENERGY     RMS[dD(SAO)]   TOL
   9  -4376.7130994915    -25355.479148     11244.611731    0.185D-04 0.410D-14
                            Exc = -485.384627277     Coul =  11729.9963582    
                              N = 503.99862602    
                            current damping = 0.200
 
          Norm of current diis error: 0.38824E-01
          max. resid. norm for Fia-block=  1.722D-03 for orbital    241a         
          max. resid. fock norm         =  1.905D-03 for orbital   3051a         
          irrep a   : virtual orbitals shifted by    0.08355

 ITERATION  ENERGY          1e-ENERGY        2e-ENERGY     RMS[dD(SAO)]   TOL
  10  -4376.7133501270    -25355.620799     11244.753132    0.158D-04 0.410D-14
                            Exc = -485.387673039     Coul =  11730.1408046    
                              N = 503.99862812    
                            current damping = 0.050
 
          Norm of current diis error: 0.24000E-01
          max. resid. norm for Fia-block=  1.127D-03 for orbital    241a         
          max. resid. fock norm         =  1.225D-03 for orbital    253a         
          irrep a   : virtual orbitals shifted by    0.09888
          mo-orthogonalization: Cholesky decomposition

 ITERATION  ENERGY          1e-ENERGY        2e-ENERGY     RMS[dD(SAO)]   TOL
  11  -4376.7134833094    -25355.583693     11244.715892    0.126D-04 0.410D-14
                            Exc = -485.386524606     Coul =  11730.1024163    
                              N = 503.99862981    
                            current damping = 0.100
 
          Norm of current diis error: 0.22404E-01
          max. resid. norm for Fia-block=  9.124D-04 for orbital    241a         
          max. resid. fock norm         =  1.147D-03 for orbital    254a         
          irrep a   : virtual orbitals shifted by    0.09953

 ITERATION  ENERGY          1e-ENERGY        2e-ENERGY     RMS[dD(SAO)]   TOL
  12  -4376.7135668433    -25355.723497     11244.855612    0.724D-05 0.410D-14
                            Exc = -485.388182977     Coul =  11730.2437950    
                              N = 503.99862986    
                            current damping = 0.150
 
          Norm of current diis error: 0.19595E-01
          max. resid. norm for Fia-block=  7.822D-04 for orbital    242a         
          max. resid. fock norm         =  1.142D-03 for orbital   3020a         
          irrep a   : virtual orbitals shifted by    0.09768

 ITERATION  ENERGY          1e-ENERGY        2e-ENERGY     RMS[dD(SAO)]   TOL
  13  -4376.7136244261    -25355.680618     11244.812676    0.895D-05 0.410D-14
                            Exc = -485.389517570     Coul =  11730.2021931    
                              N = 503.99863080    
                            current damping = 0.200
 
          Norm of current diis error: 0.95260E-02
          max. resid. norm for Fia-block=  6.332D-04 for orbital    251a         
          max. resid. fock norm         =  8.005D-04 for orbital    254a         
          irrep a   : virtual orbitals shifted by    0.09832

 ITERATION  ENERGY          1e-ENERGY        2e-ENERGY     RMS[dD(SAO)]   TOL
  14  -4376.7136630994    -25355.751418     11244.883437    0.487D-05 0.410D-14
                            Exc = -485.388209852     Coul =  11730.2716473    
                              N = 503.99863069    
                            current damping = 0.250
 
          Norm of current diis error: 0.10275E-01
          max. resid. norm for Fia-block=  5.384D-04 for orbital    251a         
          max. resid. fock norm         =  6.145D-04 for orbital    254a         
          irrep a   : virtual orbitals shifted by    0.09772

 ITERATION  ENERGY          1e-ENERGY        2e-ENERGY     RMS[dD(SAO)]   TOL
  15  -4376.7136911918    -25355.773760     11244.905751    0.396D-05 0.410D-14
                            Exc = -485.388725800     Coul =  11730.2944771    
                              N = 503.99863078    
                            current damping = 0.100
 
          Norm of current diis error: 0.93314E-02
          max. resid. norm for Fia-block=  4.760D-04 for orbital    251a         
          max. resid. fock norm         =  5.003D-04 for orbital    254a         
          irrep a   : virtual orbitals shifted by    0.09752
          mo-orthogonalization: Cholesky decomposition

 ITERATION  ENERGY          1e-ENERGY        2e-ENERGY     RMS[dD(SAO)]   TOL
  16  -4376.7137141589    -25355.780869     11244.912837    0.368D-05 0.410D-14
                            Exc = -485.389188704     Coul =  11730.3020258    
                              N = 503.99863091    
                            current damping = 0.050
 
          Norm of current diis error: 0.61365E-02
          max. resid. norm for Fia-block=  4.183D-04 for orbital    251a         
          max. resid. fock norm         =  4.295D-04 for orbital    254a         
          irrep a   : virtual orbitals shifted by    0.09730

 ITERATION  ENERGY          1e-ENERGY        2e-ENERGY     RMS[dD(SAO)]   TOL
  17  -4376.7137306430    -25355.769420     11244.901371    0.314D-05 0.410D-14
                            Exc = -485.389395067     Coul =  11730.2907663    
                              N = 503.99863102    
                            current damping = 0.100
 
          Norm of current diis error: 0.61823E-02
          max. resid. norm for Fia-block=  3.779D-04 for orbital    251a         
          max. resid. fock norm         =  3.908D-04 for orbital    254a         
          irrep a   : virtual orbitals shifted by    0.09702

 ITERATION  ENERGY          1e-ENERGY        2e-ENERGY     RMS[dD(SAO)]   TOL
  18  -4376.7137433475    -25355.770300     11244.902239    0.249D-05 0.410D-14
                            Exc = -485.389939875     Coul =  11730.2921784    
                              N = 503.99863095    
                            current damping = 0.150
 
          Norm of current diis error: 0.41796E-02
          max. resid. norm for Fia-block=  3.811D-04 for orbital    251a         
          max. resid. fock norm         =  3.980D-04 for orbital    254a         
          irrep a   : virtual orbitals shifted by    0.09706

 ITERATION  ENERGY          1e-ENERGY        2e-ENERGY     RMS[dD(SAO)]   TOL
  19  -4376.7137538633    -25355.786349     11244.918278    0.220D-05 0.410D-14
                            Exc = -485.389613554     Coul =  11730.3078914    
                              N = 503.99863083    
                            current damping = 0.050
 
          Norm of current diis error: 0.34222E-02
          max. resid. norm for Fia-block=  3.392D-04 for orbital    251a         
          max. resid. fock norm         =  3.413D-04 for orbital    251a         
          irrep a   : virtual orbitals shifted by    0.09711

 ITERATION  ENERGY          1e-ENERGY        2e-ENERGY     RMS[dD(SAO)]   TOL
  20  -4376.7137623650    -25355.785717     11244.917637    0.192D-05 0.410D-14
                            Exc = -485.389754526     Coul =  11730.3073912    
                              N = 503.99863081    
                            current damping = 0.100
 
          Norm of current diis error: 0.26965E-02
          max. resid. norm for Fia-block=  3.092D-04 for orbital    251a         
          max. resid. fock norm         =  3.153D-04 for orbital    254a         
          irrep a   : virtual orbitals shifted by    0.09689
          mo-orthogonalization: Cholesky decomposition

 ITERATION  ENERGY          1e-ENERGY        2e-ENERGY     RMS[dD(SAO)]   TOL
  21  -4376.7137693487    -25355.789541     11244.921454    0.173D-05 0.410D-14
                            Exc = -485.390032547     Coul =  11730.3114862    
                              N = 503.99863078    
                            current damping = 0.150
 
          Norm of current diis error: 0.26813E-02
          max. resid. norm for Fia-block=  3.027D-04 for orbital    251a         
          max. resid. fock norm         =  3.096D-04 for orbital    254a         
          irrep a   : virtual orbitals shifted by    0.09680

 ITERATION  ENERGY          1e-ENERGY        2e-ENERGY     RMS[dD(SAO)]   TOL
  22  -4376.7137753601    -25355.796725     11244.928632    0.158D-05 0.410D-14
                            Exc = -485.389883990     Coul =  11730.3185157    
                              N = 503.99863066    
                            current damping = 0.050
 
          Norm of current diis error: 0.25789E-02
          max. resid. norm for Fia-block=  2.756D-04 for orbital    251a         
          max. resid. fock norm         =  2.793D-04 for orbital    254a         
          irrep a   : virtual orbitals shifted by    0.09698

 ITERATION  ENERGY          1e-ENERGY        2e-ENERGY     RMS[dD(SAO)]   TOL
  23  -4376.7137804569    -25355.797550     11244.929452    0.143D-05 0.410D-14
                            Exc = -485.389864561     Coul =  11730.3193163    
                              N = 503.99863065    
                            current damping = 0.050
 
          Norm of current diis error: 0.23540E-02
          max. resid. norm for Fia-block=  2.534D-04 for orbital    251a         
          max. resid. fock norm         =  2.600D-04 for orbital    254a         
          irrep a   : virtual orbitals shifted by    0.09691

 ITERATION  ENERGY          1e-ENERGY        2e-ENERGY     RMS[dD(SAO)]   TOL
  24  -4376.7137848151    -25355.799604     11244.931502    0.134D-05 0.410D-14
                            Exc = -485.390174546     Coul =  11730.3216762    
                              N = 503.99863059    
                            current damping = 0.050
 
          Norm of current diis error: 0.22189E-02
          max. resid. norm for Fia-block=  2.424D-04 for orbital    251a         
          max. resid. fock norm         =  2.466D-04 for orbital    254a         
          irrep a   : virtual orbitals shifted by    0.09692

 ITERATION  ENERGY          1e-ENERGY        2e-ENERGY     RMS[dD(SAO)]   TOL
  25  -4376.7137885888    -25355.803900     11244.935794    0.122D-05 0.410D-14
                            Exc = -485.390057051     Coul =  11730.3258509    
                              N = 503.99863054    
                            current damping = 0.050
 
          Norm of current diis error: 0.18824E-02
          max. resid. norm for Fia-block=  2.223D-04 for orbital    251a         
          max. resid. fock norm         =  2.262D-04 for orbital    254a         
          irrep a   : virtual orbitals shifted by    0.09686
          mo-orthogonalization: Cholesky decomposition

 ITERATION  ENERGY          1e-ENERGY        2e-ENERGY     RMS[dD(SAO)]   TOL
  26  -4376.7137917933    -25355.803032     11244.934922    0.111D-05 0.410D-14
                            Exc = -485.390022360     Coul =  11730.3249443    
                              N = 503.99863049    
                            current damping = 0.100
 
          Norm of current diis error: 0.17869E-02
          max. resid. norm for Fia-block=  2.072D-04 for orbital    251a         
          max. resid. fock norm         =  2.125D-04 for orbital    254a         
          irrep a   : virtual orbitals shifted by    0.09667

 ITERATION  ENERGY          1e-ENERGY        2e-ENERGY     RMS[dD(SAO)]   TOL
  27  -4376.7137945924    -25355.806370     11244.938258    0.103D-05 0.410D-14
                            Exc = -485.390211400     Coul =  11730.3284693    
                              N = 503.99863047    
                            current damping = 0.150
 
          Norm of current diis error: 0.16099E-02
          max. resid. norm for Fia-block=  1.977D-04 for orbital    251a         
          max. resid. fock norm         =  2.016D-04 for orbital    254a         
          irrep a   : virtual orbitals shifted by    0.09652

 ITERATION  ENERGY          1e-ENERGY        2e-ENERGY     RMS[dD(SAO)]   TOL
  28  -4376.7137970213    -25355.809498     11244.941383    0.962D-06 0.410D-14
                            Exc = -485.390152742     Coul =  11730.3315361    
                              N = 503.99863040    
                            current damping = 0.050
 
          Norm of current diis error: 0.15526E-02
          max. resid. norm for Fia-block=  1.826D-04 for orbital    251a         
          max. resid. fock norm         =  1.877D-04 for orbital    254a         
          irrep a   : virtual orbitals shifted by    0.09678

 ITERATION  ENERGY          1e-ENERGY        2e-ENERGY     RMS[dD(SAO)]   TOL
  29  -4376.7137991456    -25355.809175     11244.941058    0.896D-06 0.410D-14
                            Exc = -485.390144822     Coul =  11730.3312027    
                              N = 503.99863039    
                            current damping = 0.100
 
          Norm of current diis error: 0.15112E-02
          max. resid. norm for Fia-block=  1.703D-04 for orbital    251a         
          max. resid. fock norm         =  1.760D-04 for orbital    254a         
          irrep a   : virtual orbitals shifted by    0.09660

 ITERATION  ENERGY          1e-ENERGY        2e-ENERGY     RMS[dD(SAO)]   TOL
  30  -4376.7138010014    -25355.810875     11244.942756    0.833D-06 0.410D-14
                            Exc = -485.390277032     Coul =  11730.3330330    
                              N = 503.99863034    
                            current damping = 0.150
 
          Norm of current diis error: 0.13514E-02
          max. resid. norm for Fia-block=  1.620D-04 for orbital    251a         
          max. resid. fock norm         =  1.654D-04 for orbital    254a         
          irrep a   : virtual orbitals shifted by    0.09645
          mo-orthogonalization: Cholesky decomposition

 ITERATION  ENERGY          1e-ENERGY        2e-ENERGY     RMS[dD(SAO)]   TOL
  31  -4376.7138026098    -25355.813483     11244.945362    0.778D-06 0.410D-14
                            Exc = -485.390221888     Coul =  11730.3355842    
                              N = 503.99863031    
                            current damping = 0.050
 
          Norm of current diis error: 0.12314E-02
          max. resid. norm for Fia-block=  1.478D-04 for orbital    251a         
          max. resid. fock norm         =  1.525D-04 for orbital    254a         
          irrep a   : virtual orbitals shifted by    0.09671

 ITERATION  ENERGY          1e-ENERGY        2e-ENERGY     RMS[dD(SAO)]   TOL
  32  -4376.7138040066    -25355.812221     11244.944099    0.722D-06 0.410D-14
                            Exc = -485.390242266     Coul =  11730.3343411    
                              N = 503.99863028    
                            current damping = 0.100
 
          Norm of current diis error: 0.11900E-02
          max. resid. norm for Fia-block=  1.410D-04 for orbital    251a         
          max. resid. fock norm         =  1.454D-04 for orbital    254a         
          irrep a   : virtual orbitals shifted by    0.09656

 ITERATION  ENERGY          1e-ENERGY        2e-ENERGY     RMS[dD(SAO)]   TOL
  33  -4376.7138052431    -25355.814812     11244.946689    0.673D-06 0.410D-14
                            Exc = -485.390304919     Coul =  11730.3369939    
                              N = 503.99863026    
                            current damping = 0.150
 
          Norm of current diis error: 0.10705E-02
          max. resid. norm for Fia-block=  1.315D-04 for orbital    251a         
          max. resid. fock norm         =  1.350D-04 for orbital    254a         
          irrep a   : virtual orbitals shifted by    0.09638

 ITERATION  ENERGY          1e-ENERGY        2e-ENERGY     RMS[dD(SAO)]   TOL
  34  -4376.7138063103    -25355.815912     11244.947788    0.626D-06 0.410D-14
                            Exc = -485.390285258     Coul =  11730.3380728    
                              N = 503.99863022    
                            current damping = 0.050
 
          Norm of current diis error: 0.99126E-03
          max. resid. norm for Fia-block=  1.221D-04 for orbital    251a         
          max. resid. fock norm         =  1.265D-04 for orbital    254a         
          irrep a   : virtual orbitals shifted by    0.09668

 ITERATION  ENERGY          1e-ENERGY        2e-ENERGY     RMS[dD(SAO)]   TOL
  35  -4376.7138072446    -25355.815392     11244.947267    0.585D-06 0.410D-14
                            Exc = -485.390295233     Coul =  11730.3375622    
                              N = 503.99863022    
                            current damping = 0.100
 
          Norm of current diis error: 0.10119E-02
          max. resid. norm for Fia-block=  1.167D-04 for orbital    251a         
          max. resid. fock norm         =  1.208D-04 for orbital    254a         
          irrep a   : virtual orbitals shifted by    0.09652
          mo-orthogonalization: Cholesky decomposition

 ITERATION  ENERGY          1e-ENERGY        2e-ENERGY     RMS[dD(SAO)]   TOL
  36  -4376.7138080765    -25355.817629     11244.949503    0.551D-06 0.410D-14
                            Exc = -485.390347777     Coul =  11730.3398507    
                              N = 503.99863018    
                            current damping = 0.150
 
          Norm of current diis error: 0.90966E-03
          max. resid. norm for Fia-block=  1.081D-04 for orbital    251a         
          max. resid. fock norm         =  1.114D-04 for orbital    254a         
          irrep a   : virtual orbitals shifted by    0.09634

 ITERATION  ENERGY          1e-ENERGY        2e-ENERGY     RMS[dD(SAO)]   TOL
  37  -4376.7138087942    -25355.818102     11244.949975    0.512D-06 0.410D-14
                            Exc = -485.390329622     Coul =  11730.3403050    
                              N = 503.99863016    
                            current damping = 0.050
 
          Norm of current diis error: 0.80360E-03
          max. resid. norm for Fia-block=  9.964D-05 for orbital    251a         
          max. resid. fock norm         =  1.035D-04 for orbital    254a         
          irrep a   : virtual orbitals shifted by    0.09664

 ITERATION  ENERGY          1e-ENERGY        2e-ENERGY     RMS[dD(SAO)]   TOL
  38  -4376.7138094154    -25355.817524     11244.949397    0.476D-06 0.410D-14
                            Exc = -485.390357610     Coul =  11730.3397543    
                              N = 503.99863015    
                            current damping = 0.100
 
          Norm of current diis error: 0.80662E-03
          max. resid. norm for Fia-block=  9.718D-05 for orbital    251a         
          max. resid. fock norm         =  1.001D-04 for orbital    254a         
          irrep a   : virtual orbitals shifted by    0.09649

 ITERATION  ENERGY          1e-ENERGY        2e-ENERGY     RMS[dD(SAO)]   TOL
  39  -4376.7138099730    -25355.819916     11244.951788    0.456D-06 0.410D-14
                            Exc = -485.390355330     Coul =  11730.3421433    
                              N = 503.99863012    
                            current damping = 0.150
 
          Norm of current diis error: 0.73796E-03
          max. resid. norm for Fia-block=  8.810D-05 for orbital    251a         
          max. resid. fock norm         =  9.158D-05 for orbital    254a         
          irrep a   : virtual orbitals shifted by    0.09630

 ITERATION  ENERGY          1e-ENERGY        2e-ENERGY     RMS[dD(SAO)]   TOL
  40  -4376.7138104554    -25355.819567     11244.951439    0.420D-06 0.410D-14
                            Exc = -485.390380288     Coul =  11730.3418189    
                              N = 503.99863011    
                            current damping = 0.200
 
          Norm of current diis error: 0.66020E-03
          max. resid. norm for Fia-block=  8.308D-05 for orbital    251a         
          max. resid. fock norm         =  8.602D-05 for orbital    254a         
          irrep a   : virtual orbitals shifted by    0.09613
          mo-orthogonalization: Cholesky decomposition

 ITERATION  ENERGY          1e-ENERGY        2e-ENERGY     RMS[dD(SAO)]   TOL
  41  -4376.7138108741    -25355.819926     11244.951797    0.389D-06 0.410D-14
                            Exc = -485.390379078     Coul =  11730.3421764    
                              N = 503.99863010    
                            current damping = 0.250
 
          Norm of current diis error: 0.63786E-03
          max. resid. norm for Fia-block=  7.904D-05 for orbital    251a         
          max. resid. fock norm         =  8.188D-05 for orbital    254a         
          irrep a   : virtual orbitals shifted by    0.09597

 ITERATION  ENERGY          1e-ENERGY        2e-ENERGY     RMS[dD(SAO)]   TOL
  42  -4376.7138112453    -25355.821288     11244.953159    0.367D-06 0.410D-14
                            Exc = -485.390388926     Coul =  11730.3435475    
                              N = 503.99863007    
                            current damping = 0.100
 
          Norm of current diis error: 0.60211E-03
          max. resid. norm for Fia-block=  7.267D-05 for orbital    251a         
          max. resid. fock norm         =  7.586D-05 for orbital    254a         
          irrep a   : virtual orbitals shifted by    0.09644

 ITERATION  ENERGY          1e-ENERGY        2e-ENERGY     RMS[dD(SAO)]   TOL
  43  -4376.7138115693    -25355.820936     11244.952807    0.343D-06 0.410D-14
                            Exc = -485.390396405     Coul =  11730.3432030    
                              N = 503.99863007    
                            current damping = 0.150
 
          Norm of current diis error: 0.56469E-03
          max. resid. norm for Fia-block=  6.835D-05 for orbital    251a         
          max. resid. fock norm         =  7.139D-05 for orbital    254a         
          irrep a   : virtual orbitals shifted by    0.09627

 ITERATION  ENERGY          1e-ENERGY        2e-ENERGY     RMS[dD(SAO)]   TOL
  44  -4376.7138118537    -25355.821368     11244.953239    0.319D-06 0.410D-14
                            Exc = -485.390421573     Coul =  11730.3436605    
                              N = 503.99863005    
                            current damping = 0.200
 
          Norm of current diis error: 0.52947E-03
          max. resid. norm for Fia-block=  6.558D-05 for orbital    251a         
          max. resid. fock norm         =  6.774D-05 for orbital    254a         
          irrep a   : virtual orbitals shifted by    0.09611

 ITERATION  ENERGY          1e-ENERGY        2e-ENERGY     RMS[dD(SAO)]   TOL
  45  -4376.7138121033    -25355.822504     11244.954375    0.305D-06 0.410D-14
                            Exc = -485.390398123     Coul =  11730.3447727    
                              N = 503.99863004    
                            current damping = 0.050
 
          Norm of current diis error: 0.49219E-03
          max. resid. norm for Fia-block=  5.931D-05 for orbital    251a         
          max. resid. fock norm         =  6.241D-05 for orbital    254a         
          irrep a   : virtual orbitals shifted by    0.09657
          mo-orthogonalization: Cholesky decomposition

 ITERATION  ENERGY          1e-ENERGY        2e-ENERGY     RMS[dD(SAO)]   TOL
  46  -4376.7138123214    -25355.821849     11244.953719    0.284D-06 0.410D-14
                            Exc = -485.390430831     Coul =  11730.3441502    
                              N = 503.99863003    
                            current damping = 0.100
 
          Norm of current diis error: 0.46243E-03
          max. resid. norm for Fia-block=  5.700D-05 for orbital    251a         
          max. resid. fock norm         =  5.928D-05 for orbital    254a         
          irrep a   : virtual orbitals shifted by    0.09642

 ITERATION  ENERGY          1e-ENERGY        2e-ENERGY     RMS[dD(SAO)]   TOL
  47  -4376.7138125138    -25355.822665     11244.954535    0.264D-06 0.410D-14
                            Exc = -485.390431376     Coul =  11730.3449660    
                              N = 503.99863002    
                            current damping = 0.150
 
          Norm of current diis error: 0.43323E-03
          max. resid. norm for Fia-block=  5.365D-05 for orbital    251a         
          max. resid. fock norm         =  5.577D-05 for orbital    254a         
          irrep a   : virtual orbitals shifted by    0.09625

 ITERATION  ENERGY          1e-ENERGY        2e-ENERGY     RMS[dD(SAO)]   TOL
  48  -4376.7138126818    -25355.823281     11244.955151    0.248D-06 0.410D-14
                            Exc = -485.390423548     Coul =  11730.3455745    
                              N = 503.99863001    
                            current damping = 0.050
 
          Norm of current diis error: 0.40748E-03
          max. resid. norm for Fia-block=  4.927D-05 for orbital    251a         
          max. resid. fock norm         =  5.183D-05 for orbital    254a         
          irrep a   : virtual orbitals shifted by    0.09656

 ITERATION  ENERGY          1e-ENERGY        2e-ENERGY     RMS[dD(SAO)]   TOL
  49  -4376.7138128293    -25355.822889     11244.954759    0.231D-06 0.410D-14
                            Exc = -485.390438168     Coul =  11730.3451967    
                              N = 503.99863001    
                            current damping = 0.100
 
          Norm of current diis error: 0.38539E-03
          max. resid. norm for Fia-block=  4.684D-05 for orbital    251a         
          max. resid. fock norm         =  4.911D-05 for orbital    254a         
          irrep a   : virtual orbitals shifted by    0.09640

 ITERATION  ENERGY          1e-ENERGY        2e-ENERGY     RMS[dD(SAO)]   TOL
  50  -4376.7138129593    -25355.823521     11244.955390    0.216D-06 0.410D-14
                            Exc = -485.390456180     Coul =  11730.3458463    
                              N = 503.99862999    
                            current damping = 0.150
 
          Norm of current diis error: 0.36883E-03
          max. resid. norm for Fia-block=  4.446D-05 for orbital    251a         
          max. resid. fock norm         =  4.627D-05 for orbital    254a         
          irrep a   : virtual orbitals shifted by    0.09624
          mo-orthogonalization: Cholesky decomposition

 ITERATION  ENERGY          1e-ENERGY        2e-ENERGY     RMS[dD(SAO)]   TOL
  51  -4376.7138130732    -25355.823983     11244.955852    0.205D-06 0.410D-14
                            Exc = -485.390435699     Coul =  11730.3462879    
                              N = 503.99862999    
                            current damping = 0.050
 
          Norm of current diis error: 0.33013E-03
          max. resid. norm for Fia-block=  4.027D-05 for orbital    251a         
          max. resid. fock norm         =  4.264D-05 for orbital    254a         
          irrep a   : virtual orbitals shifted by    0.09655

 ITERATION  ENERGY          1e-ENERGY        2e-ENERGY     RMS[dD(SAO)]   TOL
  52  -4376.7138131718    -25355.823497     11244.955366    0.191D-06 0.410D-14
                            Exc = -485.390459597     Coul =  11730.3458252    
                              N = 503.99862998    
                            current damping = 0.100
 
          Norm of current diis error: 0.31674E-03
          max. resid. norm for Fia-block=  3.914D-05 for orbital    251a         
          max. resid. fock norm         =  4.083D-05 for orbital    254a         
          irrep a   : virtual orbitals shifted by    0.09639

 ITERATION  ENERGY          1e-ENERGY        2e-ENERGY     RMS[dD(SAO)]   TOL
  53  -4376.7138132605    -25355.824279     11244.956148    0.180D-06 0.410D-14
                            Exc = -485.390458504     Coul =  11730.3466062    
                              N = 503.99862998    
                            current damping = 0.150
 
          Norm of current diis error: 0.29799E-03
          max. resid. norm for Fia-block=  3.633D-05 for orbital    251a         
          max. resid. fock norm         =  3.806D-05 for orbital    254a         
          irrep a   : virtual orbitals shifted by    0.09622

 ITERATION  ENERGY          1e-ENERGY        2e-ENERGY     RMS[dD(SAO)]   TOL
  54  -4376.7138133370    -25355.824481     11244.956350    0.167D-06 0.410D-14
                            Exc = -485.390454340     Coul =  11730.3468040    
                              N = 503.99862997    
                            current damping = 0.050
 
          Norm of current diis error: 0.27063E-03
          max. resid. norm for Fia-block=  3.342D-05 for orbital    251a         
          max. resid. fock norm         =  3.544D-05 for orbital    254a         
          irrep a   : virtual orbitals shifted by    0.09654

 ITERATION  ENERGY          1e-ENERGY        2e-ENERGY     RMS[dD(SAO)]   TOL
  55  -4376.7138134042    -25355.824177     11244.956046    0.156D-06 0.410D-14
                            Exc = -485.390464477     Coul =  11730.3465103    
                              N = 503.99862997    
                            current damping = 0.100
 
          Norm of current diis error: 0.26797E-03
          max. resid. norm for Fia-block=  3.219D-05 for orbital    251a         
          max. resid. fock norm         =  3.384D-05 for orbital    254a         
          irrep a   : virtual orbitals shifted by    0.09638
          mo-orthogonalization: Cholesky decomposition

 ITERATION  ENERGY          1e-ENERGY        2e-ENERGY     RMS[dD(SAO)]   TOL
  56  -4376.7138134636    -25355.824744     11244.956613    0.147D-06 0.410D-14
                            Exc = -485.390472280     Coul =  11730.3470848    
                              N = 503.99862996    
                            current damping = 0.150
 
          Norm of current diis error: 0.24845E-03
          max. resid. norm for Fia-block=  3.013D-05 for orbital    251a         
          max. resid. fock norm         =  3.157D-05 for orbital    254a         
          irrep a   : virtual orbitals shifted by    0.09621

 ITERATION  ENERGY          1e-ENERGY        2e-ENERGY     RMS[dD(SAO)]   TOL
  57  -4376.7138135156    -25355.824948     11244.956816    0.138D-06 0.410D-14
                            Exc = -485.390461740     Coul =  11730.3472782    
                              N = 503.99862995    
                            current damping = 0.050
 
          Norm of current diis error: 0.22335E-03
          max. resid. norm for Fia-block=  2.742D-05 for orbital    251a         
          max. resid. fock norm         =  2.933D-05 for orbital    254a         
          irrep a   : virtual orbitals shifted by    0.09653

 ITERATION  ENERGY          1e-ENERGY        2e-ENERGY     RMS[dD(SAO)]   TOL
  58  -4376.7138135612    -25355.824636     11244.956505    0.129D-06 0.410D-14
                            Exc = -485.390479072     Coul =  11730.3469841    
                              N = 503.99862995    
                            current damping = 0.100
 
          Norm of current diis error: 0.21952E-03
          max. resid. norm for Fia-block=  2.674D-05 for orbital    251a         
          max. resid. fock norm         =  2.807D-05 for orbital    254a         
          irrep a   : virtual orbitals shifted by    0.09637

 ITERATION  ENERGY          1e-ENERGY        2e-ENERGY     RMS[dD(SAO)]   TOL
  59  -4376.7138136018    -25355.825154     11244.957023    0.123D-06 0.410D-14
                            Exc = -485.390474850     Coul =  11730.3474978    
                              N = 503.99862995    
                            current damping = 0.150
 
          Norm of current diis error: 0.19915E-03
          max. resid. norm for Fia-block=  2.467D-05 for orbital    251a         
          max. resid. fock norm         =  2.604D-05 for orbital    254a         
          irrep a   : virtual orbitals shifted by    0.09620

 ITERATION  ENERGY          1e-ENERGY        2e-ENERGY     RMS[dD(SAO)]   TOL
  60  -4376.7138136372    -25355.825244     11244.957113    0.113D-06 0.410D-14
                            Exc = -485.390473625     Coul =  11730.3475866    
                              N = 503.99862994    
                            current damping = 0.050
 
          Norm of current diis error: 0.18405E-03
          max. resid. norm for Fia-block=  2.282D-05 for orbital    251a         
          max. resid. fock norm         =  2.439D-05 for orbital    254a         
          irrep a   : virtual orbitals shifted by    0.09653
          mo-orthogonalization: Cholesky decomposition

 ITERATION  ENERGY          1e-ENERGY        2e-ENERGY     RMS[dD(SAO)]   TOL
  61  -4376.7138136678    -25355.825089     11244.956958    0.105D-06 0.410D-14
                            Exc = -485.390481162     Coul =  11730.3474390    
                              N = 503.99862994    
                            current damping = 0.100
 
          Norm of current diis error: 0.18187E-03
          max. resid. norm for Fia-block=  2.197D-05 for orbital    251a         
          max. resid. fock norm         =  2.325D-05 for orbital    254a         
          irrep a   : virtual orbitals shifted by    0.09636

 ITERATION  ENERGY          1e-ENERGY        2e-ENERGY     RMS[dD(SAO)]   TOL
  62  -4376.7138136953    -25355.825458     11244.957326    0.100D-06 0.410D-14
                            Exc = -485.390484097     Coul =  11730.3478102    
                              N = 503.99862994    
                            current damping = 0.150
 
          Norm of current diis error: 0.16675E-03
          max. resid. norm for Fia-block=  2.046D-05 for orbital    251a         
          max. resid. fock norm         =  2.166D-05 for orbital    254a         
          irrep a   : virtual orbitals shifted by    0.09620

 DENSITY CONVERGED !


 ITERATION  ENERGY          1e-ENERGY        2e-ENERGY     RMS[dD(SAO)]   TOL
  63  -4376.7138137194    -25355.825532     11244.957401    0.933D-07 0.410D-14
                            Exc = -485.390478313     Coul =  11730.3478788    
                              N = 503.99862993    
                            current damping = 0.050
 
          Norm of current diis error: 0.15232E-03
          max. resid. norm for Fia-block=  1.879D-05 for orbital    251a         
          max. resid. fock norm         =  2.023D-05 for orbital    254a         
          irrep a   : virtual orbitals shifted by    0.09652

 DENSITY CONVERGED !


 ITERATION  ENERGY          1e-ENERGY        2e-ENERGY     RMS[dD(SAO)]   TOL
  64  -4376.7138137401    -25355.825400     11244.957269    0.871D-07 0.410D-14
                            Exc = -485.390490249     Coul =  11730.3477593    
                              N = 503.99862993    
                            current damping = 0.100
 
          Norm of current diis error: 0.14902E-03
          max. resid. norm for Fia-block=  1.823D-05 for orbital    251a         
          max. resid. fock norm         =  1.930D-05 for orbital    254a         
          irrep a   : virtual orbitals shifted by    0.09636

 DENSITY CONVERGED !


 ITERATION  ENERGY          1e-ENERGY        2e-ENERGY     RMS[dD(SAO)]   TOL
  65  -4376.7138137588    -25355.825712     11244.957580    0.833D-07 0.410D-14
                            Exc = -485.390485879     Coul =  11730.3480660    
                              N = 503.99862993    
                            current damping = 0.150
 
          Norm of current diis error: 0.13457E-03
          max. resid. norm for Fia-block=  1.677D-05 for orbital    251a         
          max. resid. fock norm         =  1.790D-05 for orbital    254a         
          irrep a   : virtual orbitals shifted by    0.09619
          mo-orthogonalization: Cholesky decomposition

 DENSITY CONVERGED !


 ITERATION  ENERGY          1e-ENERGY        2e-ENERGY     RMS[dD(SAO)]   TOL
  66  -4376.7138137751    -25355.825726     11244.957595    0.766D-07 0.410D-14
                            Exc = -485.390486633     Coul =  11730.3480812    
                              N = 503.99862993    
                            current damping = 0.050
 
          Norm of current diis error: 0.12511E-03
          max. resid. norm for Fia-block=  1.564D-05 for orbital    251a         
          max. resid. fock norm         =  1.683D-05 for orbital    254a         
          irrep a   : virtual orbitals shifted by    0.09652

 DENSITY CONVERGED !


 ITERATION  ENERGY          1e-ENERGY        2e-ENERGY     RMS[dD(SAO)]   TOL
  67  -4376.7138137895    -25355.825674     11244.957542    0.716D-07 0.410D-14
                            Exc = -485.390491241     Coul =  11730.3480333    
                              N = 503.99862993    
                            current damping = 0.100
 
          Norm of current diis error: 0.12323E-03
          max. resid. norm for Fia-block=  1.502D-05 for orbital    251a         
          max. resid. fock norm         =  1.601D-05 for orbital    254a         
          irrep a   : virtual orbitals shifted by    0.09635

 DENSITY CONVERGED !


 ITERATION  ENERGY          1e-ENERGY        2e-ENERGY     RMS[dD(SAO)]   TOL
  68  -4376.7138138023    -25355.825911     11244.957779    0.682D-07 0.410D-14
                            Exc = -485.390491936     Coul =  11730.3482711    
                              N = 503.99862992    
                            current damping = 0.150
 
          Norm of current diis error: 0.11254E-03
          max. resid. norm for Fia-block=  1.392D-05 for orbital    251a         
          max. resid. fock norm         =  1.492D-05 for orbital    254a         
          irrep a   : virtual orbitals shifted by    0.09619

 DENSITY CONVERGED !


 ITERATION  ENERGY          1e-ENERGY        2e-ENERGY     RMS[dD(SAO)]   TOL
  69  -4376.7138138132    -25355.825915     11244.957784    0.634D-07 0.410D-14
                            Exc = -485.390489450     Coul =  11730.3482733    
                              N = 503.99862992    
                            current damping = 0.050
 
          Norm of current diis error: 0.10420E-03
          max. resid. norm for Fia-block=  1.292D-05 for orbital    251a         
          max. resid. fock norm         =  1.401D-05 for orbital    254a         
          irrep a   : virtual orbitals shifted by    0.09652

 DENSITY CONVERGED !


 ITERATION  ENERGY          1e-ENERGY        2e-ENERGY     RMS[dD(SAO)]   TOL
  70  -4376.7138138235    -25355.825884     11244.957752    0.592D-07 0.410D-14
                            Exc = -485.390497147     Coul =  11730.3482494    
                              N = 503.99862992    
                            current damping = 0.100
 
          Norm of current diis error: 0.10189E-03
          max. resid. norm for Fia-block=  1.246D-05 for orbital    251a         
          max. resid. fock norm         =  1.331D-05 for orbital    254a         
          irrep a   : virtual orbitals shifted by    0.09635
          mo-orthogonalization: Cholesky decomposition

 DENSITY CONVERGED !


 ITERATION  ENERGY          1e-ENERGY        2e-ENERGY     RMS[dD(SAO)]   TOL
  71  -4376.7138138316    -25355.826064     11244.957933    0.567D-07 0.410D-14
                            Exc = -485.390493233     Coul =  11730.3484260    
                              N = 503.99862992    
                            current damping = 0.150
 
          Norm of current diis error: 0.91294E-04
          max. resid. norm for Fia-block=  1.143D-05 for orbital    251a         
          max. resid. fock norm         =  1.236D-05 for orbital    254a         
          irrep a   : virtual orbitals shifted by    0.09618

 DENSITY CONVERGED !


 ITERATION  ENERGY          1e-ENERGY        2e-ENERGY     RMS[dD(SAO)]   TOL
  72  -4376.7138138395    -25355.826050     11244.957918    0.522D-07 0.410D-14
                            Exc = -485.390495184     Coul =  11730.3484131    
                              N = 503.99862992    
                            current damping = 0.200
 
          Norm of current diis error: 0.85646E-04
          max. resid. norm for Fia-block=  1.076D-05 for orbital    251a         
          max. resid. fock norm         =  1.166D-05 for orbital    254a         
          irrep a   : virtual orbitals shifted by    0.09602

 DENSITY CONVERGED !


 ITERATION  ENERGY          1e-ENERGY        2e-ENERGY     RMS[dD(SAO)]   TOL
  73  -4376.7138138462    -25355.826058     11244.957927    0.488D-07 0.410D-14
                            Exc = -485.390497318     Coul =  11730.3484242    
                              N = 503.99862992    
                            current damping = 0.250
 
          Norm of current diis error: 0.80559E-04
          max. resid. norm for Fia-block=  1.024D-05 for orbital    251a         
          max. resid. fock norm         =  1.102D-05 for orbital    254a         
          irrep a   : virtual orbitals shifted by    0.09585

 DENSITY CONVERGED !


 ITERATION  ENERGY          1e-ENERGY        2e-ENERGY     RMS[dD(SAO)]   TOL
  74  -4376.7138138520    -25355.826191     11244.958059    0.462D-07 0.410D-14
                            Exc = -485.390497482     Coul =  11730.3485568    
                              N = 503.99862991    
                            current damping = 0.100
 
          Norm of current diis error: 0.75030E-04
          max. resid. norm for Fia-block=  9.489D-06 for orbital    251a         
          max. resid. fock norm         =  1.031D-05 for orbital    254a         
          irrep a   : virtual orbitals shifted by    0.09635

 DENSITY CONVERGED !


 ITERATION  ENERGY          1e-ENERGY        2e-ENERGY     RMS[dD(SAO)]   TOL
  75  -4376.7138138577    -25355.826166     11244.958034    0.432D-07 0.410D-14
                            Exc = -485.390496786     Coul =  11730.3485309    
                              N = 503.99862991    
                            current damping = 0.150
 
          Norm of current diis error: 0.73173E-04
          max. resid. norm for Fia-block=  8.940D-06 for orbital    251a         
          max. resid. fock norm         =  9.753D-06 for orbital    254a         
          irrep a   : virtual orbitals shifted by    0.09618
          mo-orthogonalization: Cholesky decomposition

 DENSITY CONVERGED !


 ITERATION  ENERGY          1e-ENERGY        2e-ENERGY     RMS[dD(SAO)]   TOL
  76  -4376.7138138620    -25355.826197     11244.958065    0.404D-07 0.410D-14
                            Exc = -485.390500802     Coul =  11730.3485661    
                              N = 503.99862991    
                            current damping = 0.200
 
          Norm of current diis error: 0.67193E-04
          max. resid. norm for Fia-block=  8.496D-06 for orbital    251a         
          max. resid. fock norm         =  9.165D-06 for orbital    254a         
          irrep a   : virtual orbitals shifted by    0.09601

 DENSITY CONVERGED !


 ITERATION  ENERGY          1e-ENERGY        2e-ENERGY     RMS[dD(SAO)]   TOL
  77  -4376.7138138660    -25355.826285     11244.958153    0.384D-07 0.410D-14
                            Exc = -485.390498540     Coul =  11730.3486520    
                              N = 503.99862991    
                            current damping = 0.050
 
          Norm of current diis error: 0.61657E-04
          max. resid. norm for Fia-block=  7.811D-06 for orbital    251a         
          max. resid. fock norm         =  8.569D-06 for orbital    254a         
          irrep a   : virtual orbitals shifted by    0.09651

 DENSITY CONVERGED !


 ITERATION  ENERGY          1e-ENERGY        2e-ENERGY     RMS[dD(SAO)]   TOL
  78  -4376.7138138699    -25355.826263     11244.958131    0.357D-07 0.410D-14
                            Exc = -485.390501022     Coul =  11730.3486322    
                              N = 503.99862991    
                            current damping = 0.100
 
          Norm of current diis error: 0.60933E-04
          max. resid. norm for Fia-block=  7.473D-06 for orbital    251a         
          max. resid. fock norm         =  8.142D-06 for orbital    254a         
          irrep a   : virtual orbitals shifted by    0.09634

 DENSITY CONVERGED !


 ITERATION  ENERGY          1e-ENERGY        2e-ENERGY     RMS[dD(SAO)]   TOL
  79  -4376.7138138725    -25355.826298     11244.958166    0.338D-07 0.410D-14
                            Exc = -485.390501142     Coul =  11730.3486674    
                              N = 503.99862991    
                            current damping = 0.150
 
          Norm of current diis error: 0.54991E-04
          max. resid. norm for Fia-block=  7.008D-06 for orbital    251a         
          max. resid. fock norm         =  7.616D-06 for orbital    254a         
          irrep a   : virtual orbitals shifted by    0.09618

 DENSITY CONVERGED !


 ITERATION  ENERGY          1e-ENERGY        2e-ENERGY     RMS[dD(SAO)]   TOL
  80  -4376.7138138755    -25355.826369     11244.958238    0.317D-07 0.410D-14
                            Exc = -485.390501336     Coul =  11730.3487391    
                              N = 503.99862991    
                            current damping = 0.050
 
          Norm of current diis error: 0.51749E-04
          max. resid. norm for Fia-block=  6.518D-06 for orbital    251a         
          max. resid. fock norm         =  7.172D-06 for orbital    254a         
          irrep a   : virtual orbitals shifted by    0.09651
          mo-orthogonalization: Cholesky decomposition

 DENSITY CONVERGED !


 ITERATION  ENERGY          1e-ENERGY        2e-ENERGY     RMS[dD(SAO)]   TOL
  81  -4376.7138138782    -25355.826347     11244.958216    0.296D-07 0.410D-14
                            Exc = -485.390501761     Coul =  11730.3487174    
                              N = 503.99862991    
                            current damping = 0.100
 
          Norm of current diis error: 0.50761E-04
          max. resid. norm for Fia-block=  6.186D-06 for orbital    251a         
          max. resid. fock norm         =  6.792D-06 for orbital    254a         
          irrep a   : virtual orbitals shifted by    0.09634

 DENSITY CONVERGED !


 ITERATION  ENERGY          1e-ENERGY        2e-ENERGY     RMS[dD(SAO)]   TOL
  82  -4376.7138138801    -25355.826384     11244.958252    0.279D-07 0.410D-14
                            Exc = -485.390503517     Coul =  11730.3487558    
                              N = 503.99862991    
                            current damping = 0.150
 
          Norm of current diis error: 0.46146E-04
          max. resid. norm for Fia-block=  5.830D-06 for orbital    251a         
          max. resid. fock norm         =  6.363D-06 for orbital    254a         
          irrep a   : virtual orbitals shifted by    0.09617

 DENSITY CONVERGED !


 ITERATION  ENERGY          1e-ENERGY        2e-ENERGY     RMS[dD(SAO)]   TOL
  83  -4376.7138138821    -25355.826431     11244.958299    0.263D-07 0.410D-14
                            Exc = -485.390502019     Coul =  11730.3488015    
                              N = 503.99862991    
                            current damping = 0.050
 
          Norm of current diis error: 0.42816E-04
          max. resid. norm for Fia-block=  5.391D-06 for orbital    251a         
          max. resid. fock norm         =  5.977D-06 for orbital    254a         
          irrep a   : virtual orbitals shifted by    0.09651

 ENERGY & DENSITY CONVERGED !


 ITERATION  ENERGY          1e-ENERGY        2e-ENERGY     RMS[dD(SAO)]   TOL
  84  -4376.7126118238    -25355.826422     11244.959492    0.245D-07 0.410D-14
                            Exc = -485.389302444     Coul =  11730.3487948    
                              N = 504.00001577    
                            current damping = 0.100
 
          Norm of current diis error: 0.41759E-04
          max. resid. norm for Fia-block=  5.141D-06 for orbital    251a         
          max. resid. fock norm         =  5.672D-06 for orbital    254a         

 End of SCF iterations

   convergence criteria satisfied after   84 iterations


                  ------------------------------------------ 
                 |  total energy      =  -4376.71261182384  |
                  ------------------------------------------ 
                 :  kinetic energy    =   4359.88551635221  :
                 :  potential energy  =  -8736.59812817605  :
                 :  virial theorem    =      1.99615531177  :
                 :  wavefunction norm =      1.00000000000  :
                  .......................................... 


 <geterg> : there is no data group $energy 


 <skperg> : $end is missing 


 orbitals $scfmo  will be written to file mos

    irrep                248a        249a        250a        251a        252a   
 eigenvalues H         -0.16608    -0.16553    -0.16553    -0.16482    -0.16474
            eV          -4.5192     -4.5043     -4.5042     -4.4849     -4.4829
 occupation              2.0000      2.0000      2.0000      2.0000      2.0000 

    irrep                253a        254a        255a        256a        257a   
 eigenvalues H         -0.16142    -0.16070    -0.14401    -0.14252    -0.11389
            eV          -4.3924     -4.3730     -3.9186     -3.8783     -3.0992
 
 
 ! grave: sending quit signal to master process
 
 
 
 
 ==============================================================================
                           electrostatic moments
 ==============================================================================

 reference point for electrostatic moments:    0.00000   0.00000   0.00000

 
              nuc           elec       ->  total
 ------------------------------------------------------------------------------
                          charge      
 ------------------------------------------------------------------------------
         504.000000    -504.000000       0.000000
 
 ------------------------------------------------------------------------------
                       dipole moment  
 ------------------------------------------------------------------------------
   x      -1.807814       1.841202       0.033387
   y      -1.503216       1.591188       0.087972
   z      -0.261089       0.291761       0.030673
 
   | dipole moment | =     0.0990 a.u. =     0.2516 debye 
 
 ------------------------------------------------------------------------------
                     quadrupole moment
 ------------------------------------------------------------------------------
  xx    7214.522149   -7490.387174    -275.865025
  yy   20644.556164  -21052.671013    -408.114848
  zz   81335.570017  -82010.018486    -674.448470
  xy    7010.487189   -6972.030107      38.457081
  xz   -8687.960602    8496.642364    -191.318238
  yz  -16838.017747   17021.759056     183.741309
 
     1/3  trace=    -452.809448
     anisotropy=     582.386160
 
 ==============================================================================
 

    ridft profiling
  --------------------------------------------------------------------
             module   cpu total (s)       %  wall total (s)       %

               RIDFT        130311.8  100.00        130456.3  100.00
         Ridft_b_scf           815.7    0.63           815.2    0.62
        b_scf_prelim             0.0    0.00             0.0    0.00
        b_scf_molinp             0.0    0.00             0.0    0.00
         b_scf_init0             0.0    0.00             0.0    0.00
        b_scf_auxbas             0.0    0.00             0.0    0.00
      b_scf_symmetry             0.0    0.00             0.0    0.00
         b_scf_cosmo             0.0    0.00             0.0    0.00
        b_scf_params            48.5    0.04            48.4    0.04
          b_scf_ri-j           118.1    0.09           118.0    0.09
    b_scf_ri-j_auxpq           117.9    0.09           117.8    0.09
     ri-j_auxpq_chol            15.9    0.01            15.9    0.01
         b_scf_1elec            22.7    0.02            22.7    0.02
       b_scf_moinput           626.3    0.48           625.9    0.48
     moinput_orthmos           624.4    0.48           624.0    0.48
    b_scf_dft-dstmax             0.0    0.00             0.0    0.00
           Ridft_scf        129489.0   99.37        129633.9   99.37
          Scf_b_loop             0.0    0.00             0.0    0.00
                noga             0.0    0.00             0.0    0.00
            Scf_loop        129460.7   99.35        129602.8   99.35
     scf_loop_mkdmat           449.7    0.35           449.4    0.34
       scf_loop_ri-j         18586.3   14.26         18573.2   14.24
      parlp1.bc.dens            22.6    0.02            22.5    0.02
        parlp1.gs.gp             4.1    0.00             4.1    0.00
        parlp2.bc.gq             0.0    0.00             0.0    0.00
        scf_loop_dft         78927.8   60.57         78875.8   60.46
      pardft.bc.dens             0.0    0.00             0.0    0.00
        dft_grid_con            53.1    0.04            53.2    0.04
          dft_xcmrhf         78810.2   60.48         78758.3   60.37
          dft_getval           547.4    0.42           548.5    0.42
          funct2 dst             9.2    0.01             9.2    0.01
      funct2 f2loop1            93.9    0.07            95.1    0.07
      funct2 f2loop2           240.1    0.18           239.3    0.18
          funct2 s+c           196.7    0.15           197.2    0.15
        funct2 cmf_2           176.2    0.14           177.3    0.14
          dft_mkdens         42451.9   32.58         42422.8   32.52
        dft_mgga-fun            13.8    0.01            13.8    0.01
          dft_mkfock         35789.7   27.46         35766.0   27.42
     pardft.red.fock          1363.9    1.05          1362.9    1.04
     scf_loop_energy             2.3    0.00             2.3    0.00
     scf_loop_mkfock             3.9    0.00             4.0    0.00
       scf_loop_diis         17637.9   13.54         17625.6   13.51
       scf_loop_diag          8568.6    6.58          8563.1    6.56
         diag_tritrn          3073.1    2.36          3071.1    2.35
          diag_rdiag          5479.0    4.20          5475.5    4.20
     scf_loop_modump          2163.8    1.66          2391.3    1.83
      scf_loop_ortho          3032.2    2.33          3030.0    2.32
          Scf_a_loop            28.3    0.02            31.0    0.02
         Ridft_a_scf             7.1    0.01             7.2    0.01
         a_scf_fanal             7.1    0.01             7.1    0.01
 


    ------------------------------------------------------------------------
         total  cpu-time :   1 days 12 hours 12 minutes and 26 seconds
         total wall-time :   1 days 12 hours 14 minutes and 51 seconds
    ------------------------------------------------------------------------


   ****  ridft : all done  ****


    2017-11-19 18:00:29.344 

