STARTING ridft ON 32 PROCESSORS!
RUNNING PROGRAM /sopt/TURBOMOLE/7.3-official/bin/em64t-unknown-linux-gnu_smp/ridft_mpi.
           SMPCPUS    set: Shared-memory Parallelization with  32 CPUs.

           SMP Parallelization Reference:
           C. van Wullen, J. Comput. Chem. 32 (2011) 1195--1201
 operating system is UNIX !

 ridft (c-16-19) : TURBOMOLE V7.3 ( 22118 ) 1 Jul 2018 at 20:38:15
 Copyright (C) 2018 TURBOMOLE GmbH, Karlsruhe


    2019-03-12 13:06:54.396 



                                  r i d f t

                        DFT program with RI approximation 
                                for coulomb part 




                                                 
                                 References:     
                                                 
          TURBOMOLE:                             
              R. Ahlrichs, M. Baer, M. Haeser, H. Horn, and
              C. Koelmel
              Electronic structure calculations on workstation
              computers: the program system TURBOMOLE
              Chem. Phys. Lett. 162: 165 (1989)
          Density Functional:                              
              O. Treutler and R. Ahlrichs                      
              Efficient Molecular Numerical Integration Schemes
              J. Chem. Phys. 102: 346 (1995)                   
          Parallel Version:                                
              Performance of parallel TURBOMOLE for Density    
              Functional Calculations                          
              M. v. Arnim and R. Ahlrichs                      
              J. Comp. Chem. 19: 1746 (1998)                   
          RI-J Method:                                     
              Auxiliary Basis Sets to approximate Coulomb      
              Potentials                                       
              Chem. Phys. Lett. 240: 283 (1995)                
              K. Eichkorn, O. Treutler, H. Oehm, M. Haeser     
              and R. Ahlrichs                                  
              Chem. Phys. Lett. 242: 652 (1995)                
                                                           
              Auxiliary Basis Sets for Main Row Atoms and their
              Use to approximate Coulomb Potentials            
              K. Eichkorn, F. Weigend, O. Treutler and         
              R. Ahlrichs                                      
              Theo. Chem. Acc. 97: 119 (1997)                   
                                                           
              Accurate Coulomb-fitting basis sets for H to Rn 
              F. Weigend                                        
              Phys. Chem. Chem. Phys. 8: 1057 (2006)            
                                                           
          Multipole accelerated RI-J (MARI-J):             
              Fast evaluation of the Coulomb potential for     
              electron densities using multipole accelerated   
              resolution of identity approximation             
              M. Sierka, A. Hogekamp and R. Ahlrichs           
              J. Chem. Phys. 118: 9136 (2003)                  
          RI-JK Method:                                     
              A fully direct RI-HF algorithm: Implementation,
              optimised auxiliary basis sets, demonstration of
              accuracy and efficiency                         
              F. Weigend                                      
              Phys. Chem. Chem. Phys. 4: 4285 (2002)           
          Two-component HF and DFT with spin-orbit coupling:  
              Self-consistent treatment of spin-orbit         
              interactions with efficient Hartree-Fock and    
              density functional methods                      
              M. K. Armbruster, F. Weigend, C. van Wüllen and 
              W. Klopper                                      
              Phys. Chem. Chem. Phys. 10: 1748 (2008)         
          Two-component difference density and DIIS algorithm 
              Efficient two-component self-consistent field   
              procedures and gradients: implementation in     
              TURBOMOLE and application to Au20-              
              A. Baldes, F. Weigend                           
              Mol. Phys. 111: 2617 (2013)                     
          Relativistic all-electron 2c calculations           
              An efficient implementation of two-component    
              relativistic exact-decoupling methods for large 
              molecules                                       
              D. Peng, N. Middendorf, F. Weigend, M. Reiher   
              J. Chem. Phys. 138: 184105 (2013)               
          Finite nucleus model and SNSO approximation         
              Efficient implementation of one- and two-       
              component analytical energy gradients in exact  
              two-component theory                            
              Y. J. Franzke, N. Middendorf, F. Weigend        
              J. Chem. Phys. 148: 104110 (2018)               
                                         




              +--------------------------------------------------+
              |      general information about current run       |
              +--------------------------------------------------+

 
 PBE functional
 exchange:    LDA + PBE
 correlation: LDA (PW) + PBE
 A DFT calculation using the RI-J approximation will be carried out.
 Allocatable memory for RI due to $ricore (MB):                  8000


              +--------------------------------------------------+
              | Atomic coordinate, charge and isotop information |
              +--------------------------------------------------+

                    atomic coordinates            atom    charge  isotop
          1.14665739    2.51413293    0.59797456    c      6.000     0
          2.35554071    4.16167648    0.62427540    h      1.000     0
          2.11287380    0.16487645    1.29468260    c      6.000     0
          4.06301990   -0.00734496    1.87793091    h      1.000     0
          0.55350511   -1.95792138    1.26442949    c      6.000     0
          1.30107051   -3.78126921    1.80540272    h      1.000     0
         -1.97066638   -1.73233297    0.54459949    c      6.000     0
         -3.17986023   -3.37975298    0.52789316    h      1.000     0
         -2.93585656    0.61859994   -0.15107070    c      6.000     0
         -4.89294495    0.79423126   -0.71308097    h      1.000     0
         -1.37579931    2.74169623   -0.12632505    c      6.000     0
         -2.12334124    4.56493328   -0.66870120    h      1.000     0
          0.79177046   -0.51339860    7.60610416    c      6.000     0
          3.05092420   -0.20357659    7.75069802    o      8.000     0
         -0.30332900   -2.80262221    7.98298803    o      8.000     0
          1.08458198   -3.93855264    8.34777720    h      1.000     0
         -1.13931087    1.45934607    7.00010455    c      6.000     0
         -0.23546541    3.29416876    6.91162234    h      1.000     0
         -1.99497906    1.01866914    5.18085000    h      1.000     0
         -2.62246435    1.44888360    8.42212248    h      1.000     0
 
       center of nuclear mass  :    0.02773396   -0.03120651    3.62508906
       center of nuclear charge:   -0.01574377   -0.00140481    3.59957534

              +--------------------------------------------------+
              |               basis set information              |
              +--------------------------------------------------+

              we will work with the 1s 3p 5d 7f 9g ... basis set
              ...i.e. with spherical basis functions...

   type   atoms  prim   cont   basis
   ---------------------------------------------------------------------------
    c        8     77     57   def2-QZVP   [7s4p3d2f1g|15s8p3d2f1g]
    h       10     33     30   def2-QZVP   [4s3p2d1f|7s3p2d1f]
    o        2     77     57   def2-QZVP   [7s4p3d2f1g|15s8p3d2f1g]
   ---------------------------------------------------------------------------
   total:   20   1100    870
   ---------------------------------------------------------------------------

   total number of primitive shells          :   71
   total number of contracted shells         :  270
   total number of cartesian basis functions : 1070
   total number of SCF-basis functions       :  870


 integral neglect threshold       :  0.31E-11
 integral storage threshold THIZE :  0.10E-04
 integral storage threshold THIME :         5

 RI-J AUXILIARY BASIS SET information:

              we will work with the 1s 3p 5d 7f 9g ... basis set
              ...i.e. with spherical basis functions...

   type   atoms  prim   cont   basis
   ---------------------------------------------------------------------------
    c        8     70     49   def2-QZVP   [6s4p3d1f1g|12s5p4d2f1g]
    h       10     16     11   def2-QZVP   [3s1p1d|5s2p1d]
    o        2     70     49   def2-QZVP   [6s4p3d1f1g|12s5p4d2f1g]
   ---------------------------------------------------------------------------
   total:   20    860    600
   ---------------------------------------------------------------------------

   total number of primitive shells          :   56
   total number of contracted shells         :  200
   total number of cartesian basis functions :  730
   total number of SCF-basis functions       :  600


 symmetry group of the molecule :   c1 

 the group has the following generators :
   c1(z)

    1 symmetry operations found

 there are 1 real representations :   a   

 maximum number of shells which are related by symmetry :  1


    mo occupation :
   irrep   mo's   occupied
    a      870       37
 
 number of basis functions   :                    870
 number of occupied orbitals :                     37
 
  
           ------------------
           density functional
           ------------------
 PBE functional
 exchange:    LDA + PBE
 correlation: LDA (PW) + PBE

 iterations will be done with small grid
  
 spherical integration : Lebedev's spherical grid
 spherical gridsize    :                     4
    i.e. gridpoints    :                   434
 value for diffuse not defined
 radial integration    : Chebyshev 2nd kind (scaling 3)
 radial gridsize       :                     6
 integration cells     :                    20
 partition function    : becke
 partition sharpness   :                     3
  

 biggest AO integral is expected to be     6.990327543
  
           ------------------------
               RI-J - INFORMATION
           ------------------------
 Contributions to RI integral batches: 
  neglected integral batches:                  8632
  direct contribution:                            0
  memory contribution:                 27953
 Memory core needed for (P|Q) and Cholesky      3 MByte
 Memory core minimum needed except of (P|Q)     4 MByte
 Total minimum memory core needed (sum)         7 MByte
  
 ****************************************
 Memory allocated for RI-J  2445 MByte
 ****************************************
                                            

          ------------------------
          nuclear repulsion energy  :   496.780906011    
          ------------------------

   .------------------------------.
   |            DFT-D4            |
   |          ==========          |
   |  E. Caldeweyher,  S. Grimme  |
   |   University of Bonn, MCTC   |
   |     02/2018, Version 1.0     |
   '------------------------------'
  This code comes without any warranty

 Cite this work as:
   E. Caldeweyher, C. Bannwarth, and S. Grimme,
   J. Chem. Phys., 2017, 147, 034112.
   E. Caldeweyher, S. Ehlert, and S. Grimme,
   J. Chem. Phys., in preparation.

 Contributions:
   P. Shushkov - GBSA(H2O)
   S. Ehlert   - MBD, DFA fit

number of atoms            :    20
number of electrons        :    54
charge                     :  0
spin                       : 0.0
 Found param_gfn2.xtb file !
========================================================================
    G F N  parametrization, version 3
   Geometries Frequencies Non-covalent interactions
 /sopt/TURBOMOLE/7.3-official/parameter/param_gfn2.xtb
========================================================================
 method parameters:
------------------------------------------------------------------------
k(s)        :               1.8500
k(p)        :               2.2300
k(d)        :               2.2300
k(f)        :               2.0000
kEN (H0ij)  :              -2.0000
D3 a1       :               0.5200
D3 a2       :               5.0000
D3 s8       :               2.7000
D3atm       :               5.0000
alphaj      :               2.0000
AESdamp     :               4.0000
AESrad      :               3.0000
expscalexp  :               5.0000
------------------------------------------------------------------------
------------------------------------------------------------------------
 xTB basis
------------------------------------------------------------------------
  Z AO/shell   Hii/eV     exponent
  1     Wed Apr 25 08:07:45 CEST 2018   EN: 2.200 GM2: 0.406  GM3: 0.0800  RAES: 1.40
     1s    -10.707211    1.230000
  6     Wed Apr 25 08:07:45 CEST 2018   EN: 2.550 GM2: 0.538  GM3: 0.1500  RAES: 3.00
     2s    -13.970922    2.096432
     2p    -10.063292    1.800000
  8     Wed Apr 25 08:07:45 CEST 2018   EN: 3.440 GM2: 0.452  GM3:-0.0517  RAES: 1.80
     2s    -20.229985    2.439742
     2p    -15.503117    2.137023
------------------------------------------------------------------------
 DFT-D4 reference setup
------------------------------------------------------------------------
 C      q(ref)        CN(ref)   cov. CN(ref)  alpha(AIM,ref)
     0.0000000      0.0000000      0.0000000     12.3555336
    -0.1299310      0.9367838      0.9179641     12.6203061
    -0.0788263      1.9884028      1.9096951      9.3103249
    -0.0767301      2.9881158      2.8401678      8.8356702
    -0.0945886      3.9165802      3.7567914      6.6924619
    -0.0285648      3.3673832      3.0308559      8.9184424
     0.0506204      0.9979550      0.8555886      7.7402501
 H      q(ref)        CN(ref)   cov. CN(ref)  alpha(AIM,ref)
     0.0000000      0.0000000      0.0000000      5.0540161
     0.0000000      0.8115055      0.8943405      2.7207580
 O      q(ref)        CN(ref)   cov. CN(ref)  alpha(AIM,ref)
     0.0000000      0.0000000      0.0000000      5.1967092
    -0.3306800      0.9547795      0.8033980      6.0646315
    -0.5637321      1.9239773      1.6098510      6.6505011
     0.0000000      0.9835639      0.9794547      5.1987934
 no old-style atom pair restraing (fixing) potential
------------------------------------------------------------------------
 SCC calculation
------------------------------------------------------------------------

------------------------------------------------------------------------
 Dispersion Energy Calculation
 * damping parameters for pbe-D4
 s6       :    1.0000
 s8       :    0.9516
 a1       :    0.4044
 a2       :    4.6501
========================================================================
 Edisp  /kcal,au:   -12.7419  -0.02030546
------------------------------------------------------------------------
 E(2)   /kcal,au:   -12.8983  -0.02055482
 Emany  /kcal,au:     0.1565   0.00024936
 Eresp  /kcal,au:     0.0000   0.00000000
========================================================================
 nuclear repulsion energy                  =     496.780906011
 empirical dispersive energy correction    =      -0.020305455
 nuclear repulsion + dispersion correction =     496.760600555


         -----------------
         -S,T+V- integrals
         -----------------

 1e-integrals will be neglected if expon. factor < 0.312333E-12
 Difference densities >>NOT<< switched on in parallel ridft!

 DIIS switched on: error vector is FDS-SDF
 Max. Iterations for DIIS is     :   4
 DIIS matrix (see manual) 
    Scaling factor of diagonals  :  1.200
    threshold for scaling factor :  0.000

 scf convergence criterion : increment of total energy < .1000000D-06
                  and increment of one-electron energy < .1000000D-03

  MOs are in ASCII format !


 automatic virtual orbital shift switched on 
      shift if e(lumo)-e(homo) < 0.10000000    


 reading orbital data $scfmo  from file mos
 orbital characterization : expanded
 mo provided and orthogonalized by Cholesky decomposition

 DSCF restart information will be dumped onto file mos


 Starting SCF iterations

          Overall gridpoints after grid construction =         53108

 ITERATION  ENERGY          1e-ENERGY        2e-ENERGY     NORM[dD(SAO)]  TOL
   1  -459.15067421891    -1596.8760207     640.96474594    0.000D+00 0.312D-11
                            Exc = -62.7331058255     Coul =  703.697851768    
                              N = 74.000954853    
                            current damping = 0.700
 
          max. resid. norm for Fia-block=  8.401D-01 for orbital     12a         
          max. resid. fock norm         =  6.329D+01 for orbital    755a         

 ITERATION  ENERGY          1e-ENERGY        2e-ENERGY     NORM[dD(SAO)]  TOL
   2  -460.69188307554    -1606.4338641     648.98138043    0.000D+00 0.312D-11
                            Exc = -63.2596318250     Coul =  712.241012255    
                              N = 74.000751383    
                            current damping = 0.650
 
          Norm of current diis error:  3.7100    
          max. resid. norm for Fia-block=  1.677D-01 for orbital      2a         
          max. resid. fock norm         =  2.996D-01 for orbital    849a         

 ITERATION  ENERGY          1e-ENERGY        2e-ENERGY     NORM[dD(SAO)]  TOL
   3  -460.91454559464    -1609.3043824     651.62923620    0.000D+00 0.312D-11
                            Exc = -63.6318733566     Coul =  715.261109558    
                              N = 74.000635779    
                            current damping = 0.550
 
          Norm of current diis error:  1.8027    
          max. resid. norm for Fia-block=  6.643D-02 for orbital      2a         
          max. resid. fock norm         =  7.053D-02 for orbital      2a         

 ITERATION  ENERGY          1e-ENERGY        2e-ENERGY     NORM[dD(SAO)]  TOL
   4  -460.98672396294    -1609.8172669     652.06994237    0.000D+00 0.312D-11
                            Exc = -63.6216344164     Coul =  715.691576786    
                              N = 74.000569029    
                            current damping = 0.400
 
          Norm of current diis error: 0.73539    
          max. resid. norm for Fia-block=  4.062D-02 for orbital     12a         
          max. resid. fock norm         =  7.329D-02 for orbital    869a         

 ITERATION  ENERGY          1e-ENERGY        2e-ENERGY     NORM[dD(SAO)]  TOL
   5  -460.99377813414    -1610.9687254     653.21434670    0.000D+00 0.312D-11
                            Exc = -63.7875832358     Coul =  717.001929936    
                              N = 74.000534503    
                            current damping = 0.300
 
          Norm of current diis error: 0.51710    
          max. resid. norm for Fia-block=  1.921D-02 for orbital     34a         
          max. resid. fock norm         =  4.043D-02 for orbital    869a         
          mo-orthogonalization: Cholesky decomposition

 ITERATION  ENERGY          1e-ENERGY        2e-ENERGY     NORM[dD(SAO)]  TOL
   6  -461.00042207485    -1610.8759583     653.11493570    0.000D+00 0.312D-11
                            Exc = -63.7600615061     Coul =  716.874997202    
                              N = 74.000526299    
                            current damping = 0.350
 
          Norm of current diis error: 0.24020    
          max. resid. norm for Fia-block=  9.431D-03 for orbital     34a         
          max. resid. fock norm         =  2.628D-02 for orbital    870a         

 ITERATION  ENERGY          1e-ENERGY        2e-ENERGY     NORM[dD(SAO)]  TOL
   7  -461.00174160192    -1610.7045801     652.94223795    0.000D+00 0.312D-11
                            Exc = -63.7409885624     Coul =  716.683226509    
                              N = 74.000521387    
                            current damping = 0.200
 
          Norm of current diis error: 0.10257    
          max. resid. norm for Fia-block=  3.245D-03 for orbital     17a         
          max. resid. fock norm         =  4.549D-03 for orbital    870a         

 ITERATION  ENERGY          1e-ENERGY        2e-ENERGY     NORM[dD(SAO)]  TOL
   8  -461.00197694527    -1610.8334056     653.07082806    0.000D+00 0.312D-11
                            Exc = -63.7579872990     Coul =  716.828815358    
                              N = 74.000521642    
                            current damping = 0.250
 
          Norm of current diis error: 0.25194E-01
          max. resid. norm for Fia-block=  7.258D-04 for orbital     36a         
          max. resid. fock norm         =  1.660D-03 for orbital    866a         

 ITERATION  ENERGY          1e-ENERGY        2e-ENERGY     NORM[dD(SAO)]  TOL
   9  -461.00198031934    -1610.8438058     653.08122494    0.000D+00 0.312D-11
                            Exc = -63.7585547710     Coul =  716.839779712    
                              N = 74.000521396    
                            current damping = 0.100
 
          Norm of current diis error: 0.21365E-01
          max. resid. norm for Fia-block=  4.443D-04 for orbital     36a         
          max. resid. fock norm         =  1.092D-03 for orbital      5a         

 ITERATION  ENERGY          1e-ENERGY        2e-ENERGY     NORM[dD(SAO)]  TOL
  10  -461.00198913130    -1610.8249142     653.06232454    0.000D+00 0.312D-11
                            Exc = -63.7563083415     Coul =  716.818632877    
                              N = 74.000521247    
                            current damping = 0.150
 
          Norm of current diis error: 0.89501E-02
          max. resid. norm for Fia-block=  1.741D-04 for orbital     23a         
          max. resid. fock norm         =  3.071D-04 for orbital    866a         
          mo-orthogonalization: Cholesky decomposition

 ITERATION  ENERGY          1e-ENERGY        2e-ENERGY     NORM[dD(SAO)]  TOL
  11  -461.00199080490    -1610.8244591     653.06186776    0.000D+00 0.312D-11
                            Exc = -63.7566294724     Coul =  716.818497232    
                              N = 74.000521260    
                            current damping = 0.050
 
          Norm of current diis error: 0.30802E-02
          max. resid. norm for Fia-block=  1.159D-04 for orbital     34a         
          max. resid. fock norm         =  2.625D-04 for orbital    870a         

 ITERATION  ENERGY          1e-ENERGY        2e-ENERGY     NORM[dD(SAO)]  TOL
  12  -461.00199088419    -1610.8288021     653.06621068    0.000D+00 0.312D-11
                            Exc = -63.7568902441     Coul =  716.823100929    
                              N = 74.000521306    
                            current damping = 0.100
 
          Norm of current diis error: 0.23934E-02
          max. resid. norm for Fia-block=  7.963D-05 for orbital     34a         
          max. resid. fock norm         =  1.976D-04 for orbital    870a         

 ITERATION  ENERGY          1e-ENERGY        2e-ENERGY     NORM[dD(SAO)]  TOL
  13  -461.00199101308    -1610.8279163     653.06532475    0.000D+00 0.312D-11
                            Exc = -63.7568803415     Coul =  716.822205093    
                              N = 74.000521281    
                            current damping = 0.150
 
          Norm of current diis error: 0.88675E-03
          max. resid. norm for Fia-block=  3.471D-05 for orbital     37a         
          max. resid. fock norm         =  6.562D-05 for orbital    869a         

 ITERATION  ENERGY          1e-ENERGY        2e-ENERGY     NORM[dD(SAO)]  TOL
  14  -461.00199103214    -1610.8266874     653.06409585    0.000D+00 0.312D-11
                            Exc = -63.7567258821     Coul =  716.820821730    
                              N = 74.000521274    
                            current damping = 0.050
 
          Norm of current diis error: 0.39562E-03
          max. resid. norm for Fia-block=  1.209D-05 for orbital     37a         
          max. resid. fock norm         =  1.649D-05 for orbital    844a         

 ITERATION  ENERGY          1e-ENERGY        2e-ENERGY     NORM[dD(SAO)]  TOL
  15  -461.00199103546    -1610.8272481     653.06465650    0.000D+00 0.312D-11
                            Exc = -63.7568129215     Coul =  716.821469419    
                              N = 74.000521280    
                            current damping = 0.100
 
          Norm of current diis error: 0.23107E-03
          max. resid. norm for Fia-block=  5.507D-06 for orbital     17a         
          max. resid. fock norm         =  7.045D-06 for orbital     22a         
          mo-orthogonalization: Cholesky decomposition

 ENERGY CONVERGED !

          Overall gridpoints after grid construction =        192691

 ITERATION  ENERGY          1e-ENERGY        2e-ENERGY     NORM[dD(SAO)]  TOL
  16  -461.00182539981    -1610.8272656     653.06483969    0.000D+00 0.312D-11
                            Exc = -63.7566299219     Coul =  716.821469611    
                              N = 74.000024962    
                            current damping = 0.050
 
          Norm of current diis error: 0.80083E-04
          max. resid. norm for Fia-block=  1.606D-06 for orbital     37a         
          max. resid. fock norm         =  3.567D-06 for orbital    866a         

 End of SCF iterations

   convergence criteria satisfied after    16 iterations


                  ------------------------------------------ 
                 |  total energy      =   -461.00182539981  |
                  ------------------------------------------ 
                 :  kinetic energy    =    459.18022575941  :
                 :  potential energy  =   -920.18205115923  :
                 :  virial theorem    =      1.99604860645  :
                 :  wavefunction norm =      1.00000000000  :
                  .......................................... 


 <geterg> : there is no data group $energy 


 <skperg> : $end is missing 


 orbitals $scfmo  will be written to file mos

    irrep                 33a         34a         35a         36a         37a   
 eigenvalues H         -0.30508    -0.28295    -0.23773    -0.23669    -0.23297
            eV          -8.3016     -7.6995     -6.4690     -6.4408     -6.3395
 occupation              2.0000      2.0000      2.0000      2.0000      2.0000 

    irrep                 38a         39a         40a         41a         42a   
 eigenvalues H         -0.04925    -0.04790    -0.03335    -0.00797     0.01196
            eV          -1.3401     -1.3035     -0.9076     -0.2169      0.3256
 
 
 
 
 ==============================================================================
                           electrostatic moments
 ==============================================================================

 reference point for electrostatic moments:    0.00000   0.00000   0.00000

 
              nuc           elec       ->  total
 ------------------------------------------------------------------------------
                          charge      
 ------------------------------------------------------------------------------
          74.000000     -74.000000      -0.000000
 
 ------------------------------------------------------------------------------
                       dipole moment  
 ------------------------------------------------------------------------------
   x      -1.165039       0.566704      -0.598334
   y      -0.103956       0.003461      -0.100494
   z     266.368575    -266.534766      -0.166191
 
   | dipole moment | =     0.6291 a.u. =     1.5989 debye 
 
 ------------------------------------------------------------------------------
                     quadrupole moment
 ------------------------------------------------------------------------------
  xx     284.036445    -329.499718     -45.463273
  yy     298.031417    -337.402832     -39.371416
  zz    1878.984013   -1926.992377     -48.008363
  xy     -19.601162      17.803449      -1.797713
  xz     169.759196    -173.188136      -3.428940
  yz    -168.873194     166.564311      -2.308883
 
     1/3  trace=     -44.281017
     anisotropy=      10.956896
 
 ==============================================================================
 


    ------------------------------------------------------------------------
         total  cpu-time :  7 minutes and 41 seconds
         total wall-time :  1 minutes and 55 seconds
    ------------------------------------------------------------------------

   ****  ridft : all done  ****


    2019-03-12 13:08:49.428 

