STARTING ridft ON 32 PROCESSORS!
RUNNING PROGRAM /sopt/TURBOMOLE/7.3-official/bin/em64t-unknown-linux-gnu_smp/ridft_mpi.
           SMPCPUS    set: Shared-memory Parallelization with  32 CPUs.

           SMP Parallelization Reference:
           C. van Wullen, J. Comput. Chem. 32 (2011) 1195--1201
 operating system is UNIX !

 ridft (c-14-38) : TURBOMOLE V7.3 ( 22118 ) 1 Jul 2018 at 20:38:15
 Copyright (C) 2018 TURBOMOLE GmbH, Karlsruhe


    2019-03-12 22:48:36.338 



                                  r i d f t

                        DFT program with RI approximation 
                                for coulomb part 




                                                 
                                 References:     
                                                 
          TURBOMOLE:                             
              R. Ahlrichs, M. Baer, M. Haeser, H. Horn, and
              C. Koelmel
              Electronic structure calculations on workstation
              computers: the program system TURBOMOLE
              Chem. Phys. Lett. 162: 165 (1989)
          Density Functional:                              
              O. Treutler and R. Ahlrichs                      
              Efficient Molecular Numerical Integration Schemes
              J. Chem. Phys. 102: 346 (1995)                   
          Parallel Version:                                
              Performance of parallel TURBOMOLE for Density    
              Functional Calculations                          
              M. v. Arnim and R. Ahlrichs                      
              J. Comp. Chem. 19: 1746 (1998)                   
          RI-J Method:                                     
              Auxiliary Basis Sets to approximate Coulomb      
              Potentials                                       
              Chem. Phys. Lett. 240: 283 (1995)                
              K. Eichkorn, O. Treutler, H. Oehm, M. Haeser     
              and R. Ahlrichs                                  
              Chem. Phys. Lett. 242: 652 (1995)                
                                                           
              Auxiliary Basis Sets for Main Row Atoms and their
              Use to approximate Coulomb Potentials            
              K. Eichkorn, F. Weigend, O. Treutler and         
              R. Ahlrichs                                      
              Theo. Chem. Acc. 97: 119 (1997)                   
                                                           
              Accurate Coulomb-fitting basis sets for H to Rn 
              F. Weigend                                        
              Phys. Chem. Chem. Phys. 8: 1057 (2006)            
                                                           
          Multipole accelerated RI-J (MARI-J):             
              Fast evaluation of the Coulomb potential for     
              electron densities using multipole accelerated   
              resolution of identity approximation             
              M. Sierka, A. Hogekamp and R. Ahlrichs           
              J. Chem. Phys. 118: 9136 (2003)                  
          RI-JK Method:                                     
              A fully direct RI-HF algorithm: Implementation,
              optimised auxiliary basis sets, demonstration of
              accuracy and efficiency                         
              F. Weigend                                      
              Phys. Chem. Chem. Phys. 4: 4285 (2002)           
          Two-component HF and DFT with spin-orbit coupling:  
              Self-consistent treatment of spin-orbit         
              interactions with efficient Hartree-Fock and    
              density functional methods                      
              M. K. Armbruster, F. Weigend, C. van Wüllen and 
              W. Klopper                                      
              Phys. Chem. Chem. Phys. 10: 1748 (2008)         
          Two-component difference density and DIIS algorithm 
              Efficient two-component self-consistent field   
              procedures and gradients: implementation in     
              TURBOMOLE and application to Au20-              
              A. Baldes, F. Weigend                           
              Mol. Phys. 111: 2617 (2013)                     
          Relativistic all-electron 2c calculations           
              An efficient implementation of two-component    
              relativistic exact-decoupling methods for large 
              molecules                                       
              D. Peng, N. Middendorf, F. Weigend, M. Reiher   
              J. Chem. Phys. 138: 184105 (2013)               
          Finite nucleus model and SNSO approximation         
              Efficient implementation of one- and two-       
              component analytical energy gradients in exact  
              two-component theory                            
              Y. J. Franzke, N. Middendorf, F. Weigend        
              J. Chem. Phys. 148: 104110 (2018)               
                                         




              +--------------------------------------------------+
              |      general information about current run       |
              +--------------------------------------------------+

 
 PBE functional
 exchange:    LDA + PBE
 correlation: LDA (PW) + PBE
 A DFT calculation using the RI-J approximation will be carried out.
 Allocatable memory for RI due to $ricore (MB):                  8000


              +--------------------------------------------------+
              | Atomic coordinate, charge and isotop information |
              +--------------------------------------------------+

                    atomic coordinates            atom    charge  isotop
          1.14665739    2.51413293    0.59797456    c      6.000     0
          2.35554071    4.16167648    0.62427540    h      1.000     0
          2.11287380    0.16487645    1.29468260    c      6.000     0
          4.06301990   -0.00734496    1.87793091    h      1.000     0
          0.55350511   -1.95792138    1.26442949    c      6.000     0
          1.30107051   -3.78126921    1.80540272    h      1.000     0
         -1.97066638   -1.73233297    0.54459949    c      6.000     0
         -3.17986023   -3.37975298    0.52789316    h      1.000     0
         -2.93585656    0.61859994   -0.15107070    c      6.000     0
         -4.89294495    0.79423126   -0.71308097    h      1.000     0
         -1.37579931    2.74169623   -0.12632505    c      6.000     0
         -2.12334124    4.56493328   -0.66870120    h      1.000     0
          0.79177046   -0.51339860    7.60610416    c      6.000     0
          3.05092420   -0.20357659    7.75069802    o      8.000     0
         -0.30332900   -2.80262221    7.98298803    o      8.000     0
          1.08458198   -3.93855264    8.34777720    h      1.000     0
         -1.13931087    1.45934607    7.00010455    c      6.000     0
         -0.23546541    3.29416876    6.91162234    h      1.000     0
         -1.99497906    1.01866914    5.18085000    h      1.000     0
         -2.62246435    1.44888360    8.42212248    h      1.000     0
 
       center of nuclear mass  :    0.02773396   -0.03120651    3.62508906
       center of nuclear charge:   -0.01574377   -0.00140481    3.59957534

              +--------------------------------------------------+
              |               basis set information              |
              +--------------------------------------------------+

              we will work with the 1s 3p 5d 7f 9g ... basis set
              ...i.e. with spherical basis functions...

   type   atoms  prim   cont   basis
   ---------------------------------------------------------------------------
    c        8     68     48   def2-QZVP   [7s4p3d2f|15s8p3d2f]
    h       10     26     23   def2-QZVP   [4s3p2d|7s3p2d]
    o        2     68     48   def2-QZVP   [7s4p3d2f|15s8p3d2f]
   ---------------------------------------------------------------------------
   total:   20    940    710
   ---------------------------------------------------------------------------

   total number of primitive shells          :   68
   total number of contracted shells         :  250
   total number of cartesian basis functions :  820
   total number of SCF-basis functions       :  710


 integral neglect threshold       :  0.41E-11
 integral storage threshold THIZE :  0.10E-04
 integral storage threshold THIME :         5

 RI-J AUXILIARY BASIS SET information:

              we will work with the 1s 3p 5d 7f 9g ... basis set
              ...i.e. with spherical basis functions...

   type   atoms  prim   cont   basis
   ---------------------------------------------------------------------------
    c        8     70     49   def2-QZVP   [6s4p3d1f1g|12s5p4d2f1g]
    h       10     16     11   def2-QZVP   [3s1p1d|5s2p1d]
    o        2     70     49   def2-QZVP   [6s4p3d1f1g|12s5p4d2f1g]
   ---------------------------------------------------------------------------
   total:   20    860    600
   ---------------------------------------------------------------------------

   total number of primitive shells          :   56
   total number of contracted shells         :  200
   total number of cartesian basis functions :  730
   total number of SCF-basis functions       :  600


 symmetry group of the molecule :   c1 

 the group has the following generators :
   c1(z)

    1 symmetry operations found

 there are 1 real representations :   a   

 maximum number of shells which are related by symmetry :  1


    mo occupation :
   irrep   mo's   occupied
    a      710       37
 
 number of basis functions   :                    710
 number of occupied orbitals :                     37
 
  
           ------------------
           density functional
           ------------------
 PBE functional
 exchange:    LDA + PBE
 correlation: LDA (PW) + PBE

 iterations will be done with small grid
  
 spherical integration : Lebedev's spherical grid
 spherical gridsize    :                     4
    i.e. gridpoints    :                   434
 value for diffuse not defined
 radial integration    : Chebyshev 2nd kind (scaling 3)
 radial gridsize       :                     6
 integration cells     :                    20
 partition function    : becke
 partition sharpness   :                     3
  

 biggest AO integral is expected to be     6.990327543
  
           ------------------------
               RI-J - INFORMATION
           ------------------------
 Contributions to RI integral batches: 
  neglected integral batches:                  7072
  direct contribution:                            0
  memory contribution:                 24303
 Memory core needed for (P|Q) and Cholesky      3 MByte
 Memory core minimum needed except of (P|Q)     3 MByte
 Total minimum memory core needed (sum)         6 MByte
  
 ****************************************
 Memory allocated for RI-J  1493 MByte
 ****************************************
                                            

          ------------------------
          nuclear repulsion energy  :   496.780906011    
          ------------------------

  _________________________________
 |                                 |
 |         DFTD3 V3.1 Rev 0        |
 | S.Grimme, University Bonn       |
 |            June  2014           |
 |   see standalone version        |
 |       dftd3 -h for options      |
 |_________________________________|
 
 Please cite DFT-D3 work done with this code as:
 S. Grimme, J. Antony, S. Ehrlich and H. Krieg,
 J. Chem. Phys, 132 (2010), 154104.
 If used with BJ-damping cite also
 S. Grimme, S. Ehrlich and L. Goerigk,
 J. Comput. Chem. 32 (2011), 1456-1465
 For DFT-D2 the reference is
 S. Grimme, J. Comput. Chem., 27 (2006), 1787-1799
 
C6 coefficients used:
                     2  C6 for element                      1
Z=  1 CN= 0.912     C6(AA)=    3.03
Z=  1 CN= 0.000     C6(AA)=    7.59
                     5  C6 for element                      6
Z=  6 CN= 0.000     C6(AA)=   49.11
Z=  6 CN= 0.987     C6(AA)=   43.25
Z=  6 CN= 1.998     C6(AA)=   29.36
Z=  6 CN= 2.999     C6(AA)=   25.78
Z=  6 CN= 3.984     C6(AA)=   18.21
                     3  C6 for element                      8
Z=  8 CN= 0.000     C6(AA)=   15.51
Z=  8 CN= 0.993     C6(AA)=   12.82
Z=  8 CN= 1.989     C6(AA)=   10.37

#           XYZ [au]              R0(AA) [Ang.]  CN          C6(AA)     C8(AA)   C10(AA) [au]
  1   1.14666   2.51413   0.59797   c   0.610  3.135        25.3       732.5     25951.1
  2   2.35554   4.16168   0.62428   h   0.395  1.004         3.1        37.3       552.9
  3   2.11287   0.16488   1.29468   c   0.610  3.135        25.3       732.4     25948.0
  4   4.06302  -0.00734   1.87793   h   0.395  1.004         3.1        37.3       552.9
  5   0.55351  -1.95792   1.26443   c   0.610  3.136        25.3       732.3     25945.3
  6   1.30107  -3.78127   1.80540   h   0.395  1.004         3.1        37.3       552.9
  7  -1.97067  -1.73233   0.54460   c   0.610  3.134        25.3       732.6     25954.6
  8  -3.17986  -3.37975   0.52789   h   0.395  1.003         3.1        37.3       552.9
  9  -2.93586   0.61860  -0.15107   c   0.610  3.134        25.3       732.6     25955.2
 10  -4.89294   0.79423  -0.71308   h   0.395  1.003         3.1        37.3       553.0
 11  -1.37580   2.74170  -0.12633   c   0.610  3.134        25.3       732.6     25955.6
 12  -2.12334   4.56493  -0.66870   h   0.395  1.003         3.1        37.3       552.9
 13   0.79177  -0.51340   7.60610   c   0.610  3.035        25.6       740.5     26236.6
 14   3.05092  -0.20358   7.75070   o   0.510  1.041        12.8       257.9      6374.9
 15  -0.30333  -2.80262   7.98299   o   0.510  2.037        10.4       209.9      5188.1
 16   1.08458  -3.93855   8.34778   h   0.395  1.017         3.1        37.3       551.9
 17  -1.13931   1.45935   7.00010   c   0.610  4.030        18.3       529.3     18752.5
 18  -0.23547   3.29417   6.91162   h   0.395  1.000         3.1        37.4       553.2
 19  -1.99498   1.01867   5.18085   h   0.395  1.001         3.1        37.4       553.2
 20  -2.62246   1.44888   8.42212   h   0.395  0.999         3.1        37.4       553.3

molecular C6(AA) [au] =      4057.90

           DFT-D V3(BJ)
 DF pbe                                               
 parameters
 s6       :    1.0000
 s8       :    0.7875
 a1       :    0.4289
 a2       :    4.4407
 k1-k3    :   16.0000    1.3333   -4.0000
 
 Edisp /kcal,au:   -12.5471 -0.01999508

 E6    /kcal :    -8.9041
 E8    /kcal :    -3.6430
 % E8        : 29.03
 nuclear repulsion energy                  =     496.780906011
 empirical dispersive energy correction    =      -0.019995081
 nuclear repulsion + dispersion correction =     496.760910929


         -----------------
         -S,T+V- integrals
         -----------------

 1e-integrals will be neglected if expon. factor < 0.407556E-12
 Difference densities >>NOT<< switched on in parallel ridft!

 DIIS switched on: error vector is FDS-SDF
 Max. Iterations for DIIS is     :   4
 DIIS matrix (see manual) 
    Scaling factor of diagonals  :  1.200
    threshold for scaling factor :  0.000

 scf convergence criterion : increment of total energy < .1000000D-06
                  and increment of one-electron energy < .1000000D-03

  MOs are in ASCII format !


 automatic virtual orbital shift switched on 
      shift if e(lumo)-e(homo) < 0.10000000    


 reading orbital data $scfmo  from file mos
 orbital characterization : expanded
 mo provided and orthogonalized by Cholesky decomposition

 DSCF restart information will be dumped onto file mos


 Starting SCF iterations

          Overall gridpoints after grid construction =         53108

 ITERATION  ENERGY          1e-ENERGY        2e-ENERGY     NORM[dD(SAO)]  TOL
   1  -459.15072534976    -1596.8737207     640.96208445    0.000D+00 0.407D-11
                            Exc = -62.7321683760     Coul =  703.694252825    
                              N = 74.000952589    
                            current damping = 0.700
 
          max. resid. norm for Fia-block=  8.487D-01 for orbital     12a         
          max. resid. fock norm         =  6.569D+01 for orbital    599a         

 ITERATION  ENERGY          1e-ENERGY        2e-ENERGY     NORM[dD(SAO)]  TOL
   2  -460.69028801884    -1606.4246611     648.97346211    0.000D+00 0.407D-11
                            Exc = -63.2584827584     Coul =  712.231944872    
                              N = 74.000750320    
                            current damping = 0.650
 
          Norm of current diis error:  3.6376    
          max. resid. norm for Fia-block=  1.674D-01 for orbital      2a         
          max. resid. fock norm         =  3.361D-01 for orbital    647a         

 ITERATION  ENERGY          1e-ENERGY        2e-ENERGY     NORM[dD(SAO)]  TOL
   3  -460.91295647139    -1609.2971241     651.62325675    0.000D+00 0.407D-11
                            Exc = -63.6309664685     Coul =  715.254223217    
                              N = 74.000635295    
                            current damping = 0.550
 
          Norm of current diis error:  1.7769    
          max. resid. norm for Fia-block=  6.640D-02 for orbital      2a         
          max. resid. fock norm         =  7.050D-02 for orbital      2a         

 ITERATION  ENERGY          1e-ENERGY        2e-ENERGY     NORM[dD(SAO)]  TOL
   4  -460.98534709082    -1609.7943060     652.04804799    0.000D+00 0.407D-11
                            Exc = -63.6198502573     Coul =  715.667898249    
                              N = 74.000568995    
                            current damping = 0.400
 
          Norm of current diis error: 0.72395    
          max. resid. norm for Fia-block=  4.050D-02 for orbital     12a         
          max. resid. fock norm         =  6.994D-02 for orbital    464a         

 ITERATION  ENERGY          1e-ENERGY        2e-ENERGY     NORM[dD(SAO)]  TOL
   5  -460.99237276759    -1610.9685446     653.21526086    0.000D+00 0.407D-11
                            Exc = -63.7868109114     Coul =  717.002071772    
                              N = 74.000534431    
                            current damping = 0.300
 
          Norm of current diis error: 0.50954    
          max. resid. norm for Fia-block=  1.922D-02 for orbital     34a         
          max. resid. fock norm         =  4.912D-02 for orbital    710a         
          mo-orthogonalization: Cholesky decomposition

 ITERATION  ENERGY          1e-ENERGY        2e-ENERGY     NORM[dD(SAO)]  TOL
   6  -460.99903172390    -1610.8757176     653.11577492    0.000D+00 0.407D-11
                            Exc = -63.7593099365     Coul =  716.875084861    
                              N = 74.000526184    
                            current damping = 0.350
 
          Norm of current diis error: 0.23540    
          max. resid. norm for Fia-block=  9.466D-03 for orbital     34a         
          max. resid. fock norm         =  2.472D-02 for orbital    709a         

 ITERATION  ENERGY          1e-ENERGY        2e-ENERGY     NORM[dD(SAO)]  TOL
   7  -461.00034360203    -1610.6950220     652.93376743    0.000D+00 0.407D-11
                            Exc = -63.7396712695     Coul =  716.673438695    
                              N = 74.000521317    
                            current damping = 0.200
 
          Norm of current diis error: 0.10159    
          max. resid. norm for Fia-block=  3.290D-03 for orbital     17a         
          max. resid. fock norm         =  5.018D-03 for orbital    709a         

 ITERATION  ENERGY          1e-ENERGY        2e-ENERGY     NORM[dD(SAO)]  TOL
   8  -461.00058575809    -1610.8273279     653.06583117    0.000D+00 0.407D-11
                            Exc = -63.7569904847     Coul =  716.822821660    
                              N = 74.000521616    
                            current damping = 0.250
 
          Norm of current diis error: 0.24928E-01
          max. resid. norm for Fia-block=  7.196D-04 for orbital     36a         
          max. resid. fock norm         =  1.693D-03 for orbital    707a         

 ITERATION  ENERGY          1e-ENERGY        2e-ENERGY     NORM[dD(SAO)]  TOL
   9  -461.00058927345    -1610.8408858     653.07938557    0.000D+00 0.407D-11
                            Exc = -63.7577408932     Coul =  716.837126463    
                              N = 74.000521353    
                            current damping = 0.100
 
          Norm of current diis error: 0.21003E-01
          max. resid. norm for Fia-block=  4.446D-04 for orbital     36a         
          max. resid. fock norm         =  1.094D-03 for orbital      5a         

 ITERATION  ENERGY          1e-ENERGY        2e-ENERGY     NORM[dD(SAO)]  TOL
  10  -461.00059806750    -1610.8203390     653.05883005    0.000D+00 0.407D-11
                            Exc = -63.7553850988     Coul =  716.814215144    
                              N = 74.000521209    
                            current damping = 0.150
 
          Norm of current diis error: 0.88811E-02
          max. resid. norm for Fia-block=  1.756D-04 for orbital     23a         
          max. resid. fock norm         =  3.983D-04 for orbital    704a         
          mo-orthogonalization: Cholesky decomposition

 ITERATION  ENERGY          1e-ENERGY        2e-ENERGY     NORM[dD(SAO)]  TOL
  11  -461.00059977004    -1610.8192847     653.05777397    0.000D+00 0.407D-11
                            Exc = -63.7556684008     Coul =  716.813442367    
                              N = 74.000521228    
                            current damping = 0.050
 
          Norm of current diis error: 0.29949E-02
          max. resid. norm for Fia-block=  1.120D-04 for orbital     34a         
          max. resid. fock norm         =  2.644D-04 for orbital    709a         

 ITERATION  ENERGY          1e-ENERGY        2e-ENERGY     NORM[dD(SAO)]  TOL
  12  -461.00059985093    -1610.8242079     653.06269709    0.000D+00 0.407D-11
                            Exc = -63.7559696264     Coul =  716.818666715    
                              N = 74.000521272    
                            current damping = 0.100
 
          Norm of current diis error: 0.22819E-02
          max. resid. norm for Fia-block=  7.858D-05 for orbital     34a         
          max. resid. fock norm         =  2.060D-04 for orbital    709a         

 ITERATION  ENERGY          1e-ENERGY        2e-ENERGY     NORM[dD(SAO)]  TOL
  13  -461.00059996850    -1610.8231893     653.06167839    0.000D+00 0.407D-11
                            Exc = -63.7559493118     Coul =  716.817627705    
                              N = 74.000521247    
                            current damping = 0.150
 
          Norm of current diis error: 0.90531E-03
          max. resid. norm for Fia-block=  3.531D-05 for orbital     37a         
          max. resid. fock norm         =  7.317D-05 for orbital    710a         

 ITERATION  ENERGY          1e-ENERGY        2e-ENERGY     NORM[dD(SAO)]  TOL
  14  -461.00059998973    -1610.8218776     653.06036663    0.000D+00 0.407D-11
                            Exc = -63.7557919456     Coul =  716.816158578    
                              N = 74.000521241    
                            current damping = 0.050
 
          Norm of current diis error: 0.37793E-03
          max. resid. norm for Fia-block=  1.202D-05 for orbital     37a         
          max. resid. fock norm         =  1.461D-05 for orbital    464a         

 ITERATION  ENERGY          1e-ENERGY        2e-ENERGY     NORM[dD(SAO)]  TOL
  15  -461.00059999280    -1610.8224873     653.06097642    0.000D+00 0.407D-11
                            Exc = -63.7558804718     Coul =  716.816856896    
                              N = 74.000521247    
                            current damping = 0.100
 
          Norm of current diis error: 0.22750E-03
          max. resid. norm for Fia-block=  5.505D-06 for orbital     17a         
          max. resid. fock norm         =  9.710D-06 for orbital    704a         
          mo-orthogonalization: Cholesky decomposition

 ENERGY CONVERGED !

          Overall gridpoints after grid construction =        192691

 ITERATION  ENERGY          1e-ENERGY        2e-ENERGY     NORM[dD(SAO)]  TOL
  16  -461.00043453703    -1610.8224852     653.06113978    0.000D+00 0.407D-11
                            Exc = -63.7556959824     Coul =  716.816835764    
                              N = 74.000024830    
                            current damping = 0.150
 
          Norm of current diis error: 0.79364E-04
          max. resid. norm for Fia-block=  1.600D-06 for orbital     37a         
          max. resid. fock norm         =  3.506D-06 for orbital    707a         

 End of SCF iterations

   convergence criteria satisfied after    16 iterations


                  ------------------------------------------ 
                 |  total energy      =   -461.00043453703  |
                  ------------------------------------------ 
                 :  kinetic energy    =    459.18108430210  :
                 :  potential energy  =   -920.18151883913  :
                 :  virial theorem    =      1.99605347393  :
                 :  wavefunction norm =      1.00000000000  :
                  .......................................... 


 orbitals $scfmo  will be written to file mos

    irrep                 33a         34a         35a         36a         37a   
 eigenvalues H         -0.30513    -0.28297    -0.23772    -0.23667    -0.23299
            eV          -8.3030     -7.7000     -6.4686     -6.4403     -6.3399
 occupation              2.0000      2.0000      2.0000      2.0000      2.0000 

    irrep                 38a         39a         40a         41a         42a   
 eigenvalues H         -0.04924    -0.04789    -0.03338    -0.00795     0.01199
            eV          -1.3399     -1.3033     -0.9084     -0.2163      0.3263
 
 
 
 
 ==============================================================================
                           electrostatic moments
 ==============================================================================

 reference point for electrostatic moments:    0.00000   0.00000   0.00000

 
              nuc           elec       ->  total
 ------------------------------------------------------------------------------
                          charge      
 ------------------------------------------------------------------------------
          74.000000     -74.000000      -0.000000
 
 ------------------------------------------------------------------------------
                       dipole moment  
 ------------------------------------------------------------------------------
   x      -1.165039       0.566636      -0.598403
   y      -0.103956       0.003488      -0.100467
   z     266.368575    -266.534172      -0.165597
 
   | dipole moment | =     0.6290 a.u. =     1.5987 debye 
 
 ------------------------------------------------------------------------------
                     quadrupole moment
 ------------------------------------------------------------------------------
  xx     284.036445    -329.503599     -45.467154
  yy     298.031417    -337.404304     -39.372887
  zz    1878.984013   -1926.989893     -48.005880
  xy     -19.601162      17.802192      -1.798969
  xz     169.759196    -173.187197      -3.428001
  yz    -168.873194     166.563749      -2.309445
 
     1/3  trace=     -44.281974
     anisotropy=      10.955362
 
 ==============================================================================
 


    ------------------------------------------------------------------------
         total  cpu-time :  6 minutes and  1 seconds
         total wall-time :  1 minutes and 44 seconds
    ------------------------------------------------------------------------

   ****  ridft : all done  ****


    2019-03-12 22:50:20.287 

