 operating system is UNIX !

 ridft (c-12-253.gp.local) : TURBOMOLE V7.2 ( 21454 ) 4 Oct 2017 at 12:48:15
 Copyright (C) 2017 TURBOMOLE GmbH, Karlsruhe


    2018-04-28 11:07:54.472 



                                  r i d f t

                        DFT program with RI approximation 
                                for coulomb part 




                                                 
                                 References:     
                                                 
          TURBOMOLE:                             
              R. Ahlrichs, M. Baer, M. Haeser, H. Horn, and
              C. Koelmel
              Electronic structure calculations on workstation
              computers: the program system TURBOMOLE
              Chem. Phys. Lett. 162: 165 (1989)
          Density Functional:                              
              O. Treutler and R. Ahlrichs                      
              Efficient Molecular Numerical Integration Schemes
              J. Chem. Phys. 102: 346 (1995)                   
          Parallel Version:                                
              Performance of parallel TURBOMOLE for Density    
              Functional Calculations                          
              M. v. Arnim and R. Ahlrichs                      
              J. Comp. Chem. 19: 1746 (1998)                   
          RI-J Method:                                     
              Auxiliary Basis Sets to approximate Coulomb      
              Potentials                                       
              Chem. Phys. Lett. 240: 283 (1995)                
              K. Eichkorn, O. Treutler, H. Oehm, M. Haeser     
              and R. Ahlrichs                                  
              Chem. Phys. Lett. 242: 652 (1995)                
                                                           
              Auxiliary Basis Sets for Main Row Atoms and their
              Use to approximate Coulomb Potentials            
              K. Eichkorn, F. Weigend, O. Treutler and         
              R. Ahlrichs                                      
              Theo. Chem. Acc. 97: 119 (1997)                   
                                                           
              Accurate Coulomb-fitting basis sets for H to Rn 
              F. Weigend                                        
              Phys. Chem. Chem. Phys. 8: 1057 (2006)            
                                                           
          Multipole accelerated RI-J (MARI-J):             
              Fast evaluation of the Coulomb potential for     
              electron densities using multipole accelerated   
              resolution of identity approximation             
              M. Sierka, A. Hogekamp and R. Ahlrichs           
              J. Chem. Phys. 118: 9136 (2003)                  
          RI-JK Method:                                     
              A fully direct RI-HF algorithm: Implementation,
              optimised auxiliary basis sets, demonstration of
              accuracy and efficiency                         
              F. Weigend                                      
              Phys. Chem. Chem. Phys. 4: 4285 (2002)           
          Two-component HF and DFT with spin-orbit coupling:  
              Self-consistent treatment of spin-orbit         
              interactions with efficient Hartree-Fock and    
              density functional methods                      
              M. K. Armbruster, F. Weigend, C. van Wüllen and 
              W. Klopper                                      
              Phys. Chem. Chem. Phys. 10: 1748 (2008)         
          Relativistic all-electron 2c calculations           
              An efficient implementation of two-component    
              relativistic exact-decoupling methods for large 
              molecules                                       
              D. Peng, N. Middendorf, F. Weigend, M. Reiher   
              J. Chem. Phys. 138, 184105 (2013)               
                                         




              +--------------------------------------------------+
              |      general information about current run       |
              +--------------------------------------------------+

 

 DENSITY CONVERGENCE CHECK SWITCHED ON !
 SCF CONVERGENCE IF RMS(delta[D]) <     0.1000000000E-06

 A HF calculation using the RI-JK approximation will be carried out.
 Allocatable memory for RI due to $ricore (MB):                   500


              +--------------------------------------------------+
              | Atomic coordinate, charge and isotop information |
              +--------------------------------------------------+

                    atomic coordinates            atom    charge  isotop
          1.47426450   -1.15257181   -2.28195181    c      6.000     0
          1.69355668   -2.14982727   -4.05184613    h      1.000     0
          0.90318091    1.41917229   -2.28259152    c      6.000     0
          0.67456464    2.41538710   -4.05167501    h      1.000     0
          0.61848710    2.70583813    0.00000000    c      6.000     0
          0.17284385    4.70001197    0.00000000    h      1.000     0
          0.90318091    1.41917229    2.28259152    c      6.000     0
          0.67456464    2.41538710    4.05167501    h      1.000     0
          1.47426450   -1.15257181    2.28195181    c      6.000     0
          1.69355668   -2.14982727    4.05184613    h      1.000     0
          1.76056016   -2.43771145    0.00000000    c      6.000     0
          2.20811802   -4.43181160    0.00000000    h      1.000     0
         -5.18508954   -0.50883251    0.00000000    o      8.000     0
         -4.87365513   -2.29409747    0.00000000    h      1.000     0
         -3.50833376    0.19337144    0.00000000    h      1.000     0
 
       center of nuclear mass  :    0.01512133    0.00179001    0.00000000
       center of nuclear charge:    0.00111784   -0.01084808    0.00000000

              +--------------------------------------------------+
              |               basis set information              |
              +--------------------------------------------------+

              we will work with the 1s 3p 5d 7f 9g ... basis set
              ...i.e. with spherical basis functions...

   type   atoms  prim   cont   basis
   ---------------------------------------------------------------------------
    c        6     77     57   def2-QZVP   [7s4p3d2f1g|15s8p3d2f1g]
    h        8     33     30   def2-QZVP   [4s3p2d1f|7s3p2d1f]
    o        1     77     57   def2-QZVP   [7s4p3d2f1g|15s8p3d2f1g]
   ---------------------------------------------------------------------------
   total:   15    803    639
   ---------------------------------------------------------------------------

   total number of primitive shells          :   71
   total number of contracted shells         :  199
   total number of cartesian basis functions :  784
   total number of SCF-basis functions       :  639


 integral neglect threshold       :  0.43E-13
 integral storage threshold THIZE :  0.10E-04
 integral storage threshold THIME :         5

 RI-JK AUXILIARY BASIS SET information:

              we will work with the 1s 3p 5d 7f 9g ... basis set
              ...i.e. with spherical basis functions...

   type   atoms  prim   cont   basis
   ---------------------------------------------------------------------------
    c        6     97     75   def2-QZVP   [10s8p5d1f1g|14s10p6d2f1g]
    h        8     20     18   def2-QZVP   [2s2p2d|4s2p2d]
    o        1     97     77   def2-QZVP   [10s8p4d2f1g|14s10p6d2f1g]
   ---------------------------------------------------------------------------
   total:   15    839    671
   ---------------------------------------------------------------------------

   total number of primitive shells          :   74
   total number of contracted shells         :  223
   total number of cartesian basis functions :  787
   total number of SCF-basis functions       :  671


 symmetry group of the molecule :   c1 

 the group has the following generators :
   c1(z)

    1 symmetry operations found

 there are 1 real representations :   a   

 maximum number of shells which are related by symmetry :  1


    mo occupation :
   irrep   mo's   occupied
    a      639       26
 
 number of basis functions   :                    639
 number of occupied orbitals :                     26
 

 biggest AO integral is expected to be     6.990327543
  
           ------------------------
               RI-JK - INFORMATION
           ------------------------
 Contributions to RI integral batches: 
  neglected integral batches:                  3197
  direct contribution:                        14953
  memory contribution:                  1750
 Memory core needed for (P|Q) and Cholesky      4 MByte
 Memory core minimum needed except of (P|Q)     1 MByte
 Total minimum memory core needed (sum)         4 MByte
  
 ****************************************
 Memory allocated for RI-J    38 MByte
 ****************************************
                                            
 total memory allocated for calculation of  (Q|P)**(-1/2) :    6 MiB

  forming (P|Q)**(-1/2) 
 eigenvalues of original matrix 
 smallest =0.2586977875313E-07  largest = 33.87202797785    
  The symmetry information takes                      1  MB

          ------------------------
          nuclear repulsion energy  :   274.020411965    
          ------------------------


         -----------------
         -S,T+V- integrals
         -----------------

 1e-integrals will be neglected if expon. factor < 0.426271E-14
 
   Difference densities algorithm switched on.
   The maximal number of linear combinations of
   difference densities is                    20 .

 DIIS switched on: error vector is FDS-SDF
 Max. Iterations for DIIS is     :   5
 DIIS matrix (see manual) 
    Scaling factor of diagonals  :  1.200
    threshold for scaling factor :  0.000

 scf convergence criterion : increment of total energy < .1000000D-08
                  and increment of one-electron energy < .1000000D-05

  MOs are in ASCII format !


 automatic virtual orbital shift switched on 
      shift if e(lumo)-e(homo) < 0.10000000    


 reading orbital data $scfmo  from file mos
 orbital characterization : scfconv=9

 DSCF restart information will be dumped onto file mos


 Starting SCF iterations

 
 BLOCKING OF MOS FOR RI-K
 
 
 occupied MOs partitioned into blocks of maximum length 26
 this requires 105 MiB core memory.
 
            MULTIPLE PASS Statistics 
 ----------------------------------------------------
  pass       irrep     lambda      batch : MO  to  MO
 ----------------------------------------------------
   1       1  ->  1    1  -> 26             1  ->  26



 ENERGY & DENSITY CONVERGED !


 ITERATION  ENERGY          1e-ENERGY        2e-ENERGY     RMS[dD(SAO)]   TOL
   1  -306.81894106388    -959.84091872     379.00156569    0.000D+00 0.425D-13
                           RI-K = -42.1955568669     Coul =  421.197122559    
                            current damping = 0.700
 
          max. resid. norm for Fia-block=  1.175D-01 for orbital      1a         
          max. resid. fock norm         =  6.872D-01 for orbital    632a         

 End of SCF iterations

   convergence criteria satisfied after     1 iterations


                  ------------------------------------------ 
                 |  total energy      =   -306.81894106388  |
                  ------------------------------------------ 
                 :  kinetic energy    =    307.55342801906  :
                 :  potential energy  =   -614.37236908294  :
                 :  virial theorem    =      2.00239387749  :
                 :  wavefunction norm =      1.00000000000  :
                  .......................................... 


 orbitals $scfmo  will be written to file mos

    irrep                 22a         23a         24a         25a         26a   
 eigenvalues H         -0.48531    -0.48518    -0.46121    -0.34004    -0.37261
            eV         -13.2061    -13.2026    -12.5502     -9.2531    -10.1392
 occupation              2.0000      2.0000      2.0000      2.0000      2.0000 

    irrep                 27a         28a         29a         30a         31a   
 eigenvalues H          0.12698     0.12812     0.11380     0.14725     0.13863
            eV           3.4554      3.4864      3.0966      4.0068      3.7723
 
 
 
 
 ==============================================================================
                           electrostatic moments
 ==============================================================================

 reference point for electrostatic moments:    0.00000   0.00000   0.00000

 
              nuc           elec       ->  total
 ------------------------------------------------------------------------------
                          charge      
 ------------------------------------------------------------------------------
          52.000000     -52.000000       0.000000
 
 ------------------------------------------------------------------------------
                       dipole moment  
 ------------------------------------------------------------------------------
   x       0.058128       0.772049       0.830176
   y      -0.564100       0.263168      -0.300933
   z      -0.000000      -0.000000      -0.000000
 
   | dipole moment | =     0.8830 a.u. =     2.2445 debye 
 
 ------------------------------------------------------------------------------
                     quadrupole moment
 ------------------------------------------------------------------------------
  xx     319.457041    -359.653870     -40.196829
  yy     189.707975    -216.753998     -27.046023
  zz     190.677392    -219.742751     -29.065359
  xy      -2.106055       2.813097       0.707041
  xz       0.000000      -0.000000      -0.000000
  yz      -0.000000      -0.000000      -0.000000
 
     1/3  trace=     -32.102737
     anisotropy=      12.327418
 
 ==============================================================================
 


    ------------------------------------------------------------------------
         total  cpu-time :  22.41 seconds
         total wall-time :  22.51 seconds
    ------------------------------------------------------------------------

   ****  ridft : all done  ****


    2018-04-28 11:08:16.966 

