           Doing BLAS/Lapack in the master proc. with  8 CPUs.
           SMPCPUS    set: Shared-memory Parallelization with   8 CPUs.

           SMP Parallelization Reference:
           C. van Wullen, J. Comput. Chem. 32 (2011) 1195--1201
 operating system is UNIX !

 ridft (c-8-293.gp.local) : TURBOMOLE V7.2 ( 21454 ) 4 Oct 2017 at 12:48:15
 Copyright (C) 2017 TURBOMOLE GmbH, Karlsruhe


    2018-04-28 21:04:47.388 



                                  r i d f t

                        DFT program with RI approximation 
                                for coulomb part 




                                                 
                                 References:     
                                                 
          TURBOMOLE:                             
              R. Ahlrichs, M. Baer, M. Haeser, H. Horn, and
              C. Koelmel
              Electronic structure calculations on workstation
              computers: the program system TURBOMOLE
              Chem. Phys. Lett. 162: 165 (1989)
          Density Functional:                              
              O. Treutler and R. Ahlrichs                      
              Efficient Molecular Numerical Integration Schemes
              J. Chem. Phys. 102: 346 (1995)                   
          Parallel Version:                                
              Performance of parallel TURBOMOLE for Density    
              Functional Calculations                          
              M. v. Arnim and R. Ahlrichs                      
              J. Comp. Chem. 19: 1746 (1998)                   
          RI-J Method:                                     
              Auxiliary Basis Sets to approximate Coulomb      
              Potentials                                       
              Chem. Phys. Lett. 240: 283 (1995)                
              K. Eichkorn, O. Treutler, H. Oehm, M. Haeser     
              and R. Ahlrichs                                  
              Chem. Phys. Lett. 242: 652 (1995)                
                                                           
              Auxiliary Basis Sets for Main Row Atoms and their
              Use to approximate Coulomb Potentials            
              K. Eichkorn, F. Weigend, O. Treutler and         
              R. Ahlrichs                                      
              Theo. Chem. Acc. 97: 119 (1997)                   
                                                           
              Accurate Coulomb-fitting basis sets for H to Rn 
              F. Weigend                                        
              Phys. Chem. Chem. Phys. 8: 1057 (2006)            
                                                           
          Multipole accelerated RI-J (MARI-J):             
              Fast evaluation of the Coulomb potential for     
              electron densities using multipole accelerated   
              resolution of identity approximation             
              M. Sierka, A. Hogekamp and R. Ahlrichs           
              J. Chem. Phys. 118: 9136 (2003)                  
          RI-JK Method:                                     
              A fully direct RI-HF algorithm: Implementation,
              optimised auxiliary basis sets, demonstration of
              accuracy and efficiency                         
              F. Weigend                                      
              Phys. Chem. Chem. Phys. 4: 4285 (2002)           
          Two-component HF and DFT with spin-orbit coupling:  
              Self-consistent treatment of spin-orbit         
              interactions with efficient Hartree-Fock and    
              density functional methods                      
              M. K. Armbruster, F. Weigend, C. van Wüllen and 
              W. Klopper                                      
              Phys. Chem. Chem. Phys. 10: 1748 (2008)         
          Relativistic all-electron 2c calculations           
              An efficient implementation of two-component    
              relativistic exact-decoupling methods for large 
              molecules                                       
              D. Peng, N. Middendorf, F. Weigend, M. Reiher   
              J. Chem. Phys. 138, 184105 (2013)               
                                         




              +--------------------------------------------------+
              |      general information about current run       |
              +--------------------------------------------------+

 

 DENSITY CONVERGENCE CHECK SWITCHED ON !
 SCF CONVERGENCE IF RMS(delta[D]) <     0.1000000000E-06

 TPSS meta-GGA functional
 exchange:    LDA + TPSS
 correlation: LDA (PW) + TPSS
 A DFT calculation using the RI-J approximation will be carried out.
 Allocatable memory for RI due to $ricore (MB):                  5000


              +--------------------------------------------------+
              | Atomic coordinate, charge and isotop information |
              +--------------------------------------------------+

                    atomic coordinates            atom    charge  isotop
          1.99691733   -1.63179800    8.31242086    c      6.000     0
          2.85457428   -1.80575909    6.44540440    h      1.000     0
          3.02587794   -2.88653887    9.57702118    h      1.000     0
          2.09955492    1.13844980    9.13055129    c      6.000     0
          3.91046056    2.03209928    8.73234010    h      1.000     0
          1.74406855    1.29272240   11.15864909    h      1.000     0
         -0.10641987    2.29650134    7.67400481    c      6.000     0
          0.41194009    2.46427425    5.68323196    h      1.000     0
         -0.64388524    4.16948662    8.33849680    h      1.000     0
         -2.21713907    0.33577458    7.99720149    c      6.000     0
         -3.58820960    0.38039830    6.46393078    h      1.000     0
         -3.24531190    0.72259615    9.73999880    h      1.000     0
         -0.85079839   -2.24662656    8.19308462    c      6.000     0
         -1.30936793   -3.46390523    6.59936580    h      1.000     0
         -1.44626286   -3.24327269    9.89211172    h      1.000     0
 
       center of nuclear mass  :    0.18254968   -0.02330033    8.26168291
       center of nuclear charge:    0.18116434   -0.02460230    8.26185323

              +--------------------------------------------------+
              |               basis set information              |
              +--------------------------------------------------+

              we will work with the 1s 3p 5d 7f 9g ... basis set
              ...i.e. with spherical basis functions...

   type   atoms  prim   cont   basis
   ---------------------------------------------------------------------------
    c        5     77     55   cc-pVQZ   [5s4p3d2f1g|21s6p3d2f1g]
    h       10     32     30   cc-pVQZ   [4s3p2d1f|6s3p2d1f]
   ---------------------------------------------------------------------------
   total:   15    705    575
   ---------------------------------------------------------------------------

   total number of primitive shells          :   45
   total number of contracted shells         :  175
   total number of cartesian basis functions :  700
   total number of SCF-basis functions       :  575


 integral neglect threshold       :  0.48E-13
 integral storage threshold THIZE :  0.10E-04
 integral storage threshold THIME :         5

 RI-J AUXILIARY BASIS SET information:

              we will work with the 1s 3p 5d 7f 9g ... basis set
              ...i.e. with spherical basis functions...

   type   atoms  prim   cont   basis
   ---------------------------------------------------------------------------
    c        5     70     49   cc-pVQZ   [6s4p3d1f1g|12s5p4d2f1g]
    h       10     16     11   cc-pVQZ   [3s1p1d|5s2p1d]
   ---------------------------------------------------------------------------
   total:   15    510    355
   ---------------------------------------------------------------------------

   total number of primitive shells          :   32
   total number of contracted shells         :  125
   total number of cartesian basis functions :  425
   total number of SCF-basis functions       :  355


 symmetry group of the molecule :   c1 

 the group has the following generators :
   c1(z)

    1 symmetry operations found

 there are 1 real representations :   a   

 maximum number of shells which are related by symmetry :  1


    mo occupation :
   irrep   mo's   occupied
    a      575       20
 
 number of basis functions   :                    575
 number of occupied orbitals :                     20
 
  
           ------------------
           density functional
           ------------------
 TPSS meta-GGA functional
 exchange:    LDA + TPSS
 correlation: LDA (PW) + TPSS

 iterations will be done with small grid
  
 spherical integration : Lebedev's spherical grid
 spherical gridsize    :                     5
    i.e. gridpoints    :                   590
 value for diffuse not defined
 radial integration    : Chebyshev 2nd kind (scaling 3)
 radial gridsize       :                     8
 integration cells     :                    15
 partition function    : becke
 partition sharpness   :                     3
  

 biggest AO integral is expected to be     3.537514283
  
           ------------------------
               RI-J - INFORMATION
           ------------------------
 Contributions to RI integral batches: 
  neglected integral batches:                  1182
  direct contribution:                            0
  memory contribution:                 14218
 Memory core needed for (P|Q) and Cholesky      1 MByte
 Memory core minimum needed except of (P|Q)     2 MByte
 Total minimum memory core needed (sum)         3 MByte
  
 ****************************************
 Memory allocated for RI-J   750 MByte
 ****************************************
                                            

          ------------------------
          nuclear repulsion energy  :   188.337285660    
          ------------------------


         -----------------
         -S,T+V- integrals
         -----------------

 1e-integrals will be neglected if expon. factor < 0.477423E-14
 Difference densities >>NOT<< switched on in parallel ridft!

 DIIS switched on: error vector is FDS-SDF
 Max. Iterations for DIIS is     :   4
 DIIS matrix (see manual) 
    Scaling factor of diagonals  :  1.200
    threshold for scaling factor :  0.000

 scf convergence criterion : increment of total energy < .1000000D-08
                  and increment of one-electron energy < .1000000D-05

  MOs are in ASCII format !


 automatic virtual orbital shift switched on 
      shift if e(lumo)-e(homo) < 0.10000000    


 reading orbital data $scfmo  from file mos
 orbital characterization : expanded
 mo provided and orthogonalized by Cholesky decomposition

 DSCF restart information will be dumped onto file mos


 Starting SCF iterations

          Overall gridpoints after grid construction =         65615

 ITERATION  ENERGY          1e-ENERGY        2e-ENERGY     RMS[dD(SAO)]   TOL
   1  -196.01056995518    -627.45366613     243.10581052    0.000D+00 0.476D-13
                            Exc = -29.9834215977     Coul =  273.089232118    
                              N = 39.999963640    
                            current damping = 0.700
 
          max. resid. norm for Fia-block=  2.543D-01 for orbital      6a         
          max. resid. fock norm         =  7.188D+00 for orbital    542a         

 ITERATION  ENERGY          1e-ENERGY        2e-ENERGY     RMS[dD(SAO)]   TOL
   2  -196.52254234119    -633.36833126     248.50850326    0.304D-02 0.476D-13
                            Exc = -30.6070108075     Coul =  279.115514066    
                              N = 39.999966189    
                            current damping = 0.650
 
          Norm of current diis error:  2.5341    
          max. resid. norm for Fia-block=  1.080D-01 for orbital      6a         
          max. resid. fock norm         =  1.519D-01 for orbital    570a         

 ITERATION  ENERGY          1e-ENERGY        2e-ENERGY     RMS[dD(SAO)]   TOL
   3  -196.63207355195    -634.35552661     249.38616740    0.149D-02 0.476D-13
                            Exc = -30.8023258499     Coul =  280.188493246    
                              N = 39.999968798    
                            current damping = 0.550
 
          Norm of current diis error:  1.2194    
          max. resid. norm for Fia-block=  4.969D-02 for orbital      6a         
          max. resid. fock norm         =  5.578D-02 for orbital      6a         

 ITERATION  ENERGY          1e-ENERGY        2e-ENERGY     RMS[dD(SAO)]   TOL
   4  -196.66525195738    -635.71447776     250.71194014    0.726D-03 0.476D-13
                            Exc = -30.9612181366     Coul =  281.673158275    
                              N = 39.999971060    
                            current damping = 0.450
 
          Norm of current diis error: 0.43415    
          max. resid. norm for Fia-block=  1.898D-02 for orbital      6a         
          max. resid. fock norm         =  2.115D-02 for orbital      6a         

 ITERATION  ENERGY          1e-ENERGY        2e-ENERGY     RMS[dD(SAO)]   TOL
   5  -196.67021005164    -635.76313305     250.75563733    0.342D-03 0.476D-13
                            Exc = -30.9999070708     Coul =  281.755544405    
                              N = 39.999972272    
                            current damping = 0.300
 
          Norm of current diis error: 0.17249    
          max. resid. norm for Fia-block=  6.450D-03 for orbital      9a         
          max. resid. fock norm         =  7.099D-03 for orbital      6a         
          mo-orthogonalization: Cholesky decomposition

 ITERATION  ENERGY          1e-ENERGY        2e-ENERGY     RMS[dD(SAO)]   TOL
   6  -196.67098347370    -636.12126350     251.11299437    0.134D-03 0.476D-13
                            Exc = -31.0336193327     Coul =  282.146613703    
                              N = 39.999972760    
                            current damping = 0.150
 
          Norm of current diis error: 0.55609E-01
          max. resid. norm for Fia-block=  1.751D-03 for orbital     20a         
          max. resid. fock norm         =  2.627D-03 for orbital     54a         

 ITERATION  ENERGY          1e-ENERGY        2e-ENERGY     RMS[dD(SAO)]   TOL
   7  -196.67104291507    -636.00465488     250.99632630    0.529D-04 0.476D-13
                            Exc = -31.0298094217     Coul =  282.026135725    
                              N = 39.999972861    
                            current damping = 0.200
 
          Norm of current diis error: 0.21496E-01
          max. resid. norm for Fia-block=  4.491D-04 for orbital     12a         
          max. resid. fock norm         =  7.189D-04 for orbital    561a         

 ITERATION  ENERGY          1e-ENERGY        2e-ENERGY     RMS[dD(SAO)]   TOL
   8  -196.67105152233    -636.04914352     251.04080634    0.821D-05 0.476D-13
                            Exc = -31.0329214152     Coul =  282.073727753    
                              N = 39.999972890    
                            current damping = 0.250
 
          Norm of current diis error: 0.80918E-03
          max. resid. norm for Fia-block=  4.067D-05 for orbital      6a         
          max. resid. fock norm         =  1.254D-04 for orbital    564a         

 ITERATION  ENERGY          1e-ENERGY        2e-ENERGY     RMS[dD(SAO)]   TOL
   9  -196.67105154229    -636.04911558     251.04077837    0.139D-05 0.476D-13
                            Exc = -31.0329514283     Coul =  282.073729803    
                              N = 39.999972892    
                            current damping = 0.300
 
          Norm of current diis error: 0.33495E-03
          max. resid. norm for Fia-block=  1.217D-05 for orbital     11a         
          max. resid. fock norm         =  3.866D-05 for orbital    561a         

 ITERATION  ENERGY          1e-ENERGY        2e-ENERGY     RMS[dD(SAO)]   TOL
  10  -196.67105154467    -636.04947936     251.04114215    0.321D-06 0.476D-13
                            Exc = -31.0329925129     Coul =  282.074134667    
                              N = 39.999972894    
                            current damping = 0.350
 
          Norm of current diis error: 0.14444E-03
          max. resid. norm for Fia-block=  4.273D-06 for orbital     16a         
          max. resid. fock norm         =  1.280D-05 for orbital    562a         
          mo-orthogonalization: Cholesky decomposition

 ITERATION  ENERGY          1e-ENERGY        2e-ENERGY     RMS[dD(SAO)]   TOL
  11  -196.67105154510    -636.04948417     251.04114697    0.104D-06 0.476D-13
                            Exc = -31.0329977548     Coul =  282.074144724    
                              N = 39.999972894    
                            current damping = 0.200
 
          Norm of current diis error: 0.29254E-04
          max. resid. norm for Fia-block=  1.250D-06 for orbital     19a         
          max. resid. fock norm         =  3.853D-06 for orbital    565a         

 DENSITY CONVERGED !


 ITERATION  ENERGY          1e-ENERGY        2e-ENERGY     RMS[dD(SAO)]   TOL
  12  -196.67105154511    -636.04942211     251.04108491    0.391D-07 0.476D-13
                            Exc = -31.0329928646     Coul =  282.074077773    
                              N = 39.999972894    
                            current damping = 0.250
 
          Norm of current diis error: 0.13023E-04
          max. resid. norm for Fia-block=  4.537D-07 for orbital     12a         
          max. resid. fock norm         =  1.183D-06 for orbital    563a         

 DENSITY CONVERGED !


 ITERATION  ENERGY          1e-ENERGY        2e-ENERGY     RMS[dD(SAO)]   TOL
  13  -196.67105154512    -636.04946395     251.04112674    0.940D-08 0.476D-13
                            Exc = -31.0329955495     Coul =  282.074122290    
                              N = 39.999972894    
                            current damping = 0.300
 
          Norm of current diis error: 0.90568E-05
          max. resid. norm for Fia-block=  1.840D-07 for orbital     15a         
          max. resid. fock norm         =  2.561D-07 for orbital     12a         

 ENERGY & DENSITY CONVERGED !

          Overall gridpoints after grid construction =        218983

 ITERATION  ENERGY          1e-ENERGY        2e-ENERGY     RMS[dD(SAO)]   TOL
  14  -196.67097856130    -636.04945167     251.04118745    0.309D-08 0.476D-13
                            Exc = -31.0329219860     Coul =  282.074109432    
                              N = 39.999996896    
                            current damping = 0.350
 
          Norm of current diis error: 0.14207E-05
          max. resid. norm for Fia-block=  3.973D-08 for orbital     17a         
          max. resid. fock norm         =  1.277D-07 for orbital    569a         

 End of SCF iterations

   convergence criteria satisfied after    14 iterations


                  ------------------------------------------ 
                 |  total energy      =   -196.67097856130  |
                  ------------------------------------------ 
                 :  kinetic energy    =    195.76130397091  :
                 :  potential energy  =   -392.43228253221  :
                 :  virial theorem    =      1.99537463739  :
                 :  wavefunction norm =      1.00000000000  :
                  .......................................... 


 <geterg> : there is no data group $energy 


 <skperg> : $end is missing 


 orbitals $scfmo  will be written to file mos

    irrep                 16a         17a         18a         19a         20a   
 eigenvalues H         -0.29822    -0.29479    -0.29107    -0.28721    -0.27733
            eV          -8.1150     -8.0218     -7.9206     -7.8155     -7.5467
 occupation              2.0000      2.0000      2.0000      2.0000      2.0000 

    irrep                 21a         22a         23a         24a         25a   
 eigenvalues H          0.01257     0.03161     0.04953     0.05048     0.07800
            eV           0.3421      0.8602      1.3477      1.3735      2.1225
 
 
 
 
 ==============================================================================
                           electrostatic moments
 ==============================================================================

 reference point for electrostatic moments:    0.00000   0.00000   0.00000

 
              nuc           elec       ->  total
 ------------------------------------------------------------------------------
                          charge      
 ------------------------------------------------------------------------------
          40.000000     -40.000000       0.000000
 
 ------------------------------------------------------------------------------
                       dipole moment  
 ------------------------------------------------------------------------------
   x       7.246573      -7.240047       0.006526
   y      -0.984092       0.990693       0.006601
   z     330.474129    -330.471986       0.002143
 
   | dipole moment | =     0.0095 a.u. =     0.0242 debye 
 
 ------------------------------------------------------------------------------
                     quadrupole moment
 ------------------------------------------------------------------------------
  xx     147.715900    -172.966806     -25.250906
  yy     150.391962    -175.710768     -25.318806
  zz    2768.530068   -2792.843157     -24.313089
  xy       0.484144      -0.477163       0.006982
  xz      81.714396     -81.813510      -0.099114
  yz     -11.392618      11.474979       0.082361
 
     1/3  trace=     -24.960934
     anisotropy=       0.998877
 
 ==============================================================================
 


    ------------------------------------------------------------------------
         total  cpu-time : 12 minutes and 33 seconds
         total wall-time :  1 minutes and 41 seconds
    ------------------------------------------------------------------------

   ****  ridft : all done  ****


    2018-04-28 21:06:28.865 

