
   OpenMP run-time library returned nthreads = 28
 operating system is UNIX !

 dscf (c-19-411) : TURBOMOLE V7.3 ( 22142 ) 4 Jul 2018 at 18:12:42
 Copyright (C) 2018 TURBOMOLE GmbH, Karlsruhe


    2019-04-02 17:31:42.387 



                             d s c f - program

                   idea & directorship : reinhart ahlrichs
                   program development : marco haeser
                                         michael baer
                           dft version : oliver treutler


                          quantum chemistry group
                          universitaet  karlsruhe
                                  germany




                          References             
                                                 
          TURBOMOLE:                             
              R. Ahlrichs, M. Baer, M. Haeser, H. Horn, and
              C. Koelmel
              Electronic structure calculations on workstation
              computers: the program system TURBOMOLE
              Chem. Phys. Lett. 162: 165 (1989)
          Density Functional:                              
              O. Treutler and R. Ahlrichs                      
              Efficient Molecular Numerical Integration Schemes
              J. Chem. Phys. 102: 346 (1995)                   
          Parallel Version:                                
              Performance of parallel TURBOMOLE for Density    
              Functional Calculations                          
              M. v. Arnim and R. Ahlrichs                      
              J. Comp. Chem. 19: 1746 (1998)                   
                                         




              +--------------------------------------------------+
              | Atomic coordinate, charge and isotop information |
              +--------------------------------------------------+

                    atomic coordinates            atom    charge  isotop
         -4.78725956   -0.55724068    1.34765584    c      6.000     0
         -4.84455260   -1.84641703   -0.25780143    h      1.000     0
         -4.85088607   -1.69296010    3.06462890    h      1.000     0
         -6.49012477    0.59707245    1.29277010    h      1.000     0
         -2.40351407    1.05381611    1.27434566    c      6.000     0
         -2.40189162    2.37456507    2.86164895    h      1.000     0
         -2.39358863    2.20700324   -0.43808865    h      1.000     0
         -0.00025519   -0.52613418    1.35985287    c      6.000     0
         -0.00030118   -1.67662080    3.07767806    h      1.000     0
         -0.00069055   -1.85328122   -0.22564160    h      1.000     0
          2.40353277    1.05329968    1.27379084    c      6.000     0
          2.40178854    2.37469281    2.86048867    h      1.000     0
          2.39359608    2.20565528   -0.43914765    h      1.000     0
          4.78743929   -0.55735915    1.34790414    c      6.000     0
          4.84510509   -1.84772527   -0.25658392    h      1.000     0
          6.48990451    0.59763405    1.29181575    h      1.000     0
          4.85198184   -1.69169959    3.06575684    h      1.000     0
          4.78772944    0.55750952    8.52852274    c      6.000     0
          4.85308465    1.69097991    6.81014649    h      1.000     0
          4.84537235    1.84858284   10.13241801    h      1.000     0
          6.48976928   -0.59805292    8.58560936    h      1.000     0
          2.40322350   -1.05232412    8.60279701    c      6.000     0
          2.39293637   -2.20454251   10.31582801    h      1.000     0
          2.40108714   -2.37391117    7.01621874    h      1.000     0
         -0.00008294    0.52767420    8.51659443    c      6.000     0
         -0.00037571    1.85484772   10.10204532    h      1.000     0
          0.00006237    1.67809491    6.79870179    h      1.000     0
         -2.40336263   -1.05240515    8.60214524    c      6.000     0
         -2.39319167   -2.20534492   10.31470974    h      1.000     0
         -2.40127195   -2.37336698    7.01503295    h      1.000     0
         -4.78766643    0.55772903    8.52848805    c      6.000     0
         -4.85228241    1.69257319    6.81095989    h      1.000     0
         -6.48993547   -0.59745745    8.58425988    h      1.000     0
         -4.84537779    1.84763008   10.13335949    h      1.000     0
 
       center of nuclear mass  :   -0.00001644    0.00043554    4.93820816
       center of nuclear charge:   -0.00001282    0.00042075    4.93820708

              +--------------------------------------------------+
              |               basis set information              |
              +--------------------------------------------------+

              we will work with the 1s 3p 5d 7f 9g ... basis set
              ...i.e. with spherical basis functions...

   type   atoms  prim   cont   basis
   ---------------------------------------------------------------------------
    c       10     77     55   cc-pVQZ   [5s4p3d2f1g|21s6p3d2f1g]
    h       24     32     30   cc-pVQZ   [4s3p2d1f|6s3p2d1f]
   ---------------------------------------------------------------------------
   total:   34   1538   1270
   ---------------------------------------------------------------------------

   total number of primitive shells          :   45
   total number of contracted shells         :  390
   total number of cartesian basis functions : 1540
   total number of SCF-basis functions       : 1270


 integral neglect threshold       :  0.22E-13
 integral storage threshold THIZE :  0.10E-04
 integral storage threshold THIME :         5


 DENSITY CONVERGENCE CHECK SWITCHED ON !
 SCF CONVERGENCE IF RMS(delta[D]) <     0.1000000000E-06


 symmetry group of the molecule :   c1 

 the group has the following generators :
   c1(z)

    1 symmetry operations found

 there are 1 real representations :   a   

 maximum number of shells which are related by symmetry :  1


    mo occupation :
   irrep   mo's   occupied
    a     1270       42
 
 number of basis functions   :                   1270
 number of occupied orbitals :                     42
 

 automatic virtual orbital shift switched on 
      shift if e(lumo)-e(homo) < 0.10000000    


          ------------------------
          nuclear repulsion energy  :   577.943300740    
          ------------------------


         -----------------
         -S,T+V- integrals
         -----------------

 1e-integrals will be neglected if expon. factor < 0.217010E-14
 
   Difference densities algorithm switched on.
   The maximal number of linear combinations of
   difference densities is                    20 .

 DIIS switched on: error vector is FDS-SDF
 Max. Iterations for DIIS is     :   5
 DIIS matrix (see manual) 
    Scaling factor of diagonals  :  1.200
    threshold for scaling factor :  0.000

 scf convergence criterion : increment of total energy < .1000000D-08
                  and increment of one-electron energy < .1000000D-05

  MOs are in ASCII format !


 reading orbital data $scfmo  from file mos
 orbital characterization : scfconv=9

 DSCF restart information will be dumped onto file mos

 
                                              current damping :  0.700
 ITERATION  ENERGY          1e-ENERGY        2e-ENERGY     RMS[dD(SAO)]   TOL
   1  -392.72886775884    -1676.7526718     706.08050330    0.000D+00 0.216D-13
          max. resid. norm for Fia-block=  1.023D-01 for orbital     10a         
          max. resid. fock norm         =  2.537D-01 for orbital   1267a         
          Delta Eig. =    22.4619185740 eV 
 
                                              current damping :  0.650
 ITERATION  ENERGY          1e-ENERGY        2e-ENERGY     RMS[dD(SAO)]   TOL
   2  -392.80594481307    -1675.4606691     704.71142350    0.532D-03 0.141D-13
          Norm of current diis error: 0.86792    
          max. resid. norm for Fia-block=  4.878D-02 for orbital     10a         
          max. resid. fock norm         =  9.136D-02 for orbital   1270a         
          Delta Eig. =     9.7159076381 eV 
 
                                              current damping :  0.600
 ITERATION  ENERGY          1e-ENERGY        2e-ENERGY     RMS[dD(SAO)]   TOL
   3  -392.82232307731    -1675.7863202     705.02069638    0.258D-03 0.105D-13
          Norm of current diis error: 0.38858    
          max. resid. norm for Fia-block=  2.001D-02 for orbital     10a         
          max. resid. fock norm         =  3.797D-02 for orbital   1267a         
          Delta Eig. =     3.8465244536 eV 
 
                                              current damping :  0.650
 ITERATION  ENERGY          1e-ENERGY        2e-ENERGY     RMS[dD(SAO)]   TOL
   4  -392.82577440451    -1675.6531518     704.88407663    0.110D-03 0.918D-14
          Norm of current diis error: 0.15663    
          max. resid. norm for Fia-block=  7.580D-03 for orbital      5a         
          max. resid. fock norm         =  1.394D-02 for orbital   1267a         
          Delta Eig. =     1.3782900423 eV 
 
                                              current damping :  0.500
 ITERATION  ENERGY          1e-ENERGY        2e-ENERGY     RMS[dD(SAO)]   TOL
   5  -392.82634208830    -1675.6345587     704.86491589    0.422D-04 0.845D-14
          Norm of current diis error: 0.66716E-01
          max. resid. norm for Fia-block=  2.972D-03 for orbital     10a         
          max. resid. fock norm         =  5.454D-03 for orbital   1267a         
 mo-orthogonalization: Cholesky decomposition
          Delta Eig. =     0.5982855081 eV 
 
                                              current damping :  0.350
 ITERATION  ENERGY          1e-ENERGY        2e-ENERGY     RMS[dD(SAO)]   TOL
   6  -392.82645417382    -1675.6230071     704.85325221    0.190D-04 0.781D-14
          Norm of current diis error: 0.24847E-01
          max. resid. norm for Fia-block=  1.068D-03 for orbital     28a         
          max. resid. fock norm         =  1.813D-03 for orbital   1267a         
          Delta Eig. =     0.2217418633 eV 
 
                                              current damping :  0.200
 ITERATION  ENERGY          1e-ENERGY        2e-ENERGY     RMS[dD(SAO)]   TOL
   7  -392.82647139306    -1675.6177712     704.84799902    0.749D-05 0.722D-14
          Norm of current diis error: 0.77121E-02
          max. resid. norm for Fia-block=  3.311D-04 for orbital     28a         
          max. resid. fock norm         =  4.616D-04 for orbital   1270a         
          Delta Eig. =     0.0646761922 eV 
 
                                              current damping :  0.050
 ITERATION  ENERGY          1e-ENERGY        2e-ENERGY     RMS[dD(SAO)]   TOL
   8  -392.82647328161    -1675.6162012     704.84642714    0.247D-05 0.671D-14
          Norm of current diis error: 0.18836E-02
          max. resid. norm for Fia-block=  7.920D-05 for orbital     28a         
          max. resid. fock norm         =  7.981D-05 for orbital     28a         
          Delta Eig. =     0.0123184568 eV 
 
                                              current damping :  0.050
 ITERATION  ENERGY          1e-ENERGY        2e-ENERGY     RMS[dD(SAO)]   TOL
   9  -392.82647341714    -1675.6153790     704.84560485    0.669D-06 0.631D-14
          Norm of current diis error: 0.34178E-03
          max. resid. norm for Fia-block=  1.703D-05 for orbital     38a         
          max. resid. fock norm         =  1.732D-05 for orbital     38a         
          Delta Eig. =     0.0007781736 eV 
 
                                              current damping :  0.050
 ITERATION  ENERGY          1e-ENERGY        2e-ENERGY     RMS[dD(SAO)]   TOL
  10  -392.82647342254    -1675.6153472     704.84557303    0.151D-06 0.607D-14
          Norm of current diis error: 0.75913E-04
          max. resid. norm for Fia-block=  4.530D-06 for orbital     38a         
          max. resid. fock norm         =  4.548D-06 for orbital     38a         
 mo-orthogonalization: Cholesky decomposition
          Delta Eig. =     0.0000701576 eV 

 DENSITY CONVERGED !

 
                                              current damping :  0.050
 ITERATION  ENERGY          1e-ENERGY        2e-ENERGY     RMS[dD(SAO)]   TOL
  11  -392.82647342284    -1675.6152556     704.84548140    0.436D-07 0.594D-14
          Norm of current diis error: 0.17387E-04
          max. resid. norm for Fia-block=  9.517D-07 for orbital     38a         
          max. resid. fock norm         =  1.004D-06 for orbital     38a         
          Delta Eig. =     0.0000511769 eV 

 DENSITY CONVERGED !

 
                                              current damping :  0.100
 ITERATION  ENERGY          1e-ENERGY        2e-ENERGY     RMS[dD(SAO)]   TOL
  12  -392.82647342285    -1675.6152827     704.84550854    0.985D-08 0.586D-14
          Norm of current diis error: 0.47204E-05
          max. resid. norm for Fia-block=  2.118D-07 for orbital     38a         
          max. resid. fock norm         =  2.519D-07 for orbital     38a         
          Delta Eig. =     0.0000183776 eV 

 ENERGY & DENSITY CONVERGED !

 
                                              current damping :  0.150
 ITERATION  ENERGY          1e-ENERGY        2e-ENERGY     RMS[dD(SAO)]   TOL
  13  -392.82647342286    -1675.6152705     704.84549634    0.193D-08 0.617D-14
          max. resid. norm for Fia-block=  6.036D-08 for orbital     42a         
          max. resid. fock norm         =  6.996D-08 for orbital     42a         

 convergence criteria satisfied after    13 iterations


                  ------------------------------------------ 
                 |  total energy      =   -392.82647342286  |
                  ------------------------------------------ 
                 :  kinetic energy    =    392.66574810623  :
                 :  potential energy  =   -785.49222152909  :
                 :  virial theorem    =      1.99959084907  :
                 :  wavefunction norm =      1.00000000000  :
                  .......................................... 


 orbitals $scfmo  will be written to file mos

    irrep                 38a         39a         40a         41a         42a   
 eigenvalues H         -0.46730    -0.45719    -0.45012    -0.44803    -0.44668
            eV         -12.7160    -12.4408    -12.2484    -12.1916    -12.1548
 occupation              2.0000      2.0000      2.0000      2.0000      2.0000 

    irrep                 43a         44a         45a         46a         47a   
 eigenvalues H          0.11454     0.12025     0.12337     0.13171     0.14476
            eV           3.1169      3.2721      3.3571      3.5839      3.9391
 
 
 
 
 ==============================================================================
                           electrostatic moments
 ==============================================================================

 reference point for electrostatic moments:    0.00000   0.00000   0.00000

 
              nuc           elec       ->  total
 ------------------------------------------------------------------------------
                          charge      
 ------------------------------------------------------------------------------
          84.000000     -84.000000       0.000000
 
 ------------------------------------------------------------------------------
                       dipole moment  
 ------------------------------------------------------------------------------
   x      -0.001077       0.001074      -0.000003
   y       0.035343      -0.035349      -0.000005
   z     414.809395    -414.809394       0.000001
 
   | dipole moment | =     0.0000 a.u. =     0.0000 debye 
 
 ------------------------------------------------------------------------------
                     quadrupole moment
 ------------------------------------------------------------------------------
  xx    1091.250079   -1145.416235     -54.166157
  yy     118.441638    -171.586017     -53.144379
  zz    3202.005522   -3253.528570     -51.523047
  xy      -0.020296       0.020237      -0.000059
  xz       0.005016      -0.005101      -0.000086
  yz     -21.185884      21.031669      -0.154216
 
     1/3  trace=     -52.944528
     anisotropy=       2.323948
 
 ==============================================================================
 


    ------------------------------------------------------------------------
         total  cpu-time :  6 hours 25 minutes and 23 seconds
         total wall-time : 14 minutes and 50 seconds
    ------------------------------------------------------------------------

   ****  dscf : all done  ****


    2019-04-02 17:46:31.905 

