Using Slurm to start processes with PMI2
STARTING ridft ON 8 PROCESSORS!
RUNNING PROGRAM /beegfs/modfac/apps/TURBOMOLE/7.0_intel_GA/bin/em64t-unknown-linux-gnu_mpi/ridft_mpi.
PLEASE WAIT UNTIL ridft HAS FINISHED.
Look for the output in slave1.output.
  this is node-proc. number 1 running on node c-9-414.local
  the total number of node-proc. spawned is            8
  parallel platform: MPP, or cluster with fast interconnect

 ridft (c-9-414.local) : TURBOMOLE V7.0.2( ) 15 Jan 2016 at 17:47:42
 Copyright (C) 2016 TURBOMOLE GmbH, Karlsruhe


    2017-11-07 21:21:09.803 



                                  r i d f t

                        DFT program with RI approximation 
                                for coulomb part 




                                                 
                                 References:     
                                                 
          TURBOMOLE:                             
              R. Ahlrichs, M. Baer, M. Haeser, H. Horn, and
              C. Koelmel
              Electronic structure calculations on workstation
              computers: the program system TURBOMOLE
              Chem. Phys. Lett. 162: 165 (1989)
          Density Functional:                              
              O. Treutler and R. Ahlrichs                      
              Efficient Molecular Numerical Integration Schemes
              J. Chem. Phys. 102: 346 (1995)                   
          Parallel Version:                                
              Performance of parallel TURBOMOLE for Density    
              Functional Calculations                          
              M. v. Arnim and R. Ahlrichs                      
              J. Comp. Chem. 19: 1746 (1998)                   
          RI-J Method:                                     
              Auxiliary Basis Sets to approximate Coulomb      
              Potentials                                       
              Chem. Phys. Lett. 240: 283 (1995)                
              K. Eichkorn, O. Treutler, H. Oehm, M. Haeser     
              and R. Ahlrichs                                  
              Chem. Phys. Lett. 242: 652 (1995)                
                                                           
              Auxiliary Basis Sets for Main Row Atoms and their
              Use to approximate Coulomb Potentials            
              K. Eichkorn, F. Weigend, O. Treutler and         
              R. Ahlrichs                                      
              Theo. Chem. Acc. 97: 119 (1997)                   
                                                           
              Accurate Coulomb-fitting basis sets for H to Rn 
              F. Weigend                                        
              Phys. Chem. Chem. Phys. 8: 1057 (2006)            
                                                           
          Multipole accelerated RI-J (MARI-J):             
              Fast evaluation of the Coulomb potential for     
              electron densities using multipole accelerated   
              resolution of identity approximation             
              M. Sierka, A. Hogekamp and R. Ahlrichs           
              J. Chem. Phys. 118: 9136 (2003)                  
          RI-JK Method:                                     
              A fully direct RI-HF algorithm: Implementation,
              optimised auxiliary basis sets, demonstration of
              accuracy and efficiency                         
              F. Weigend                                      
              Phys. Chem. Chem. Phys. 4: 4285 (2002)           
          Two-component HF and DFT with spin-orbit coupling:  
              Self-consistent treatment of spin-orbit         
              interactions with efficient Hartree-Fock and    
              density functional methods                      
              M. K. Armbruster, F. Weigend, C. van Wüllen and 
              W. Klopper                                      
              Phys. Chem. Chem. Phys. 10: 1748 (2008)         
          Relativistic all-electron 2c calculations           
              An efficient implementation of two-component    
              relativistic exact-decoupling methods for large 
              molecules                                       
              D. Peng, N. Middendorf, F. Weigend, M. Reiher   
              J. Chem. Phys. 138, 184105 (2013)               
                                         


 


              +--------------------------------------------------+
              |      general information about current run       |
              +--------------------------------------------------+

 

 SCF run will be profiled !


 DENSITY CONVERGENCE CHECK SWITCHED ON !
 SCF CONVERGENCE IF RMS(delta[D]) <     0.1000000000E-06

 TPSS meta-GGA functional
 exchange:    LDA + TPSS
 correlation: LDA (PW) + TPSS
 A DFT calculation using the RI-J approximation will be carried out.
 Allocatable memory for RI due to $ricore (MB):       12000


              +--------------------------------------------------+
              | Atomic coordinate, charge and isotop information |
              +--------------------------------------------------+

                    atomic coordinates            atom    charge  isotop
         12.63968419   -1.83655794    3.92503315    c      6.000     0
         -2.25399146   12.40612891   -3.12066365    c      6.000     0
         -3.48368066   13.22846418   -0.60607139    c      6.000     0
         13.36855989   -3.13342015    1.41975574    c      6.000     0
         13.97392769   -7.34067937   -0.86157106    c      6.000     0
         -7.55426512   13.28346425    1.98199251    c      6.000     0
         13.30824364   -6.01964491    1.62749182    c      6.000     0
         -6.30493728   12.58972413   -0.53497677    c      6.000     0
        -10.34524069   12.51900230    2.10836032    c      6.000     0
         14.04132936  -10.22875399   -0.64875191    c      6.000     0
         14.72168977  -11.52775376   -3.14435584    c      6.000     0
        -11.58322160   13.19003954    4.63749760    c      6.000     0
          7.26214364    7.44334532    0.37389783    c      6.000     0
         10.16900072    4.55782325    1.94636797    c      6.000     0
          4.24800977   10.20874905   -1.22059478    c      6.000     0
          9.16168310    9.35774791    0.24027616    c      6.000     0
         11.61194538    8.75852692    1.10109994    c      6.000     0
          8.47896153   11.73926330   -0.74813770    c      6.000     0
         10.60486617    2.07438114    2.65105425    n      7.000     0
          1.73236142   10.57117648   -1.81951641    n      7.000     0
         12.13905716    6.38497262    1.98520579    c      6.000     0
          6.05033859   12.18380976   -1.51511733    c      6.000     0
          0.60239562   12.62401322   -3.02594406    c      6.000     0
         12.77489485    1.02124647    3.69303787    c      6.000     0
          7.80093094    5.06240661    1.19259591    n      7.000     0
          4.82721126    7.90900287   -0.31723420    n      7.000     0
         14.64992682    2.23066688    4.31888007    o      8.000     0
          1.76594450   14.43289904   -3.88621635    o      8.000     0
          9.19505083    0.80703403    2.16408589    h      1.000     0
          0.49632027    9.21113866   -1.13922482    h      1.000     0
          5.43530276   13.96437471   -2.30404862    h      1.000     0
         13.97993125    5.83472281    2.67676001    h      1.000     0
         13.07579932   10.19974803    1.04611361    h      1.000     0
          9.90377742   13.21344517   -0.88841710    h      1.000     0
         -2.91254854   13.60269064   -4.67039156    h      1.000     0
         13.95961291   -2.38172896    5.41848586    h      1.000     0
         15.26671000   -2.51128256    0.86308818    h      1.000     0
         -3.18482075   15.26241626   -0.33449921    h      1.000     0
         12.05748428   -2.52518601   -0.06348195    h      1.000     0
         -2.54586542   12.25097943    0.95956155    h      1.000     0
         10.73009588   -2.43068121    4.45869432    h      1.000     0
         -2.79791835   10.44590615   -3.50501026    h      1.000     0
         -7.28459629   13.55917050   -2.09007228    h      1.000     0
         14.62959816   -6.63315295    3.10817161    h      1.000     0
         15.82367965   -6.66555720   -1.52311534    h      1.000     0
         -7.38058693   15.32788463    2.31296876    h      1.000     0
         -6.52495050   12.34861439    3.52492410    h      1.000     0
         12.60013600   -6.78666795   -2.31839087    h      1.000     0
         -6.52253530   10.55226821   -0.85722649    h      1.000     0
         11.41668948   -6.61728103    2.24164106    h      1.000     0
        -11.37841425   13.44195115    0.56151620    h      1.000     0
         15.41363989  -10.76848144    0.81223270    h      1.000     0
         12.19562020  -10.91181945    0.01013425    h      1.000     0
        -10.49590847   10.47589912    1.77858520    h      1.000     0
         16.59198942  -10.92861203   -3.80327060    h      1.000     0
        -11.49826031   15.23065722    4.98852070    h      1.000     0
        -10.61625845   12.24282217    6.20606934    h      1.000     0
         13.35336099  -11.05391683   -4.62501508    h      1.000     0
        -13.57341553   12.62074745    4.68274997    h      1.000     0
         14.75042165  -13.58771607   -2.94257793    h      1.000     0
 
       center of nuclear mass  :    5.78698282    5.75119844    0.42438392
       center of nuclear charge:    5.66539841    5.61478245    0.43193347

              +--------------------------------------------------+
              |               basis set information              |
              +--------------------------------------------------+

              we will work with the 1s 3p 5d 7f 9g ... basis set
              ...i.e. with spherical basis functions...

   type   atoms  prim   cont   basis
   ---------------------------------------------------------------------------
    c       22     77     55   cc-pVQZ   [5s4p3d2f1g|21s6p3d2f1g]
    n        4     77     55   cc-pVQZ   [5s4p3d2f1g|21s6p3d2f1g]
    o        2     77     55   cc-pVQZ   [5s4p3d2f1g|21s6p3d2f1g]
    h       32     32     30   cc-pVQZ   [4s3p2d1f|6s3p2d1f]
   ---------------------------------------------------------------------------
   total:   60   3180   2500
   ---------------------------------------------------------------------------

   total number of primitive shells          :  111
   total number of contracted shells         :  740
   total number of cartesian basis functions : 3080
   total number of SCF-basis functions       : 2500


 integral neglect threshold       :  0.11E-13
 integral storage threshold THIZE :  0.10E-04
 integral storage threshold THIME :         5

 RI-J AUXILIARY BASIS SET information:

              we will work with the 1s 3p 5d 7f 9g ... basis set
              ...i.e. with spherical basis functions...

   type   atoms  prim   cont   basis
   ---------------------------------------------------------------------------
    c       22     70     49   cc-pVQZ   [6s4p3d1f1g|12s5p4d2f1g]
    n        4     70     49   cc-pVQZ   [6s4p3d1f1g|12s5p4d2f1g]
    o        2     70     49   cc-pVQZ   [6s4p3d1f1g|12s5p4d2f1g]
    h       32     16     11   cc-pVQZ   [3s1p1d|5s2p1d]
   ---------------------------------------------------------------------------
   total:   60   2472   1724
   ---------------------------------------------------------------------------

   total number of primitive shells          :   80
   total number of contracted shells         :  580
   total number of cartesian basis functions : 2092
   total number of SCF-basis functions       : 1724


 symmetry group of the molecule :   c1 

 the group has the following generators :
   c1(z)

    1 symmetry operations found

 there are 1 real representations :   a   

 maximum number of shells which are related by symmetry :  1


    mo occupation :
   irrep   mo's   occupied
    a     2500      104
 
 number of basis functions   :         2500
 number of occupied orbitals :          104
 
  
           ------------------
           density functional
           ------------------
 TPSS meta-GGA functional
 exchange:    LDA + TPSS
 correlation: LDA (PW) + TPSS
 grinp -> nfun, dfgga, dfhybrid 
           5 F F
 iterations will be done with small grid
  
 spherical integration : Lebedev's spherical grid
 spherical gridsize    :           5
    i.e. gridpoints    :         590
 value for diffuse not defined
 radial integration    : Chebyshev 2nd kind (scaling 3)
 radial gridsize       :           8
 integration cells     :          60
 partition function    : becke
 partition sharpness   :           3
  

 <rddim> : input of entry tasksize
           from data group '$pardft' failed !

               Default values taken

 <rddim> : input of entry memdiv
           from data group '$pardft' failed !

               Default values taken
  RIDFT: memory allocation for DFT gridpoints
  MEMORY is divided by 1 as DEFAULT
 Each node can hold at most  the            1 -th part
 of the gridpoints    

 biggest AO integral is expected to be     4.785886462
  
           ------------------------
               RI-J - INFORMATION
           ------------------------
 
 
 **************************************************
 *      MEMORY ALLOCATION FOR PARALLEL RI-DFT     *
 **************************************************
 
 
MEMORY FOR (MU NU/ ALPHA), SEQUENTIAL RUN              11975 MByte
 
            DIFFERENCE IN MEMORY NEED:       DIAG./SLAVE  
 
      TOTAL DIFFERENCE :                    279 MByte
 
      difference in xcore:                   26 MByte
      difference in fatmat:                  86 MByte
      getcor calls skipped by slaves:       168 MByte
 
 
           Integral memory available for diagonal.     11975 MByte
 
           Integral memory available for slave             0 MByte
 
         MEMORY FOR (MU NU/ ALPHA) ON DIAGONALIZER     11975 MByte
 
         MEMORY FOR (MU NU/ ALPHA) ON ONE SLAVE            0 MByte
 
         TOTAL MEMORY FOR (MU NU/ ALPHA),ALL NODES     11975 MByte
 
 Contributions to RI integral batches: 
  neglected integral batches:      181222
  direct contribution:              37742
  memory contribution:       55206
 Memory core needed for (P|Q) and Cholesky     23 MByte
 Memory core minimum needed except of (P|Q)     8 MByte
 Total minimum memory core needed (sum)        31 MByte
     number of direct tasks:         160
  
 ****************************************
 Memory allocated for RI-J 12005 MByte
 ****************************************
                                            

          ------------------------
          nuclear repulsion energy  :   2309.76223614    
          ------------------------

 
          -----------------
          -S integrals
          -----------------

 1e-integrals will be neglected if expon. factor < 0.108505E-14
 
          -----------------
          -T+V integrals
          -----------------

 1e-integrals will be neglected if expon. factor < 0.108505E-14
 Difference densities >>NOT<< switched on in parallel ridft!

 automatic virtual orbital shift switched on 
      shift if e(lumo)-e(homo) < 0.10000000    


 DIIS switched on: error vector is FDS-SDF
 Max. Iterations for DIIS is     :   4
 DIIS matrix (see manual) 
    Scaling factor of diagonals  :  1.200
    threshold for scaling factor :  0.000

 scf convergence criterion : increment of total energy < .1000000D-08
                  and increment of one-electron energy < .1000000D-05


 <geterg> : there is no data group $energy 

  MOs are in ASCII format !


 reading orbital data $scfmo  from file mos . 

 orbital characterization : expanded
 
 mo provided and orthogonalized by Cholesky decomposition

 DSCF restart information will be dumped onto file mos


 Starting SCF iterations


 ITERATION  ENERGY          1e-ENERGY        2e-ENERGY     RMS[dD(SAO)]   TOL
   1  -1223.0750611808    -6213.1015641     2680.2642668    0.000D+00 0.108D-13
                            Exc = -173.298452089     Coul =  2853.56271886    
                              N = 208.00002465    
                            current damping = 0.700
 
          max. resid. norm for Fia-block=  3.767D-01 for orbital     69a         
          max. resid. fock norm         =  8.214D+00 for orbital   2290a         

 ITERATION  ENERGY          1e-ENERGY        2e-ENERGY     RMS[dD(SAO)]   TOL
   2  -1226.9714575784    -6239.7983309     2703.0646372    0.322D-02 0.108D-13
                            Exc = -175.131814522     Coul =  2878.19645172    
                              N = 208.00001020    
                            current damping = 0.650
 
          Norm of current diis error:  5.9655    
          max. resid. norm for Fia-block=  1.651D-01 for orbital      1a         
          max. resid. fock norm         =  3.174D-01 for orbital   2470a         

 ITERATION  ENERGY          1e-ENERGY        2e-ENERGY     RMS[dD(SAO)]   TOL
   3  -1227.6117252798    -6248.0733871     2710.6994257    0.136D-02 0.108D-13
                            Exc = -176.205507078     Coul =  2886.90493277    
                              N = 208.00000085    
                            current damping = 0.550
 
          Norm of current diis error:  2.9219    
          max. resid. norm for Fia-block=  6.299D-02 for orbital      1a         
          max. resid. fock norm         =  6.682D-02 for orbital      1a         

 ITERATION  ENERGY          1e-ENERGY        2e-ENERGY     RMS[dD(SAO)]   TOL
   4  -1227.8200075001    -6250.6948450     2713.1126014    0.770D-03 0.108D-13
                            Exc = -176.376362973     Coul =  2889.48896437    
                              N = 207.99999140    
                            current damping = 0.450
 
          Norm of current diis error:  1.2307    
          max. resid. norm for Fia-block=  3.850D-02 for orbital    104a         
          max. resid. fock norm         =  8.820D-02 for orbital   2443a         

 ITERATION  ENERGY          1e-ENERGY        2e-ENERGY     RMS[dD(SAO)]   TOL
   5  -1227.8469634442    -6253.0584616     2715.4492620    0.354D-03 0.108D-13
                            Exc = -176.793276863     Coul =  2892.24253890    
                              N = 207.99999124    
                            current damping = 0.350
 
          Norm of current diis error: 0.81671    
          max. resid. norm for Fia-block=  1.826D-02 for orbital    100a         
          max. resid. fock norm         =  2.165D-02 for orbital   2397a         
          mo-orthogonalization: Cholesky decomposition

 ITERATION  ENERGY          1e-ENERGY        2e-ENERGY     RMS[dD(SAO)]   TOL
   6  -1227.8647459179    -6253.4010958     2715.7741137    0.248D-03 0.108D-13
                            Exc = -176.766811309     Coul =  2892.54092504    
                              N = 207.99998936    
                            current damping = 0.200
 
          Norm of current diis error: 0.26039    
          max. resid. norm for Fia-block=  6.658D-03 for orbital     99a         
          max. resid. fock norm         =  1.116D-02 for orbital   2402a         

 ITERATION  ENERGY          1e-ENERGY        2e-ENERGY     RMS[dD(SAO)]   TOL
   7  -1227.8649072178    -6252.9615551     2715.3344118    0.123D-03 0.108D-13
                            Exc = -176.751564076     Coul =  2892.08597586    
                              N = 207.99998971    
                            current damping = 0.250
 
          Norm of current diis error: 0.25370    
          max. resid. norm for Fia-block=  4.253D-03 for orbital    102a         
          max. resid. fock norm         =  6.965D-03 for orbital   2260a         

 ITERATION  ENERGY          1e-ENERGY        2e-ENERGY     RMS[dD(SAO)]   TOL
   8  -1227.8664190552    -6253.2905952     2715.6619401    0.397D-04 0.108D-13
                            Exc = -176.773065408     Coul =  2892.43500547    
                              N = 207.99998950    
                            current damping = 0.300
 
          Norm of current diis error: 0.71082E-01
          max. resid. norm for Fia-block=  1.505D-03 for orbital    101a         
          max. resid. fock norm         =  3.908D-03 for orbital   2476a         

 ITERATION  ENERGY          1e-ENERGY        2e-ENERGY     RMS[dD(SAO)]   TOL
   9  -1227.8664725945    -6253.3031905     2715.6744817    0.131D-04 0.108D-13
                            Exc = -176.784915197     Coul =  2892.45939693    
                              N = 207.99998948    
                            current damping = 0.150
 
          Norm of current diis error: 0.51807E-01
          max. resid. norm for Fia-block=  7.920D-04 for orbital    101a         
          max. resid. fock norm         =  1.386D-03 for orbital   2476a         

 ITERATION  ENERGY          1e-ENERGY        2e-ENERGY     RMS[dD(SAO)]   TOL
  10  -1227.8665302895    -6253.3095267     2715.6807603    0.826D-05 0.108D-13
                            Exc = -176.777553956     Coul =  2892.45831421    
                              N = 207.99998949    
                            current damping = 0.050
 
          Norm of current diis error: 0.19588E-01
          max. resid. norm for Fia-block=  3.795D-04 for orbital    102a         
          max. resid. fock norm         =  6.476D-04 for orbital   2397a         
          mo-orthogonalization: Cholesky decomposition

 ITERATION  ENERGY          1e-ENERGY        2e-ENERGY     RMS[dD(SAO)]   TOL
  11  -1227.8665369660    -6253.2913199     2715.6625468    0.367D-05 0.108D-13
                            Exc = -176.779037262     Coul =  2892.44158410    
                              N = 207.99998951    
                            current damping = 0.100
 
          Norm of current diis error: 0.11261E-01
          max. resid. norm for Fia-block=  1.651D-04 for orbital     98a         
          max. resid. fock norm         =  2.980D-04 for orbital   2481a         

 ITERATION  ENERGY          1e-ENERGY        2e-ENERGY     RMS[dD(SAO)]   TOL
  12  -1227.8665398090    -6253.3018196     2715.6730436    0.187D-05 0.108D-13
                            Exc = -176.778743910     Coul =  2892.45178752    
                              N = 207.99998949    
                            current damping = 0.150
 
          Norm of current diis error: 0.44154E-02
          max. resid. norm for Fia-block=  7.751D-05 for orbital     98a         
          max. resid. fock norm         =  1.857D-04 for orbital   2476a         

 ITERATION  ENERGY          1e-ENERGY        2e-ENERGY     RMS[dD(SAO)]   TOL
  13  -1227.8665401166    -6253.2983720     2715.6695957    0.881D-06 0.108D-13
                            Exc = -176.778501221     Coul =  2892.44809694    
                              N = 207.99998949    
                            current damping = 0.200
 
          Norm of current diis error: 0.25158E-02
          max. resid. norm for Fia-block=  4.246D-05 for orbital     99a         
          max. resid. fock norm         =  7.221D-05 for orbital   2476a         

 ITERATION  ENERGY          1e-ENERGY        2e-ENERGY     RMS[dD(SAO)]   TOL
  14  -1227.8665402445    -6253.2993199     2715.6705435    0.542D-06 0.108D-13
                            Exc = -176.778692862     Coul =  2892.44923637    
                              N = 207.99998950    
                            current damping = 0.250
 
          Norm of current diis error: 0.10138E-02
          max. resid. norm for Fia-block=  1.822D-05 for orbital     99a         
          max. resid. fock norm         =  3.130D-05 for orbital   2474a         

 ITERATION  ENERGY          1e-ENERGY        2e-ENERGY     RMS[dD(SAO)]   TOL
  15  -1227.8665402672    -6253.2991699     2715.6703935    0.235D-06 0.108D-13
                            Exc = -176.778655677     Coul =  2892.44904913    
                              N = 207.99998950    
                            current damping = 0.300
 
          Norm of current diis error: 0.34435E-03
          max. resid. norm for Fia-block=  6.545D-06 for orbital    101a         
          max. resid. fock norm         =  1.188D-05 for orbital   2481a         
          mo-orthogonalization: Cholesky decomposition

 DENSITY CONVERGED !


 ITERATION  ENERGY          1e-ENERGY        2e-ENERGY     RMS[dD(SAO)]   TOL
  16  -1227.8665402688    -6253.2994052     2715.6706288    0.701D-07 0.108D-13
                            Exc = -176.778639625     Coul =  2892.44926846    
                              N = 207.99998950    
                            current damping = 0.350
 
          Norm of current diis error: 0.21381E-03
          max. resid. norm for Fia-block=  3.951D-06 for orbital    102a         
          max. resid. fock norm         =  6.742D-06 for orbital   2397a         

 DENSITY CONVERGED !


 ITERATION  ENERGY          1e-ENERGY        2e-ENERGY     RMS[dD(SAO)]   TOL
  17  -1227.8665402700    -6253.2991981     2715.6704216    0.328D-07 0.108D-13
                            Exc = -176.778649803     Coul =  2892.44907145    
                              N = 207.99998950    
                            current damping = 0.400
 
          Norm of current diis error: 0.59631E-04
          max. resid. norm for Fia-block=  1.592D-06 for orbital    104a         
          max. resid. fock norm         =  2.295D-06 for orbital   2474a         

 DENSITY CONVERGED !


 ITERATION  ENERGY          1e-ENERGY        2e-ENERGY     RMS[dD(SAO)]   TOL
  18  -1227.8665402701    -6253.2992649     2715.6704885    0.112D-07 0.108D-13
                            Exc = -176.778652524     Coul =  2892.44914106    
                              N = 207.99998950    
                            current damping = 0.450
 
          Norm of current diis error: 0.32871E-04
          max. resid. norm for Fia-block=  4.983D-07 for orbital    104a         
          max. resid. fock norm         =  7.023D-07 for orbital   2265a         

 ENERGY & DENSITY CONVERGED !


 ITERATION  ENERGY          1e-ENERGY        2e-ENERGY     RMS[dD(SAO)]   TOL
  19  -1227.8661336254    -6253.2992573     2715.6708876    0.464D-08 0.108D-13
                            Exc = -176.778243681     Coul =  2892.44913127    
                              N = 208.00000525    
                            current damping = 0.500
 
          Norm of current diis error: 0.86625E-05
          max. resid. norm for Fia-block=  1.685D-07 for orbital     98a         
          max. resid. fock norm         =  3.750D-07 for orbital   2481a         

 End of SCF iterations

   convergence criteria satisfied after   19 iterations


                  ------------------------------------------ 
                 |  total energy      =  -1227.86613362535  |
                  ------------------------------------------ 
                 :  kinetic energy    =   1222.12851117983  :
                 :  potential energy  =  -2449.99464480518  :
                 :  virial theorem    =      1.99532715962  :
                 :  wavefunction norm =      1.00000000000  :
                  .......................................... 


 <geterg> : there is no data group $energy 


 <skperg> : $end is missing 


 orbitals $scfmo  will be written to file mos

    irrep                100a        101a        102a        103a        104a   
 eigenvalues H         -0.22505    -0.22160    -0.22082    -0.21947    -0.20631
            eV          -6.1239     -6.0302     -6.0088     -5.9721     -5.6139
 occupation              2.0000      2.0000      2.0000      2.0000      2.0000 

    irrep                105a        106a        107a        108a        109a   
 eigenvalues H         -0.09087    -0.05883    -0.03162    -0.02619    -0.00228
            eV          -2.4727     -1.6009     -0.8605     -0.7126     -0.0621
 
 
 ! grave: sending quit signal to master process
 
 
 
 
 ==============================================================================
                           electrostatic moments
 ==============================================================================

 reference point for electrostatic moments:    0.00000   0.00000   0.00000

 
              nuc           elec       ->  total
 ------------------------------------------------------------------------------
                          charge      
 ------------------------------------------------------------------------------
         208.000000    -208.000000      -0.000000
 
 ------------------------------------------------------------------------------
                       dipole moment  
 ------------------------------------------------------------------------------
   x    1178.402869   -1179.281609      -0.878740
   y    1167.874750   -1168.699110      -0.824360
   z      89.842161     -89.794463       0.047698
 
   | dipole moment | =     1.2058 a.u. =     3.0649 debye 
 
 ------------------------------------------------------------------------------
                     quadrupole moment
 ------------------------------------------------------------------------------
  xx   20866.113723  -20994.014107    -127.900384
  yy   19789.253423  -19916.857046    -127.603624
  zz    1283.803264   -1417.417995    -133.614731
  xy   -3811.904782    3796.650664     -15.254117
  xz     704.942184    -709.027125      -4.084941
  yz     105.985011    -102.588069       3.396942
 
     1/3  trace=    -129.706246
     anisotropy=      28.586357
 
 ==============================================================================
 

    ridft profiling
  --------------------------------------------------------------------
             module   cpu total (s)       %  wall total (s)       %

               RIDFT          1297.1  100.00          1302.5  100.00
         Ridft_b_scf            41.0    3.16            41.1    3.16
        b_scf_prelim             0.0    0.00             0.0    0.00
        b_scf_molinp             0.0    0.00             0.0    0.00
         b_scf_init0             0.0    0.00             0.0    0.00
        b_scf_auxbas             0.0    0.00             0.0    0.00
      b_scf_symmetry             0.0    0.00             0.0    0.00
         b_scf_cosmo             0.0    0.00             0.0    0.00
        b_scf_params             3.5    0.27             3.6    0.28
          b_scf_ri-j            25.1    1.93            25.1    1.93
    b_scf_ri-j_auxpq            25.1    1.93            25.1    1.92
     ri-j_auxpq_chol             0.2    0.02             0.2    0.02
         b_scf_1elec             1.2    0.09             1.2    0.09
       b_scf_moinput            11.2    0.87            11.2    0.86
     moinput_orthmos            11.1    0.85            11.1    0.85
    b_scf_dft-dstmax             0.0    0.00             0.0    0.00
           Ridft_scf          1255.4   96.78          1260.7   96.79
          Scf_b_loop             0.0    0.00             0.0    0.00
                noga             0.0    0.00             0.0    0.00
            Scf_loop          1253.2   96.61          1258.2   96.60
     scf_loop_mkdmat             4.9    0.38             5.5    0.42
       scf_loop_ri-j           142.2   10.96           142.2   10.92
      parlp1.bc.dens             1.3    0.10             1.2    0.10
        parlp1.gs.gp             2.4    0.19             2.4    0.19
        parlp2.bc.gq             0.0    0.00             0.0    0.00
        scf_loop_dft           924.5   71.27           924.3   70.97
      pardft.bc.dens             0.0    0.00             0.0    0.00
        dft_grid_con             1.8    0.14             1.8    0.14
          dft_xcmrhf           919.5   70.88           919.3   70.58
          dft_getval            26.0    2.01            26.1    2.00
          funct2 dst             0.8    0.06             0.8    0.06
      funct2 f2loop1             6.3    0.49             6.4    0.49
      funct2 f2loop2             9.9    0.76             9.9    0.76
          funct2 s+c             8.5    0.65             8.4    0.64
        funct2 cmf_2             7.4    0.57             7.4    0.57
          dft_mkdens           401.9   30.98           401.8   30.85
        dft_mgga-fun             1.5    0.11             1.4    0.10
          dft_mkfock           489.4   37.73           489.4   37.57
     pardft.red.fock            68.0    5.24            68.0    5.22
     scf_loop_energy             0.1    0.00             0.1    0.01
     scf_loop_mkfock             0.1    0.01             0.1    0.01
       scf_loop_diis            59.5    4.59            59.5    4.57
       scf_loop_diag            70.4    5.42            70.3    5.40
         diag_tritrn            21.3    1.64            21.3    1.63
          diag_rdiag            48.9    3.77            48.9    3.75
     scf_loop_modump            37.5    2.89            42.1    3.23
      scf_loop_ortho            12.7    0.98            12.7    0.98
          Scf_a_loop             2.3    0.17             2.5    0.19
         Ridft_a_scf             0.7    0.05             0.7    0.05
         a_scf_fanal             0.6    0.05             0.6    0.05
 


    ------------------------------------------------------------------------
         total  cpu-time : 21 minutes and 43 seconds
         total wall-time : 21 minutes and 48 seconds
    ------------------------------------------------------------------------


   ****  ridft : all done  ****


    2017-11-07 21:42:57.933 

