           Doing BLAS/Lapack in the master proc. with  8 CPUs.
           SMPCPUS    set: Shared-memory Parallelization with   8 CPUs.

           SMP Parallelization Reference:
           C. van Wullen, J. Comput. Chem. 32 (2011) 1195--1201
 operating system is UNIX !

 ridft (c-18-314.gp.local) : TURBOMOLE V7.2 ( 21454 ) 4 Oct 2017 at 12:48:15
 Copyright (C) 2017 TURBOMOLE GmbH, Karlsruhe


    2018-04-28 21:09:21.892 



                                  r i d f t

                        DFT program with RI approximation 
                                for coulomb part 




                                                 
                                 References:     
                                                 
          TURBOMOLE:                             
              R. Ahlrichs, M. Baer, M. Haeser, H. Horn, and
              C. Koelmel
              Electronic structure calculations on workstation
              computers: the program system TURBOMOLE
              Chem. Phys. Lett. 162: 165 (1989)
          Density Functional:                              
              O. Treutler and R. Ahlrichs                      
              Efficient Molecular Numerical Integration Schemes
              J. Chem. Phys. 102: 346 (1995)                   
          Parallel Version:                                
              Performance of parallel TURBOMOLE for Density    
              Functional Calculations                          
              M. v. Arnim and R. Ahlrichs                      
              J. Comp. Chem. 19: 1746 (1998)                   
          RI-J Method:                                     
              Auxiliary Basis Sets to approximate Coulomb      
              Potentials                                       
              Chem. Phys. Lett. 240: 283 (1995)                
              K. Eichkorn, O. Treutler, H. Oehm, M. Haeser     
              and R. Ahlrichs                                  
              Chem. Phys. Lett. 242: 652 (1995)                
                                                           
              Auxiliary Basis Sets for Main Row Atoms and their
              Use to approximate Coulomb Potentials            
              K. Eichkorn, F. Weigend, O. Treutler and         
              R. Ahlrichs                                      
              Theo. Chem. Acc. 97: 119 (1997)                   
                                                           
              Accurate Coulomb-fitting basis sets for H to Rn 
              F. Weigend                                        
              Phys. Chem. Chem. Phys. 8: 1057 (2006)            
                                                           
          Multipole accelerated RI-J (MARI-J):             
              Fast evaluation of the Coulomb potential for     
              electron densities using multipole accelerated   
              resolution of identity approximation             
              M. Sierka, A. Hogekamp and R. Ahlrichs           
              J. Chem. Phys. 118: 9136 (2003)                  
          RI-JK Method:                                     
              A fully direct RI-HF algorithm: Implementation,
              optimised auxiliary basis sets, demonstration of
              accuracy and efficiency                         
              F. Weigend                                      
              Phys. Chem. Chem. Phys. 4: 4285 (2002)           
          Two-component HF and DFT with spin-orbit coupling:  
              Self-consistent treatment of spin-orbit         
              interactions with efficient Hartree-Fock and    
              density functional methods                      
              M. K. Armbruster, F. Weigend, C. van Wüllen and 
              W. Klopper                                      
              Phys. Chem. Chem. Phys. 10: 1748 (2008)         
          Relativistic all-electron 2c calculations           
              An efficient implementation of two-component    
              relativistic exact-decoupling methods for large 
              molecules                                       
              D. Peng, N. Middendorf, F. Weigend, M. Reiher   
              J. Chem. Phys. 138, 184105 (2013)               
                                         




              +--------------------------------------------------+
              |      general information about current run       |
              +--------------------------------------------------+

 

 DENSITY CONVERGENCE CHECK SWITCHED ON !
 SCF CONVERGENCE IF RMS(delta[D]) <     0.1000000000E-06

 TPSS meta-GGA functional
 exchange:    LDA + TPSS
 correlation: LDA (PW) + TPSS
 A DFT calculation using the RI-J approximation will be carried out.
 Allocatable memory for RI due to $ricore (MB):                  5000


              +--------------------------------------------------+
              | Atomic coordinate, charge and isotop information |
              +--------------------------------------------------+

                    atomic coordinates            atom    charge  isotop
          4.42545556   -2.37500800    0.05698091    n      7.000     0
          5.06500751   -0.83990019   -1.85487860    c      6.000     0
          4.03951509   -1.11303739   -3.60359593    h      1.000     0
          6.90055380    1.03496097   -1.66521245    c      6.000     0
          7.32546333    2.21479313   -3.27686669    h      1.000     0
          8.14936055    1.35534786    0.62563534    c      6.000     0
          9.58149695    2.79576767    0.84556947    h      1.000     0
          7.50660250   -0.22250265    2.62708766    c      6.000     0
          8.41856242   -0.05155379    4.44632825    h      1.000     0
          5.64752477   -2.04568965    2.25068562    c      6.000     0
          5.10690373   -3.29999085    3.77495886    h      1.000     0
 
       center of nuclear mass  :    6.27456156   -0.52257774    0.33910340
       center of nuclear charge:    6.31105774   -0.48537569    0.34488490

              +--------------------------------------------------+
              |               basis set information              |
              +--------------------------------------------------+

              we will work with the 1s 3p 5d 7f 9g ... basis set
              ...i.e. with spherical basis functions...

   type   atoms  prim   cont   basis
   ---------------------------------------------------------------------------
    n        1     77     55   cc-pVQZ   [5s4p3d2f1g|21s6p3d2f1g]
    c        5     77     55   cc-pVQZ   [5s4p3d2f1g|21s6p3d2f1g]
    h        5     32     30   cc-pVQZ   [4s3p2d1f|6s3p2d1f]
   ---------------------------------------------------------------------------
   total:   11    622    480
   ---------------------------------------------------------------------------

   total number of primitive shells          :   78
   total number of contracted shells         :  140
   total number of cartesian basis functions :  595
   total number of SCF-basis functions       :  480


 integral neglect threshold       :  0.56E-13
 integral storage threshold THIZE :  0.10E-04
 integral storage threshold THIME :         5

 RI-J AUXILIARY BASIS SET information:

              we will work with the 1s 3p 5d 7f 9g ... basis set
              ...i.e. with spherical basis functions...

   type   atoms  prim   cont   basis
   ---------------------------------------------------------------------------
    n        1     70     49   cc-pVQZ   [6s4p3d1f1g|12s5p4d2f1g]
    c        5     70     49   cc-pVQZ   [6s4p3d1f1g|12s5p4d2f1g]
    h        5     16     11   cc-pVQZ   [3s1p1d|5s2p1d]
   ---------------------------------------------------------------------------
   total:   11    500    349
   ---------------------------------------------------------------------------

   total number of primitive shells          :   56
   total number of contracted shells         :  115
   total number of cartesian basis functions :  426
   total number of SCF-basis functions       :  349


 symmetry group of the molecule :   c1 

 the group has the following generators :
   c1(z)

    1 symmetry operations found

 there are 1 real representations :   a   

 maximum number of shells which are related by symmetry :  1


    mo occupation :
   irrep   mo's   occupied
    a      480       21
 
 number of basis functions   :                    480
 number of occupied orbitals :                     21
 
  
           ------------------
           density functional
           ------------------
 TPSS meta-GGA functional
 exchange:    LDA + TPSS
 correlation: LDA (PW) + TPSS

 iterations will be done with small grid
  
 spherical integration : Lebedev's spherical grid
 spherical gridsize    :                     5
    i.e. gridpoints    :                   590
 value for diffuse not defined
 radial integration    : Chebyshev 2nd kind (scaling 3)
 radial gridsize       :                     8
 integration cells     :                    11
 partition function    : becke
 partition sharpness   :                     3
  

 biggest AO integral is expected to be     4.161848376
  
           ------------------------
               RI-J - INFORMATION
           ------------------------
 Contributions to RI integral batches: 
  neglected integral batches:                   883
  direct contribution:                            0
  memory contribution:                  8987
 Memory core needed for (P|Q) and Cholesky      1 MByte
 Memory core minimum needed except of (P|Q)     2 MByte
 Total minimum memory core needed (sum)         3 MByte
  
 ****************************************
 Memory allocated for RI-J   538 MByte
 ****************************************
                                            

          ------------------------
          nuclear repulsion energy  :   206.234916963    
          ------------------------


         -----------------
         -S,T+V- integrals
         -----------------

 1e-integrals will be neglected if expon. factor < 0.561674E-14
 Difference densities >>NOT<< switched on in parallel ridft!

 DIIS switched on: error vector is FDS-SDF
 Max. Iterations for DIIS is     :   4
 DIIS matrix (see manual) 
    Scaling factor of diagonals  :  1.200
    threshold for scaling factor :  0.000

 scf convergence criterion : increment of total energy < .1000000D-08
                  and increment of one-electron energy < .1000000D-05

  MOs are in ASCII format !


 automatic virtual orbital shift switched on 
      shift if e(lumo)-e(homo) < 0.10000000    


 reading orbital data $scfmo  from file mos
 orbital characterization : expanded
 mo provided and orthogonalized by Cholesky decomposition

 DSCF restart information will be dumped onto file mos


 Starting SCF iterations

          Overall gridpoints after grid construction =         54972

 ITERATION  ENERGY          1e-ENERGY        2e-ENERGY     RMS[dD(SAO)]   TOL
   1  -247.45329381353    -732.94203006     279.25381929    0.000D+00 0.560D-13
                            Exc = -35.1149009575     Coul =  314.368720243    
                              N = 41.999999479    
                            current damping = 0.700
 
          max. resid. norm for Fia-block=  2.910D-01 for orbital     15a         
          max. resid. fock norm         =  8.551D+00 for orbital    437a         

 ITERATION  ENERGY          1e-ENERGY        2e-ENERGY     RMS[dD(SAO)]   TOL
   2  -248.23954041964    -739.26848681     284.79402943    0.584D-02 0.560D-13
                            Exc = -35.6453685220     Coul =  320.439397948    
                              N = 42.000004739    
                            current damping = 0.650
 
          Norm of current diis error:  2.8099    
          max. resid. norm for Fia-block=  1.388D-01 for orbital      1a         
          max. resid. fock norm         =  2.222D-01 for orbital    427a         

 ITERATION  ENERGY          1e-ENERGY        2e-ENERGY     RMS[dD(SAO)]   TOL
   3  -248.37769870341    -740.89726454     286.28464887    0.261D-02 0.560D-13
                            Exc = -35.8532083868     Coul =  322.137857259    
                              N = 42.000006640    
                            current damping = 0.550
 
          Norm of current diis error:  1.3695    
          max. resid. norm for Fia-block=  5.500D-02 for orbital     21a         
          max. resid. fock norm         =  6.064D-02 for orbital      7a         

 ITERATION  ENERGY          1e-ENERGY        2e-ENERGY     RMS[dD(SAO)]   TOL
   4  -248.42274938242    -741.62484063     286.96717429    0.148D-02 0.560D-13
                            Exc = -35.9257426181     Coul =  322.892916907    
                              N = 42.000010069    
                            current damping = 0.450
 
          Norm of current diis error: 0.53066    
          max. resid. norm for Fia-block=  2.747D-02 for orbital      7a         
          max. resid. fock norm         =  4.629D-02 for orbital    382a         

 ITERATION  ENERGY          1e-ENERGY        2e-ENERGY     RMS[dD(SAO)]   TOL
   5  -248.42856089381    -742.29176916     287.62829130    0.613D-03 0.560D-13
                            Exc = -36.0011100039     Coul =  323.629401306    
                              N = 42.000010755    
                            current damping = 0.350
 
          Norm of current diis error: 0.31182    
          max. resid. norm for Fia-block=  1.367D-02 for orbital     21a         
          max. resid. fock norm         =  1.460D-02 for orbital     21a         
          mo-orthogonalization: Cholesky decomposition

 ITERATION  ENERGY          1e-ENERGY        2e-ENERGY     RMS[dD(SAO)]   TOL
   6  -248.43104050802    -742.15683124     287.49087377    0.558D-03 0.560D-13
                            Exc = -35.9912291530     Coul =  323.482102926    
                              N = 42.000011969    
                            current damping = 0.400
 
          Norm of current diis error: 0.13039    
          max. resid. norm for Fia-block=  3.185D-03 for orbital     19a         
          max. resid. fock norm         =  7.775D-03 for orbital    425a         

 ITERATION  ENERGY          1e-ENERGY        2e-ENERGY     RMS[dD(SAO)]   TOL
   7  -248.43142493200    -742.22225016     287.55590826    0.762D-04 0.560D-13
                            Exc = -35.9978380369     Coul =  323.553746298    
                              N = 42.000011845    
                            current damping = 0.450
 
          Norm of current diis error: 0.43285E-01
          max. resid. norm for Fia-block=  1.489D-03 for orbital     13a         
          max. resid. fock norm         =  2.529D-03 for orbital    475a         

 ITERATION  ENERGY          1e-ENERGY        2e-ENERGY     RMS[dD(SAO)]   TOL
   8  -248.43146342584    -742.25562053     287.58924014    0.255D-04 0.560D-13
                            Exc = -36.0013651321     Coul =  323.590605276    
                              N = 42.000011969    
                            current damping = 0.300
 
          Norm of current diis error: 0.14359E-01
          max. resid. norm for Fia-block=  3.642D-04 for orbital     21a         
          max. resid. fock norm         =  5.621D-04 for orbital    475a         

 ITERATION  ENERGY          1e-ENERGY        2e-ENERGY     RMS[dD(SAO)]   TOL
   9  -248.43146848899    -742.25321028     287.58682483    0.146D-04 0.560D-13
                            Exc = -36.0011792809     Coul =  323.588004109    
                              N = 42.000011975    
                            current damping = 0.350
 
          Norm of current diis error: 0.15668E-02
          max. resid. norm for Fia-block=  7.246D-05 for orbital     19a         
          max. resid. fock norm         =  1.587D-04 for orbital    470a         

 ITERATION  ENERGY          1e-ENERGY        2e-ENERGY     RMS[dD(SAO)]   TOL
  10  -248.43146851616    -742.25102721     287.58464173    0.318D-05 0.560D-13
                            Exc = -36.0010531224     Coul =  323.585694850    
                              N = 42.000011978    
                            current damping = 0.200
 
          Norm of current diis error: 0.13036E-02
          max. resid. norm for Fia-block=  4.244D-05 for orbital     20a         
          max. resid. fock norm         =  7.930D-05 for orbital    476a         
          mo-orthogonalization: Cholesky decomposition

 ITERATION  ENERGY          1e-ENERGY        2e-ENERGY     RMS[dD(SAO)]   TOL
  11  -248.43146854719    -742.25205475     287.58566923    0.875D-06 0.560D-13
                            Exc = -36.0011253622     Coul =  323.586794597    
                              N = 42.000011978    
                            current damping = 0.250
 
          Norm of current diis error: 0.68930E-03
          max. resid. norm for Fia-block=  2.426D-05 for orbital     19a         
          max. resid. fock norm         =  3.598D-05 for orbital    381a         

 ITERATION  ENERGY          1e-ENERGY        2e-ENERGY     RMS[dD(SAO)]   TOL
  12  -248.43146855472    -742.25203084     287.58564532    0.751D-06 0.560D-13
                            Exc = -36.0011139506     Coul =  323.586759270    
                              N = 42.000011981    
                            current damping = 0.300
 
          Norm of current diis error: 0.43966E-03
          max. resid. norm for Fia-block=  1.122D-05 for orbital     19a         
          max. resid. fock norm         =  1.823D-05 for orbital    381a         

 ITERATION  ENERGY          1e-ENERGY        2e-ENERGY     RMS[dD(SAO)]   TOL
  13  -248.43146855929    -742.25216653     287.58578100    0.265D-06 0.560D-13
                            Exc = -36.0011332678     Coul =  323.586914271    
                              N = 42.000011980    
                            current damping = 0.350
 
          Norm of current diis error: 0.76281E-04
          max. resid. norm for Fia-block=  3.222D-06 for orbital     21a         
          max. resid. fock norm         =  4.488D-06 for orbital    373a         

 DENSITY CONVERGED !


 ITERATION  ENERGY          1e-ENERGY        2e-ENERGY     RMS[dD(SAO)]   TOL
  14  -248.43146855937    -742.25200582     287.58562030    0.854D-07 0.560D-13
                            Exc = -36.0011195261     Coul =  323.586739827    
                              N = 42.000011980    
                            current damping = 0.400
 
          Norm of current diis error: 0.52133E-04
          max. resid. norm for Fia-block=  1.203D-06 for orbital     17a         
          max. resid. fock norm         =  1.687D-06 for orbital    467a         

 DENSITY CONVERGED !


 ITERATION  ENERGY          1e-ENERGY        2e-ENERGY     RMS[dD(SAO)]   TOL
  15  -248.43146855943    -742.25202791     287.58564239    0.230D-07 0.560D-13
                            Exc = -36.0011217975     Coul =  323.586764189    
                              N = 42.000011980    
                            current damping = 0.450
 
          Norm of current diis error: 0.10343E-04
          max. resid. norm for Fia-block=  3.346D-07 for orbital     15a         
          max. resid. fock norm         =  7.182D-07 for orbital    474a         
          mo-orthogonalization: Cholesky decomposition

 DENSITY CONVERGED !


 ITERATION  ENERGY          1e-ENERGY        2e-ENERGY     RMS[dD(SAO)]   TOL
  16  -248.43146855943    -742.25205514     287.58566962    0.998D-08 0.560D-13
                            Exc = -36.0011237804     Coul =  323.586793400    
                              N = 42.000011980    
                            current damping = 0.300
 
          Norm of current diis error: 0.44147E-05
          max. resid. norm for Fia-block=  1.194D-07 for orbital     20a         
          max. resid. fock norm         =  2.052D-07 for orbital    476a         

 ENERGY & DENSITY CONVERGED !

          Overall gridpoints after grid construction =        176673

 ITERATION  ENERGY          1e-ENERGY        2e-ENERGY     RMS[dD(SAO)]   TOL
  17  -248.43135631340    -742.25205392     287.58578064    0.271D-08 0.560D-13
                            Exc = -36.0010115272     Coul =  323.586792171    
                              N = 42.000000434    
                            current damping = 0.350
 
          Norm of current diis error: 0.14772E-05
          max. resid. norm for Fia-block=  4.175D-08 for orbital     19a         
          max. resid. fock norm         =  7.491D-08 for orbital    470a         

 End of SCF iterations

   convergence criteria satisfied after    17 iterations


                  ------------------------------------------ 
                 |  total energy      =   -248.43135631340  |
                  ------------------------------------------ 
                 :  kinetic energy    =    247.35754307370  :
                 :  potential energy  =   -495.78889938710  :
                 :  virial theorem    =      1.99567762598  :
                 :  wavefunction norm =      1.00000000000  :
                  .......................................... 


 <geterg> : there is no data group $energy 


 <skperg> : $end is missing 


 orbitals $scfmo  will be written to file mos

    irrep                 17a         18a         19a         20a         21a   
 eigenvalues H         -0.36529    -0.32852    -0.26651    -0.24428    -0.22081
            eV          -9.9401     -8.9395     -7.2522     -6.6473     -6.0086
 occupation              2.0000      2.0000      2.0000      2.0000      2.0000 

    irrep                 22a         23a         24a         25a         26a   
 eigenvalues H         -0.06096    -0.04655     0.01880     0.04364     0.05483
            eV          -1.6588     -1.2667      0.5116      1.1875      1.4919
 
 
 
 
 ==============================================================================
                           electrostatic moments
 ==============================================================================

 reference point for electrostatic moments:    0.00000   0.00000   0.00000

 
              nuc           elec       ->  total
 ------------------------------------------------------------------------------
                          charge      
 ------------------------------------------------------------------------------
          42.000000     -42.000000       0.000000
 
 ------------------------------------------------------------------------------
                       dipole moment  
 ------------------------------------------------------------------------------
   x     265.064425    -264.462153       0.602272
   y     -20.385779      20.995503       0.609724
   z      14.485166     -14.391826       0.093340
 
   | dipole moment | =     0.8621 a.u. =     2.1912 debye 
 
 ------------------------------------------------------------------------------
                     quadrupole moment
 ------------------------------------------------------------------------------
  xx    1763.396266   -1783.119189     -19.722923
  yy     111.425103    -138.999288     -27.574185
  zz     169.914236    -192.416737     -22.502501
  xy     -48.086699      51.812189       3.725490
  xz     127.879512    -126.261853       1.617660
  yz     -41.554305      40.227783      -1.326522
 
     1/3  trace=     -23.266536
     anisotropy=      10.114961
 
 ==============================================================================
 


    ------------------------------------------------------------------------
         total  cpu-time :  6 minutes and 27 seconds
         total wall-time :  49.96 seconds
    ------------------------------------------------------------------------

   ****  ridft : all done  ****


    2018-04-28 21:10:11.842 

