
   OpenMP run-time library returned nthreads = 28
 operating system is UNIX !

 dscf (c-13-32) : TURBOMOLE V7.3 ( 22142 ) 4 Jul 2018 at 18:12:42
 Copyright (C) 2018 TURBOMOLE GmbH, Karlsruhe


    2019-04-01 21:48:31.925 



                             d s c f - program

                   idea & directorship : reinhart ahlrichs
                   program development : marco haeser
                                         michael baer
                           dft version : oliver treutler


                          quantum chemistry group
                          universitaet  karlsruhe
                                  germany




                          References             
                                                 
          TURBOMOLE:                             
              R. Ahlrichs, M. Baer, M. Haeser, H. Horn, and
              C. Koelmel
              Electronic structure calculations on workstation
              computers: the program system TURBOMOLE
              Chem. Phys. Lett. 162: 165 (1989)
          Density Functional:                              
              O. Treutler and R. Ahlrichs                      
              Efficient Molecular Numerical Integration Schemes
              J. Chem. Phys. 102: 346 (1995)                   
          Parallel Version:                                
              Performance of parallel TURBOMOLE for Density    
              Functional Calculations                          
              M. v. Arnim and R. Ahlrichs                      
              J. Comp. Chem. 19: 1746 (1998)                   
                                         




              +--------------------------------------------------+
              | Atomic coordinate, charge and isotop information |
              +--------------------------------------------------+

                    atomic coordinates            atom    charge  isotop
          4.46735224    0.18259041    0.00027741    n      7.000     0
          5.78242520    0.11839492    2.16353733    c      6.000     0
          4.67755420    0.16301313    3.88482845    h      1.000     0
          8.40729938   -0.00478203    2.25801620    c      6.000     0
          9.36332389   -0.05174958    4.06143688    h      1.000     0
          9.75120296   -0.06738072   -0.00003862    c      6.000     0
         11.79180474   -0.16521855   -0.00019060    h      1.000     0
          8.40702508   -0.00490799   -2.25788585    c      6.000     0
          9.36284279   -0.05191120   -4.06143783    h      1.000     0
          5.78213876    0.11829269   -2.16312315    c      6.000     0
          4.67708572    0.16289146   -3.88427164    h      1.000     0
 
       center of nuclear mass  :    7.08891531    0.05729481    0.00013060
       center of nuclear charge:    7.14106251    0.05459189    0.00012721

              +--------------------------------------------------+
              |               basis set information              |
              +--------------------------------------------------+

              we will work with the 1s 3p 5d 7f 9g ... basis set
              ...i.e. with spherical basis functions...

   type   atoms  prim   cont   basis
   ---------------------------------------------------------------------------
    n        1     77     55   cc-pVQZ   [5s4p3d2f1g|21s6p3d2f1g]
    c        5     77     55   cc-pVQZ   [5s4p3d2f1g|21s6p3d2f1g]
    h        5     32     30   cc-pVQZ   [4s3p2d1f|6s3p2d1f]
   ---------------------------------------------------------------------------
   total:   11    622    480
   ---------------------------------------------------------------------------

   total number of primitive shells          :   78
   total number of contracted shells         :  140
   total number of cartesian basis functions :  595
   total number of SCF-basis functions       :  480


 integral neglect threshold       :  0.56E-13
 integral storage threshold THIZE :  0.10E-04
 integral storage threshold THIME :         5


 DENSITY CONVERGENCE CHECK SWITCHED ON !
 SCF CONVERGENCE IF RMS(delta[D]) <     0.1000000000E-06


 symmetry group of the molecule :   c1 

 the group has the following generators :
   c1(z)

    1 symmetry operations found

 there are 1 real representations :   a   

 maximum number of shells which are related by symmetry :  1


    mo occupation :
   irrep   mo's   occupied
    a      480       21
 
 number of basis functions   :                    480
 number of occupied orbitals :                     21
 

 automatic virtual orbital shift switched on 
      shift if e(lumo)-e(homo) < 0.10000000    


          ------------------------
          nuclear repulsion energy  :   206.285463432    
          ------------------------


         -----------------
         -S,T+V- integrals
         -----------------

 1e-integrals will be neglected if expon. factor < 0.561674E-14
 
   Difference densities algorithm switched on.
   The maximal number of linear combinations of
   difference densities is                    20 .

 DIIS switched on: error vector is FDS-SDF
 Max. Iterations for DIIS is     :   5
 DIIS matrix (see manual) 
    Scaling factor of diagonals  :  1.200
    threshold for scaling factor :  0.000

 scf convergence criterion : increment of total energy < .1000000D-08
                  and increment of one-electron energy < .1000000D-05

  MOs are in ASCII format !


 reading orbital data $scfmo  from file mos
 orbital characterization : scfconv=9

 DSCF restart information will be dumped onto file mos

 
                                              current damping :  0.700
 ITERATION  ENERGY          1e-ENERGY        2e-ENERGY     RMS[dD(SAO)]   TOL
   1  -246.73756749825    -742.31813419     289.29510326    0.000D+00 0.560D-13
          max. resid. norm for Fia-block=  1.077D-01 for orbital      1a         
          max. resid. fock norm         =  2.301D-01 for orbital    479a         
          Delta Eig. =    25.7823720948 eV 
 
                                              current damping :  0.650
 ITERATION  ENERGY          1e-ENERGY        2e-ENERGY     RMS[dD(SAO)]   TOL
   2  -246.78118052654    -741.44666182     288.38001786    0.117D-02 0.364D-13
          Norm of current diis error: 0.59394    
          max. resid. norm for Fia-block=  5.023D-02 for orbital      1a         
          max. resid. fock norm         =  8.444D-02 for orbital    480a         
          Delta Eig. =    11.1471840777 eV 
 
                                              current damping :  0.600
 ITERATION  ENERGY          1e-ENERGY        2e-ENERGY     RMS[dD(SAO)]   TOL
   3  -246.78989688203    -741.52531370     288.44995339    0.570D-03 0.272D-13
          Norm of current diis error: 0.26183    
          max. resid. norm for Fia-block=  2.115D-02 for orbital      1a         
          max. resid. fock norm         =  3.419D-02 for orbital    478a         
          Delta Eig. =     4.5356457023 eV 
 
                                              current damping :  0.650
 ITERATION  ENERGY          1e-ENERGY        2e-ENERGY     RMS[dD(SAO)]   TOL
   4  -246.79173071638    -741.45512081     288.37792666    0.248D-03 0.235D-13
          Norm of current diis error: 0.10666    
          max. resid. norm for Fia-block=  7.792D-03 for orbital      1a         
          max. resid. fock norm         =  1.284D-02 for orbital    480a         
          Delta Eig. =     1.6232231143 eV 
 
                                              current damping :  0.500
 ITERATION  ENERGY          1e-ENERGY        2e-ENERGY     RMS[dD(SAO)]   TOL
   5  -246.79204857876    -741.43855805     288.36104604    0.958D-04 0.216D-13
          Norm of current diis error: 0.45884E-01
          max. resid. norm for Fia-block=  3.098D-03 for orbital      1a         
          max. resid. fock norm         =  5.028D-03 for orbital    479a         
 mo-orthogonalization: Cholesky decomposition
          Delta Eig. =     0.7036253311 eV 
 
                                              current damping :  0.350
 ITERATION  ENERGY          1e-ENERGY        2e-ENERGY     RMS[dD(SAO)]   TOL
   6  -246.79211754215    -741.43193222     288.35435125    0.462D-04 0.201D-13
          Norm of current diis error: 0.18150E-01
          max. resid. norm for Fia-block=  1.240D-03 for orbital     21a         
          max. resid. fock norm         =  1.748D-03 for orbital    480a         
          Delta Eig. =     0.2659370754 eV 
 
                                              current damping :  0.200
 ITERATION  ENERGY          1e-ENERGY        2e-ENERGY     RMS[dD(SAO)]   TOL
   7  -246.79213178520    -741.42868407     288.35108885    0.195D-04 0.189D-13
          Norm of current diis error: 0.72814E-02
          max. resid. norm for Fia-block=  5.862D-04 for orbital     21a         
          max. resid. fock norm         =  5.862D-04 for orbital     21a         
          Delta Eig. =     0.0748348287 eV 
 
                                              current damping :  0.050
 ITERATION  ENERGY          1e-ENERGY        2e-ENERGY     RMS[dD(SAO)]   TOL
   8  -246.79213538783    -741.42823975     288.35064093    0.801D-05 0.176D-13
          Norm of current diis error: 0.36126E-02
          max. resid. norm for Fia-block=  3.829D-04 for orbital     21a         
          max. resid. fock norm         =  3.829D-04 for orbital     21a         
          Delta Eig. =     0.0204103919 eV 
 
                                              current damping :  0.050
 ITERATION  ENERGY          1e-ENERGY        2e-ENERGY     RMS[dD(SAO)]   TOL
   9  -246.79213673275    -741.42796343     288.35036327    0.375D-05 0.161D-13
          Norm of current diis error: 0.18517E-02
          max. resid. norm for Fia-block=  2.538D-04 for orbital     20a         
          max. resid. fock norm         =  2.576D-04 for orbital     20a         
          Delta Eig. =     0.0032678175 eV 
 
                                              current damping :  0.100
 ITERATION  ENERGY          1e-ENERGY        2e-ENERGY     RMS[dD(SAO)]   TOL
  10  -246.79213716557    -741.42826942     288.35066882    0.235D-05 0.147D-13
          Norm of current diis error: 0.81397E-03
          max. resid. norm for Fia-block=  1.183D-04 for orbital     21a         
          max. resid. fock norm         =  1.183D-04 for orbital     21a         
 mo-orthogonalization: Cholesky decomposition
          Delta Eig. =     0.0051322624 eV 
 
                                              current damping :  0.150
 ITERATION  ENERGY          1e-ENERGY        2e-ENERGY     RMS[dD(SAO)]   TOL
  11  -246.79213723591    -741.42811321     288.35051254    0.119D-05 0.140D-13
          Norm of current diis error: 0.35711E-03
          max. resid. norm for Fia-block=  5.013D-05 for orbital     20a         
          max. resid. fock norm         =  5.422D-05 for orbital     20a         
          Delta Eig. =     0.0017451204 eV 
 
                                              current damping :  0.200
 ITERATION  ENERGY          1e-ENERGY        2e-ENERGY     RMS[dD(SAO)]   TOL
  12  -246.79213724598    -741.42822922     288.35062854    0.388D-06 0.136D-13
          Norm of current diis error: 0.12360E-03
          max. resid. norm for Fia-block=  1.520D-05 for orbital     20a         
          max. resid. fock norm         =  1.529D-05 for orbital     20a         
          Delta Eig. =     0.0004972041 eV 
 
                                              current damping :  0.250
 ITERATION  ENERGY          1e-ENERGY        2e-ENERGY     RMS[dD(SAO)]   TOL
  13  -246.79213724736    -741.42822183     288.35062115    0.214D-06 0.134D-13
          Norm of current diis error: 0.44141E-04
          max. resid. norm for Fia-block=  6.487D-06 for orbital     20a         
          max. resid. fock norm         =  6.529D-06 for orbital     20a         
          Delta Eig. =     0.0000698794 eV 

 DENSITY CONVERGED !

 
                                              current damping :  0.300
 ITERATION  ENERGY          1e-ENERGY        2e-ENERGY     RMS[dD(SAO)]   TOL
  14  -246.79213724756    -741.42822368     288.35062300    0.846D-07 0.160D-13
          Norm of current diis error: 0.19064E-04
          max. resid. norm for Fia-block=  2.628D-06 for orbital     19a         
          max. resid. fock norm         =  2.781D-06 for orbital     19a         
          Delta Eig. =     0.0000305257 eV 

 ENERGY & DENSITY CONVERGED !

 
                                              current damping :  0.150
 ITERATION  ENERGY          1e-ENERGY        2e-ENERGY     RMS[dD(SAO)]   TOL
  15  -246.79213724759    -741.42822451     288.35062384    0.354D-07 0.160D-13
          max. resid. norm for Fia-block=  6.166D-07 for orbital     19a         
          max. resid. fock norm         =  6.698D-07 for orbital     19a         

 convergence criteria satisfied after    15 iterations


                  ------------------------------------------ 
                 |  total energy      =   -246.79213724759  |
                  ------------------------------------------ 
                 :  kinetic energy    =    246.45445254897  :
                 :  potential energy  =   -493.24658979656  :
                 :  virial theorem    =      1.99863170398  :
                 :  wavefunction norm =      1.00000000000  :
                  .......................................... 


 orbitals $scfmo  will be written to file mos

    irrep                 17a         18a         19a         20a         21a   
 eigenvalues H         -0.54087    -0.52039    -0.41810    -0.38326    -0.34804
            eV         -14.7179    -14.1606    -11.3773    -10.4292     -9.4707
 occupation              2.0000      2.0000      2.0000      2.0000      2.0000 

    irrep                 22a         23a         24a         25a         26a   
 eigenvalues H          0.10217     0.11755     0.11849     0.13430     0.14502
            eV           2.7802      3.1988      3.2242      3.6546      3.9462
 
 
 
 
 ==============================================================================
                           electrostatic moments
 ==============================================================================

 reference point for electrostatic moments:    0.00000   0.00000   0.00000

 
              nuc           elec       ->  total
 ------------------------------------------------------------------------------
                          charge      
 ------------------------------------------------------------------------------
          42.000000     -42.000000       0.000000
 
 ------------------------------------------------------------------------------
                       dipole moment  
 ------------------------------------------------------------------------------
   x     299.924625    -299.021204       0.903421
   y       2.292859      -2.338607      -0.045748
   z       0.005343      -0.005412      -0.000070
 
   | dipole moment | =     0.9046 a.u. =     2.2992 debye 
 
 ------------------------------------------------------------------------------
                     quadrupole moment
 ------------------------------------------------------------------------------
  xx    2317.734310   -2331.913958     -14.179648
  yy       0.514737     -29.296571     -28.781834
  zz     180.510093    -202.232848     -21.722755
  xy       8.095936      -8.447386      -0.351450
  xz       0.038916      -0.038914       0.000002
  yz       0.004945      -0.004867       0.000078
 
     1/3  trace=     -21.561412
     anisotropy=      12.662820
 
 ==============================================================================
 


    ------------------------------------------------------------------------
         total  cpu-time :  1 hours 23 minutes and 27 seconds
         total wall-time :  7 minutes and 37 seconds
    ------------------------------------------------------------------------

   ****  dscf : all done  ****


    2019-04-01 21:56:08.773 

