STARTING ridft ON 32 PROCESSORS!
RUNNING PROGRAM /sopt/TURBOMOLE/7.3-official/bin/em64t-unknown-linux-gnu_smp/ridft_mpi.
           SMPCPUS    set: Shared-memory Parallelization with  32 CPUs.

           SMP Parallelization Reference:
           C. van Wullen, J. Comput. Chem. 32 (2011) 1195--1201
 operating system is UNIX !

 ridft (c-16-23) : TURBOMOLE V7.3 ( 22118 ) 1 Jul 2018 at 20:38:15
 Copyright (C) 2018 TURBOMOLE GmbH, Karlsruhe


    2019-03-12 22:34:29.521 



                                  r i d f t

                        DFT program with RI approximation 
                                for coulomb part 




                                                 
                                 References:     
                                                 
          TURBOMOLE:                             
              R. Ahlrichs, M. Baer, M. Haeser, H. Horn, and
              C. Koelmel
              Electronic structure calculations on workstation
              computers: the program system TURBOMOLE
              Chem. Phys. Lett. 162: 165 (1989)
          Density Functional:                              
              O. Treutler and R. Ahlrichs                      
              Efficient Molecular Numerical Integration Schemes
              J. Chem. Phys. 102: 346 (1995)                   
          Parallel Version:                                
              Performance of parallel TURBOMOLE for Density    
              Functional Calculations                          
              M. v. Arnim and R. Ahlrichs                      
              J. Comp. Chem. 19: 1746 (1998)                   
          RI-J Method:                                     
              Auxiliary Basis Sets to approximate Coulomb      
              Potentials                                       
              Chem. Phys. Lett. 240: 283 (1995)                
              K. Eichkorn, O. Treutler, H. Oehm, M. Haeser     
              and R. Ahlrichs                                  
              Chem. Phys. Lett. 242: 652 (1995)                
                                                           
              Auxiliary Basis Sets for Main Row Atoms and their
              Use to approximate Coulomb Potentials            
              K. Eichkorn, F. Weigend, O. Treutler and         
              R. Ahlrichs                                      
              Theo. Chem. Acc. 97: 119 (1997)                   
                                                           
              Accurate Coulomb-fitting basis sets for H to Rn 
              F. Weigend                                        
              Phys. Chem. Chem. Phys. 8: 1057 (2006)            
                                                           
          Multipole accelerated RI-J (MARI-J):             
              Fast evaluation of the Coulomb potential for     
              electron densities using multipole accelerated   
              resolution of identity approximation             
              M. Sierka, A. Hogekamp and R. Ahlrichs           
              J. Chem. Phys. 118: 9136 (2003)                  
          RI-JK Method:                                     
              A fully direct RI-HF algorithm: Implementation,
              optimised auxiliary basis sets, demonstration of
              accuracy and efficiency                         
              F. Weigend                                      
              Phys. Chem. Chem. Phys. 4: 4285 (2002)           
          Two-component HF and DFT with spin-orbit coupling:  
              Self-consistent treatment of spin-orbit         
              interactions with efficient Hartree-Fock and    
              density functional methods                      
              M. K. Armbruster, F. Weigend, C. van Wüllen and 
              W. Klopper                                      
              Phys. Chem. Chem. Phys. 10: 1748 (2008)         
          Two-component difference density and DIIS algorithm 
              Efficient two-component self-consistent field   
              procedures and gradients: implementation in     
              TURBOMOLE and application to Au20-              
              A. Baldes, F. Weigend                           
              Mol. Phys. 111: 2617 (2013)                     
          Relativistic all-electron 2c calculations           
              An efficient implementation of two-component    
              relativistic exact-decoupling methods for large 
              molecules                                       
              D. Peng, N. Middendorf, F. Weigend, M. Reiher   
              J. Chem. Phys. 138: 184105 (2013)               
          Finite nucleus model and SNSO approximation         
              Efficient implementation of one- and two-       
              component analytical energy gradients in exact  
              two-component theory                            
              Y. J. Franzke, N. Middendorf, F. Weigend        
              J. Chem. Phys. 148: 104110 (2018)               
                                         




              +--------------------------------------------------+
              |      general information about current run       |
              +--------------------------------------------------+

 
 PBE functional
 exchange:    LDA + PBE
 correlation: LDA (PW) + PBE
 A DFT calculation using the RI-J approximation will be carried out.
 Allocatable memory for RI due to $ricore (MB):                  8000


              +--------------------------------------------------+
              | Atomic coordinate, charge and isotop information |
              +--------------------------------------------------+

                    atomic coordinates            atom    charge  isotop
          1.34670449    2.11837487    0.11440550    c      6.000     0
          2.56594885    3.75375042    0.24138827    h      1.000     0
          2.37772094   -0.30094248    0.23476733    c      6.000     0
          4.39352686   -0.54254014    0.46627676    h      1.000     0
          0.80669567   -2.40850634    0.08059763    c      6.000     0
          1.60710748   -4.28671652    0.17905146    h      1.000     0
         -1.79444207   -2.09773596   -0.18956522    c      6.000     0
         -3.01308460   -3.73461606   -0.30937364    h      1.000     0
         -2.82613388    0.32323872   -0.30527773    c      6.000     0
         -4.84484734    0.56544602   -0.51722393    h      1.000     0
         -1.25445237    2.43140269   -0.15760587    c      6.000     0
         -2.05394465    4.31046569   -0.25111840    h      1.000     0
          3.75632288    2.09713718    7.01148787    c      6.000     0
          4.97490356    3.73398724    7.13195927    h      1.000     0
          4.78802477   -0.32388753    7.12774332    c      6.000     0
          6.80664323   -0.56605036    7.34079902    h      1.000     0
          3.21643501   -2.43206619    6.97911555    c      6.000     0
          4.01594357   -4.31111997    7.07294737    h      1.000     0
          0.61541301   -2.11906135    6.70564053    c      6.000     0
         -0.60365422   -3.75444970    6.57783338    h      1.000     0
         -0.41554573    0.30022793    6.58476263    c      6.000     0
         -2.43118060    0.54179013    6.35198851    h      1.000     0
          1.15534004    2.40780313    6.73985424    c      6.000     0
          0.35499401    4.28601145    6.64089130    h      1.000     0
 
       center of nuclear mass  :    0.98100866   -0.00033478    3.41049055
       center of nuclear charge:    0.98101015   -0.00033493    3.41048779

              +--------------------------------------------------+
              |               basis set information              |
              +--------------------------------------------------+

              we will work with the 1s 3p 5d 7f 9g ... basis set
              ...i.e. with spherical basis functions...

   type   atoms  prim   cont   basis
   ---------------------------------------------------------------------------
    c       12     68     48   def2-QZVP   [7s4p3d2f|15s8p3d2f]
    h       12     26     23   def2-QZVP   [4s3p2d|7s3p2d]
   ---------------------------------------------------------------------------
   total:   24   1128    852
   ---------------------------------------------------------------------------

   total number of primitive shells          :   40
   total number of contracted shells         :  300
   total number of cartesian basis functions :  984
   total number of SCF-basis functions       :  852


 integral neglect threshold       :  0.34E-11
 integral storage threshold THIZE :  0.10E-04
 integral storage threshold THIME :         5

 RI-J AUXILIARY BASIS SET information:

              we will work with the 1s 3p 5d 7f 9g ... basis set
              ...i.e. with spherical basis functions...

   type   atoms  prim   cont   basis
   ---------------------------------------------------------------------------
    c       12     70     49   def2-QZVP   [6s4p3d1f1g|12s5p4d2f1g]
    h       12     16     11   def2-QZVP   [3s1p1d|5s2p1d]
   ---------------------------------------------------------------------------
   total:   24   1032    720
   ---------------------------------------------------------------------------

   total number of primitive shells          :   32
   total number of contracted shells         :  240
   total number of cartesian basis functions :  876
   total number of SCF-basis functions       :  720


 symmetry group of the molecule :   c1 

 the group has the following generators :
   c1(z)

    1 symmetry operations found

 there are 1 real representations :   a   

 maximum number of shells which are related by symmetry :  1


    mo occupation :
   irrep   mo's   occupied
    a      852       42
 
 number of basis functions   :                    852
 number of occupied orbitals :                     42
 
  
           ------------------
           density functional
           ------------------
 PBE functional
 exchange:    LDA + PBE
 correlation: LDA (PW) + PBE

 iterations will be done with small grid
  
 spherical integration : Lebedev's spherical grid
 spherical gridsize    :                     4
    i.e. gridpoints    :                   434
 value for diffuse not defined
 radial integration    : Chebyshev 2nd kind (scaling 3)
 radial gridsize       :                     6
 integration cells     :                    24
 partition function    : becke
 partition sharpness   :                     3
  

 biggest AO integral is expected to be     5.262544080
  
           ------------------------
               RI-J - INFORMATION
           ------------------------
 Contributions to RI integral batches: 
  neglected integral batches:                 10940
  direct contribution:                            0
  memory contribution:                 34210
 Memory core needed for (P|Q) and Cholesky      4 MByte
 Memory core minimum needed except of (P|Q)     4 MByte
 Total minimum memory core needed (sum)         8 MByte
  
 ****************************************
 Memory allocated for RI-J  2534 MByte
 ****************************************
                                            

          ------------------------
          nuclear repulsion energy  :   623.711879902    
          ------------------------

  _________________________________
 |                                 |
 |         DFTD3 V3.1 Rev 0        |
 | S.Grimme, University Bonn       |
 |            June  2014           |
 |   see standalone version        |
 |       dftd3 -h for options      |
 |_________________________________|
 
 Please cite DFT-D3 work done with this code as:
 S. Grimme, J. Antony, S. Ehrlich and H. Krieg,
 J. Chem. Phys, 132 (2010), 154104.
 If used with BJ-damping cite also
 S. Grimme, S. Ehrlich and L. Goerigk,
 J. Comput. Chem. 32 (2011), 1456-1465
 For DFT-D2 the reference is
 S. Grimme, J. Comput. Chem., 27 (2006), 1787-1799
 
C6 coefficients used:
                     2  C6 for element                      1
Z=  1 CN= 0.912     C6(AA)=    3.03
Z=  1 CN= 0.000     C6(AA)=    7.59
                     5  C6 for element                      6
Z=  6 CN= 0.000     C6(AA)=   49.11
Z=  6 CN= 0.987     C6(AA)=   43.25
Z=  6 CN= 1.998     C6(AA)=   29.36
Z=  6 CN= 2.999     C6(AA)=   25.78
Z=  6 CN= 3.984     C6(AA)=   18.21

#           XYZ [au]              R0(AA) [Ang.]  CN          C6(AA)     C8(AA)   C10(AA) [au]
  1   1.34670   2.11837   0.11441   c   0.610  3.136        25.3       732.3     25944.4
  2   2.56595   3.75375   0.24139   h   0.395  1.004         3.1        37.3       552.9
  3   2.37772  -0.30094   0.23477   c   0.610  3.136        25.3       732.3     25944.3
  4   4.39353  -0.54254   0.46628   h   0.395  1.004         3.1        37.3       552.9
  5   0.80670  -2.40851   0.08060   c   0.610  3.136        25.3       732.3     25945.4
  6   1.60711  -4.28672   0.17905   h   0.395  1.004         3.1        37.3       552.9
  7  -1.79444  -2.09774  -0.18957   c   0.610  3.134        25.3       732.5     25952.2
  8  -3.01308  -3.73462  -0.30937   h   0.395  1.003         3.1        37.3       552.9
  9  -2.82613   0.32324  -0.30528   c   0.610  3.134        25.3       732.5     25953.4
 10  -4.84485   0.56545  -0.51722   h   0.395  1.003         3.1        37.3       553.0
 11  -1.25445   2.43140  -0.15761   c   0.610  3.135        25.3       732.5     25951.3
 12  -2.05394   4.31047  -0.25112   h   0.395  1.003         3.1        37.3       552.9
 13   3.75632   2.09714   7.01149   c   0.610  3.134        25.3       732.5     25952.2
 14   4.97490   3.73399   7.13196   h   0.395  1.003         3.1        37.3       552.9
 15   4.78802  -0.32389   7.12774   c   0.610  3.134        25.3       732.5     25953.4
 16   6.80664  -0.56605   7.34080   h   0.395  1.003         3.1        37.3       553.0
 17   3.21644  -2.43207   6.97912   c   0.610  3.135        25.3       732.5     25951.3
 18   4.01594  -4.31112   7.07295   h   0.395  1.003         3.1        37.3       552.9
 19   0.61541  -2.11906   6.70564   c   0.610  3.136        25.3       732.3     25944.4
 20  -0.60365  -3.75445   6.57783   h   0.395  1.004         3.1        37.3       552.9
 21  -0.41555   0.30023   6.58476   c   0.610  3.136        25.3       732.3     25944.3
 22  -2.43118   0.54179   6.35199   h   0.395  1.004         3.1        37.3       552.9
 23   1.15534   2.40780   6.73985   c   0.610  3.136        25.3       732.3     25945.4
 24   0.35499   4.28601   6.64089   h   0.395  1.004         3.1        37.3       552.9

molecular C6(AA) [au] =      6634.80

           DFT-D V3(BJ)
 DF pbe                                               
 parameters
 s6       :    1.0000
 s8       :    0.7875
 a1       :    0.4289
 a2       :    4.4407
 k1-k3    :   16.0000    1.3333   -4.0000
 
 Edisp /kcal,au:   -17.7202 -0.02823901

 E6    /kcal :   -12.4901
 E8    /kcal :    -5.2302
 % E8        : 29.52
 nuclear repulsion energy                  =     623.711879902
 empirical dispersive energy correction    =      -0.028239009
 nuclear repulsion + dispersion correction =     623.683640893


         -----------------
         -S,T+V- integrals
         -----------------

 1e-integrals will be neglected if expon. factor < 0.339630E-12
 Difference densities >>NOT<< switched on in parallel ridft!

 DIIS switched on: error vector is FDS-SDF
 Max. Iterations for DIIS is     :   4
 DIIS matrix (see manual) 
    Scaling factor of diagonals  :  1.200
    threshold for scaling factor :  0.000

 scf convergence criterion : increment of total energy < .1000000D-06
                  and increment of one-electron energy < .1000000D-03

  MOs are in ASCII format !


 automatic virtual orbital shift switched on 
      shift if e(lumo)-e(homo) < 0.10000000    


 reading orbital data $scfmo  from file mos
 orbital characterization : expanded
 mo provided and orthogonalized by Cholesky decomposition

 DSCF restart information will be dumped onto file mos


 Starting SCF iterations

          Overall gridpoints after grid construction =         63168

 ITERATION  ENERGY          1e-ENERGY        2e-ENERGY     NORM[dD(SAO)]  TOL
   1  -462.55072433207    -1841.7486070     755.51424175    0.000D+00 0.339D-11
                            Exc = -66.9674171383     Coul =  822.481658887    
                              N = 83.998456077    
                            current damping = 0.700
 
          max. resid. norm for Fia-block=  4.962D-01 for orbital     14a         
          max. resid. fock norm         =  4.806D+01 for orbital    681a         

 ITERATION  ENERGY          1e-ENERGY        2e-ENERGY     NORM[dD(SAO)]  TOL
   2  -463.78616186677    -1856.3373777     768.86757494    0.000D+00 0.339D-11
                            Exc = -68.2759193354     Coul =  837.143494280    
                              N = 83.998675429    
                            current damping = 0.650
 
          Norm of current diis error:  3.9987    
          max. resid. norm for Fia-block=  1.141D-01 for orbital      7a         
          max. resid. fock norm         =  1.296D-01 for orbital     92a         

 ITERATION  ENERGY          1e-ENERGY        2e-ENERGY     NORM[dD(SAO)]  TOL
   3  -464.01620936839    -1858.7526956     771.05284537    0.000D+00 0.339D-11
                            Exc = -68.6094472112     Coul =  839.662292581    
                              N = 83.998790977    
                            current damping = 0.550
 
          Norm of current diis error:  1.9578    
          max. resid. norm for Fia-block=  5.366D-02 for orbital     13a         
          max. resid. fock norm         =  6.238D-02 for orbital     13a         

 ITERATION  ENERGY          1e-ENERGY        2e-ENERGY     NORM[dD(SAO)]  TOL
   4  -464.08490003953    -1861.6514581     773.88291718    0.000D+00 0.339D-11
                            Exc = -68.8652740959     Coul =  842.748191280    
                              N = 83.998819624    
                            current damping = 0.450
 
          Norm of current diis error: 0.71248    
          max. resid. norm for Fia-block=  2.061D-02 for orbital     13a         
          max. resid. fock norm         =  2.332D-02 for orbital     13a         

 ITERATION  ENERGY          1e-ENERGY        2e-ENERGY     NORM[dD(SAO)]  TOL
   5  -464.09567016400    -1861.8668485     774.08753746    0.000D+00 0.339D-11
                            Exc = -68.9298031928     Coul =  843.017340648    
                              N = 83.998839775    
                            current damping = 0.300
 
          Norm of current diis error: 0.28629    
          max. resid. norm for Fia-block=  7.433D-03 for orbital     13a         
          max. resid. fock norm         =  9.490D-03 for orbital     13a         
          mo-orthogonalization: Cholesky decomposition

 ITERATION  ENERGY          1e-ENERGY        2e-ENERGY     NORM[dD(SAO)]  TOL
   6  -464.09712524196    -1862.7157027     774.93493652    0.000D+00 0.339D-11
                            Exc = -68.9874699962     Coul =  843.922406513    
                              N = 83.998835981    
                            current damping = 0.200
 
          Norm of current diis error: 0.14462    
          max. resid. norm for Fia-block=  3.346D-03 for orbital     40a         
          max. resid. fock norm         =  7.386D-03 for orbital    845a         

 ITERATION  ENERGY          1e-ENERGY        2e-ENERGY     NORM[dD(SAO)]  TOL
   7  -464.09740793308    -1862.4724009     774.69135209    0.000D+00 0.339D-11
                            Exc = -68.9828795700     Coul =  843.674231659    
                              N = 83.998841253    
                            current damping = 0.250
 
          Norm of current diis error: 0.91876E-01
          max. resid. norm for Fia-block=  1.561D-03 for orbital     41a         
          max. resid. fock norm         =  3.840D-03 for orbital    845a         

 ITERATION  ENERGY          1e-ENERGY        2e-ENERGY     NORM[dD(SAO)]  TOL
   8  -464.09759117291    -1862.4501287     774.66889665    0.000D+00 0.339D-11
                            Exc = -68.9802630317     Coul =  843.649159686    
                              N = 83.998840433    
                            current damping = 0.100
 
          Norm of current diis error: 0.26172E-01
          max. resid. norm for Fia-block=  4.443D-04 for orbital     31a         
          max. resid. fock norm         =  6.830D-04 for orbital      6a         

 ITERATION  ENERGY          1e-ENERGY        2e-ENERGY     NORM[dD(SAO)]  TOL
   9  -464.09760310725    -1862.5411631     774.75991914    0.000D+00 0.339D-11
                            Exc = -68.9854023148     Coul =  843.745321453    
                              N = 83.998839731    
                            current damping = 0.150
 
          Norm of current diis error: 0.92769E-02
          max. resid. norm for Fia-block=  1.420D-04 for orbital     41a         
          max. resid. fock norm         =  2.597D-04 for orbital    848a         

 ITERATION  ENERGY          1e-ENERGY        2e-ENERGY     NORM[dD(SAO)]  TOL
  10  -464.09760465783    -1862.5194873     774.73824176    0.000D+00 0.339D-11
                            Exc = -68.9842136626     Coul =  843.722455421    
                              N = 83.998839955    
                            current damping = 0.200
 
          Norm of current diis error: 0.29180E-02
          max. resid. norm for Fia-block=  6.512D-05 for orbital     28a         
          max. resid. fock norm         =  1.547D-04 for orbital    848a         
          mo-orthogonalization: Cholesky decomposition

 ITERATION  ENERGY          1e-ENERGY        2e-ENERGY     NORM[dD(SAO)]  TOL
  11  -464.09760478043    -1862.5163959     774.73515027    0.000D+00 0.339D-11
                            Exc = -68.9840373463     Coul =  843.719187615    
                              N = 83.998839928    
                            current damping = 0.050
 
          Norm of current diis error: 0.16205E-02
          max. resid. norm for Fia-block=  2.224D-05 for orbital     28a         
          max. resid. fock norm         =  5.018D-05 for orbital    848a         

 ITERATION  ENERGY          1e-ENERGY        2e-ENERGY     NORM[dD(SAO)]  TOL
  12  -464.09760483293    -1862.5189086     774.73766290    0.000D+00 0.339D-11
                            Exc = -68.9841746264     Coul =  843.721837530    
                              N = 83.998839920    
                            current damping = 0.100
 
          Norm of current diis error: 0.28505E-03
          max. resid. norm for Fia-block=  8.298D-06 for orbital     42a         
          max. resid. fock norm         =  1.489D-05 for orbital    845a         

 ITERATION  ENERGY          1e-ENERGY        2e-ENERGY     NORM[dD(SAO)]  TOL
  13  -464.09760483142    -1862.5179607     774.73671495    0.000D+00 0.339D-11
                            Exc = -68.9841347958     Coul =  843.720849750    
                              N = 83.998839938    
                            current damping = 0.150
 
          Norm of current diis error: 0.38084E-03
          max. resid. norm for Fia-block=  3.945D-06 for orbital     42a         
          max. resid. fock norm         =  9.359D-06 for orbital    850a         

 ENERGY CONVERGED !

          Overall gridpoints after grid construction =        228917

 ITERATION  ENERGY          1e-ENERGY        2e-ENERGY     NORM[dD(SAO)]  TOL
  14  -464.09764107917    -1862.5182745     774.73699251    0.000D+00 0.339D-11
                            Exc = -68.9841815717     Coul =  843.721174079    
                              N = 84.000032455    
                            current damping = 0.200
 
          Norm of current diis error: 0.78059E-04
          max. resid. norm for Fia-block=  1.274D-06 for orbital     42a         
          max. resid. fock norm         =  1.831D-06 for orbital    847a         

 End of SCF iterations

   convergence criteria satisfied after    14 iterations


                  ------------------------------------------ 
                 |  total energy      =   -464.09764107917  |
                  ------------------------------------------ 
                 :  kinetic energy    =    462.07281192741  :
                 :  potential energy  =   -926.17045300658  :
                 :  virial theorem    =      1.99563706218  :
                 :  wavefunction norm =      1.00000000000  :
                  .......................................... 


 orbitals $scfmo  will be written to file mos

    irrep                 38a         39a         40a         41a         42a   
 eigenvalues H         -0.29805    -0.23676    -0.22872    -0.22696    -0.22027
            eV          -8.1105     -6.4426     -6.2239     -6.1760     -5.9940
 occupation              2.0000      2.0000      2.0000      2.0000      2.0000 

    irrep                 43a         44a         45a         46a         47a   
 eigenvalues H         -0.04387    -0.04004    -0.03989    -0.03628    -0.00209
            eV          -1.1938     -1.0895     -1.0854     -0.9873     -0.0568
 
 
 
 
 ==============================================================================
                           electrostatic moments
 ==============================================================================

 reference point for electrostatic moments:    0.00000   0.00000   0.00000

 
              nuc           elec       ->  total
 ------------------------------------------------------------------------------
                          charge      
 ------------------------------------------------------------------------------
          84.000000     -84.000000      -0.000000
 
 ------------------------------------------------------------------------------
                       dipole moment  
 ------------------------------------------------------------------------------
   x      82.404853     -82.404837       0.000016
   y      -0.028134       0.028135       0.000001
   z     286.480974    -286.481172      -0.000198
 
   | dipole moment | =     0.0002 a.u. =     0.0005 debye 
 
 ------------------------------------------------------------------------------
                     quadrupole moment
 ------------------------------------------------------------------------------
  xx     579.841513    -628.504818     -48.663305
  yy     380.765805    -429.075752     -48.309947
  zz    1979.146436   -2038.769374     -59.622938
  xy      -0.987522       0.998594       0.011073
  xz     669.314935    -668.599515       0.715420
  yz      -5.278652       5.231054      -0.047598
 
     1/3  trace=     -52.198730
     anisotropy=      11.209537
 
 ==============================================================================
 


    ------------------------------------------------------------------------
         total  cpu-time :  6 minutes and 56 seconds
         total wall-time :  1 minutes and 41 seconds
    ------------------------------------------------------------------------

   ****  ridft : all done  ****


    2019-03-12 22:36:10.051 

