
   OpenMP run-time library returned nthreads =  8

 ricc2 (c-15-34.local) : TURBOMOLE V7.2 ( 21471 ) 11 Oct 2017 at 17:04:51
 Copyright (C) 2017 TURBOMOLE GmbH, Karlsruhe


    2018-04-03 20:37:09.192 



                              R I C C 2 - PROGRAM

                          the quantum chemistry groups
                             at the universities in
                           Karlsruhe, Bochum & Mainz
                                   Germany



   *-----------------------------------------------------------------------*
   |                     program will use  8 thread(s)                     |
   *-----------------------------------------------------------------------*


              +--------------------------------------------------+
              | Atomic coordinate, charge and isotop information |
              +--------------------------------------------------+

                    atomic coordinates            atom    charge  isotop
          2.67214728  -16.12873925   -0.75925602    c      6.000     0
          1.30593016  -16.39762846    1.51834749    c      6.000     0
         -1.31019639  -16.39369378    1.51771279    c      6.000     0
         -2.67476084  -16.12094752   -0.76042953    c      6.000     0
         -1.30837672  -16.07940921   -3.05458833    c      6.000     0
          1.30701508  -16.08348240   -3.05409802    c      6.000     0
          5.29139954  -15.59493970   -0.74242714    c      6.000     0
          7.43033913  -14.73005939   -0.73704008    c      6.000     0
         -5.29296625  -15.58136101   -0.74446793    c      6.000     0
         -7.43098344  -14.71426351   -0.73779243    c      6.000     0
         -9.69652615  -13.29645624   -0.72937256    c      6.000     0
        -10.93393434  -12.68813885    1.55473794    c      6.000     0
        -12.82909870  -10.88457433    1.61206466    c      6.000     0
        -13.56404394   -9.60687721   -0.61206758    c      6.000     0
        -12.48997743  -10.38557361   -2.92976160    c      6.000     0
        -10.59732228  -12.18968014   -2.98697242    c      6.000     0
          9.69387361  -13.30877584   -0.72474041    c      6.000     0
         10.92284889  -12.69594135    1.56255539    c      6.000     0
         12.81390532  -10.88799398    1.62341707    c      6.000     0
         13.55406513   -9.61234639   -0.60014373    c      6.000     0
         12.48900578  -10.39633610   -2.92037155    c      6.000     0
         10.59887269  -12.20276556   -2.98104153    c      6.000     0
        -15.05607874   -7.39268630   -0.50055400    c      6.000     0
        -15.92881856   -5.26023940   -0.39600576    c      6.000     0
        -16.45466951   -2.64293666   -0.28509884    c      6.000     0
        -16.77458767   -1.39884896    2.05326687    c      6.000     0
        -16.76504829    1.21483177    2.19051792    c      6.000     0
        -16.43778899    2.69689608   -0.00478934    c      6.000     0
        -16.33519850    1.45269922   -2.36518066    c      6.000     0
        -16.34364924   -1.15825052   -2.50186757    c      6.000     0
         -9.69739828   13.37288615    0.66028140    c      6.000     0
        -10.68041244   12.58633900   -1.69181199    c      6.000     0
        -12.55001309   10.76145865   -1.81388528    c      6.000     0
        -13.52108968    9.64656855    0.40835646    c      6.000     0
        -12.69968087   10.60005497    2.76267366    c      6.000     0
        -10.82624647   12.42196738    2.88531427    c      6.000     0
        -15.01353276    7.43328986    0.27621494    c      6.000     0
        -15.90736486    5.31047831    0.15818470    c      6.000     0
          1.31007953   15.67882057    3.18396858    c      6.000     0
         -1.30376278   15.67899188    3.18327180    c      6.000     0
         -2.66919516   16.12879121    0.93190799    c      6.000     0
         -1.30399492   16.78112110   -1.26489932    c      6.000     0
          1.31274268   16.78099509   -1.26422688    c      6.000     0
         -7.44387325   14.80481212    0.78047799    c      6.000     0
         -5.29633978   15.64268679    0.85051983    c      6.000     0
          2.67673873   16.12841882    0.93327932    c      6.000     0
         15.04434731   -7.39684778   -0.48808300    c      6.000     0
         15.91791929   -5.26463943   -0.38489235    c      6.000     0
         16.44820687   -2.64819090   -0.27276785    c      6.000     0
         16.35323310   -1.16333813   -2.49004727    c      6.000     0
         16.34827902    1.44771140   -2.35360411    c      6.000     0
         16.44058219    2.69197399    0.00709578    c      6.000     0
         16.75374543    1.20920653    2.20415875    c      6.000     0
         16.75917698   -1.40441380    2.06710535    c      6.000     0
         15.91204907    5.30609224    0.16829754    c      6.000     0
         15.01890817    7.42929442    0.28493020    c      6.000     0
         13.52695843    9.64305159    0.41652526    c      6.000     0
         12.55990314   10.76074456   -1.80609525    c      6.000     0
         10.69158278   12.58702608   -1.68507210    c      6.000     0
          9.70414534   13.37050915    0.66620429    c      6.000     0
         10.82826125   12.41594339    2.89203431    c      6.000     0
         12.70146187   10.59368929    2.77052121    c      6.000     0
          7.45113829   14.80341202    0.78450175    c      6.000     0
          5.30381613   15.64189849    0.85335031    c      6.000     0
          2.33093939  -16.46882097    3.29215524    h      1.000     0
         -2.33624415  -16.46168965    3.29105838    h      1.000     0
         -2.33740599  -15.93165612   -4.82276243    h      1.000     0
          2.33709180  -15.93916702   -4.82192292    h      1.000     0
        -10.28539619  -13.55026395    3.29782152    h      1.000     0
        -13.67102568  -10.33633160    3.39957301    h      1.000     0
        -13.08424667   -9.46032737   -4.66108103    h      1.000     0
         -9.70609564  -12.68949935   -4.76551925    h      1.000     0
         10.27233092  -13.55959983    3.30412437    h      1.000     0
         13.64910272  -10.33572109    3.41287065    h      1.000     0
         13.08694959   -9.47331081   -4.65167630    h      1.000     0
          9.71239760  -12.70777496   -4.76049445    h      1.000     0
        -16.90275375   -2.51841171    3.76648086    h      1.000     0
        -16.89564084    2.14897336    4.01175509    h      1.000     0
        -16.12896987    2.57316407   -4.06993635    h      1.000     0
        -16.14424958   -2.09499577   -4.31521838    h      1.000     0
         -9.85366624   13.32838293   -3.41486792    h      1.000     0
        -13.19572089   10.07364854   -3.63442070    h      1.000     0
        -13.47335329    9.80031939    4.48561643    h      1.000     0
        -10.12428912   13.05476129    4.70573538    h      1.000     0
          2.33992891   15.23274541    4.90094171    h      1.000     0
         -2.33436555   15.23295341    4.89975471    h      1.000     0
         -2.33029594   17.16866387   -2.99711721    h      1.000     0
          2.33996508   17.16857470   -2.99589914    h      1.000     0
         16.16220589   -2.09902459   -4.30480185    h      1.000     0
         16.14702687    2.56800284   -4.05906409    h      1.000     0
         16.87777085    2.14314271    4.02597588    h      1.000     0
         16.87815314   -2.52426943    3.78079140    h      1.000     0
         13.20653066   10.07295125   -3.62631047    h      1.000     0
          9.86967430   13.33311592   -3.40869543    h      1.000     0
         10.12324666   13.04644202    4.71207867    h      1.000     0
         13.47150633    9.79133858    4.49387658    h      1.000     0
 
       center of nuclear mass  :    0.00008758    0.02041658   -0.04513707
       center of nuclear charge:    0.00008555    0.02033660   -0.04523826

              +--------------------------------------------------+
              |               basis set information              |
              +--------------------------------------------------+

              we will work with the 1s 3p 5d 7f 9g ... basis set
              ...i.e. with spherical basis functions...

   type   atoms  prim   cont   basis
   ---------------------------------------------------------------------------
    c       64     50     30   cc-pVTZ   [4s3p2d1f|18s5p2d1f]
    h       32     16     14   cc-pVTZ   [3s2p1d|5s2p1d]
   ---------------------------------------------------------------------------
   total:   96   3712   2368
   ---------------------------------------------------------------------------

   total number of primitive shells          :   34
   total number of contracted shells         :  832
   total number of cartesian basis functions : 2720
   total number of SCF-basis functions       : 2368


 symmetry group of the molecule :   c1 

 the group has the following generators :
   c1(z)

    1 symmetry operations found

 there are 1 real representations :   a   


   =========================================================================


     restricted closed shell calculation for the wavefunction models:
               MP2        - Second Order Moeller Plesset PT


     global parameters for ricc2 program:

        hard restart (reuse of interm.) :  disabled
        soft restart (reuse of vectors) :  disabled
        threshold for vector function   :    0.100000E-05
        convergence threshold energy    :    0.100000E-06
        linear dependence threshold     :    0.100000E-13
        global print level              :      1
        maximum number of iterations    :   300
        maximum number DIIS vectors     :    10
        max. dim. of reduced space      :   100
        core memory limit (MB)          : 22888


     MP2 energy only: Energy will be calculated directly from T2 amplitudes!

     Scratch Directory : 


   =========================================================================

    der. integral neglect threshold  :  0.10E-07
    integral neglect threshold       :  0.12E-11
    integral storage threshold THIZE :  0.10E-04
    integral storage threshold THIME :         5


                  +------------------------------------------+
                  |     Auxiliary basis set information      |
                  +------------------------------------------+

              we will work with the 1s 3p 5d 7f 9g ... basis set
              ...i.e. with spherical basis functions...

   type   atoms  prim   cont   basis
   ---------------------------------------------------------------------------
    c       64     81     81   cc-pVTZ   [8s6p5d3f1g|8s6p5d3f1g]
    h       32     30     30   cc-pVTZ   [4s3p2d1f|4s3p2d1f]
   ---------------------------------------------------------------------------
   total:   96   6144   6144
   ---------------------------------------------------------------------------

   total number of primitive shells          :   33
   total number of contracted shells         : 1792
   total number of cartesian basis functions : 7584
   total number of SCF-basis functions       : 6144


 maximum number of shells which are related by symmetry :  1


 The symmetry information takes   1 MB

*---------------------------------------------------------------------*
|               simplified C1 algorithm will be applied               |
*---------------------------------------------------------------------*
  MOs are in ASCII format !


 reading orbital data $scfmo  from file mos
 orbital characterization : scfconv=7



              +--------------------------------------------+
              | list of orbitals that will be kept frozen: |
              +--------------------------------------------+
              |   irrep   index      energy     occ/vir    |
              +--------------------------------------------+
              |   a         1      -11.2757     occupied   |
              |   a         2      -11.2757     occupied   |
              |   a         3      -11.2757     occupied   |
              |   a         4      -11.2757     occupied   |
              |   a         5      -11.2757     occupied   |
              |   a         6      -11.2757     occupied   |
              |   a         7      -11.2756     occupied   |
              |   a         8      -11.2756     occupied   |
              |   a         9      -11.2756     occupied   |
              |   a        10      -11.2756     occupied   |
              |   a        11      -11.2756     occupied   |
              |   a        12      -11.2756     occupied   |
              |   a        13      -11.2755     occupied   |
              |   a        14      -11.2755     occupied   |
              |   a        15      -11.2754     occupied   |
              |   a        16      -11.2754     occupied   |
              |   a        17      -11.2549     occupied   |
              |   a        18      -11.2548     occupied   |
              |   a        19      -11.2548     occupied   |
              |   a        20      -11.2548     occupied   |
              |   a        21      -11.2548     occupied   |
              |   a        22      -11.2547     occupied   |
              |   a        23      -11.2547     occupied   |
              |   a        24      -11.2546     occupied   |
              |   a        25      -11.2546     occupied   |
              |   a        26      -11.2546     occupied   |
              |   a        27      -11.2546     occupied   |
              |   a        28      -11.2545     occupied   |
              |   a        29      -11.2545     occupied   |
              |   a        30      -11.2545     occupied   |
              |   a        31      -11.2545     occupied   |
              |   a        32      -11.2543     occupied   |
              |   a        33      -11.2536     occupied   |
              |   a        34      -11.2536     occupied   |
              |   a        35      -11.2535     occupied   |
              |   a        36      -11.2535     occupied   |
              |   a        37      -11.2535     occupied   |
              |   a        38      -11.2534     occupied   |
              |   a        39      -11.2534     occupied   |
              |   a        40      -11.2534     occupied   |
              |   a        41      -11.2533     occupied   |
              |   a        42      -11.2533     occupied   |
              |   a        43      -11.2533     occupied   |
              |   a        44      -11.2533     occupied   |
              |   a        45      -11.2532     occupied   |
              |   a        46      -11.2532     occupied   |
              |   a        47      -11.2532     occupied   |
              |   a        48      -11.2531     occupied   |
              |   a        49      -11.2465     occupied   |
              |   a        50      -11.2465     occupied   |
              |   a        51      -11.2464     occupied   |
              |   a        52      -11.2464     occupied   |
              |   a        53      -11.2464     occupied   |
              |   a        54      -11.2464     occupied   |
              |   a        55      -11.2464     occupied   |
              |   a        56      -11.2464     occupied   |
              |   a        57      -11.2431     occupied   |
              |   a        58      -11.2431     occupied   |
              |   a        59      -11.2430     occupied   |
              |   a        60      -11.2430     occupied   |
              |   a        61      -11.2430     occupied   |
              |   a        62      -11.2430     occupied   |
              |   a        63      -11.2429     occupied   |
              |   a        64      -11.2429     occupied   |
              +--------------------------------------------+



   Molecular Orbital Statistic:
   ============================

   -----------------------------
   orbitals in total:
   -----------------------------
    frozen occupied :     64
    active occupied :    144
    active virtual  :   2160
    frozen virtual  :      0
    all together    :   2368
   -----------------------------


     time in riccmos       cpu: 14.13 sec    wall: 43.42 sec    ratio:  0.3

     total memory allocated for calculation of (Q|P)**(-1/2) : 433 MiB


     calculation of (P|Q) ...
     time in lp2sym        cpu: 12.89 sec    wall:  1.68 sec    ratio:  7.7


     calculation of the Cholesky decomposition of (P|Q)**(-1) ...
     time in invmetri      cpu:  1 min 16 s  wall:  0 min 13 s  ratio:  6.0

   threshold for RMS(d[D]) in SCF was     :  0.10E-06
   integral neglect threshold             :  0.12E-11
   derivative integral neglect threshold  :  0.10E-07


   =========================================================================

     Energy of reference wave function is -2442.5350688140002
     Maximum orbital residual is           0.4793610041124E-05


     Number of symmetry-nonredundant auxiliary basis functions:     6144

     Block lengths for integral files:
        frozen occupied (BOI):        3 MiB
        active occupied (BJI):        7 MiB
        active virtual  (BAI):      102 MiB
        frozen virtual  (BGI):        0 MiB
               general  (BTI):      111 MiB

   =========================================================================




   **************************************************************************
   *                                                                        *
   *          OPTIMIZATION OF THE GROUND STATE CLUSTER AMPLITUDES           *
   *                                                                        *
   **************************************************************************


   Iter.   MP2 energy       Norm(Omega)    Norm(t1)  Norm(t2)     cpu    wall
   ...........................................................................
    1  -2452.3769894450     ------          0.00000   1.12762  726.01   97.17
   ...........................................................................


     time in total         cpu: 12 h  6 min  wall:  1 h 37 min  ratio:  7.5


     **********************************************************************
     *                                                                    *
     *   RHF  energy                             :  -2442.5350688140      *
     *   MP2 correlation energy (doubles)        :     -9.8419206310      *
     *                                                                    *
     *   Final MP2 energy                        :  -2452.3769894450      *
     *                                                                    *
     *    E(S)   =     -5.9377939706      E(T)   =     -3.9041266604      *
     *    E(OS)  =     -7.2391695241      E(SS)  =     -2.6027511069      *
     *                                                                    *
     *   SCS-MP2 energy                          :  -2452.0896559452      *
     *   (computed with  C(OS) =   1.2000  and  C(SS) =   0.3333)         *
     *                                                                    *
     *   SOS-MP2 energy                          :  -2451.9459891953      *
     *   (computed with  C(OS) =   1.3000)                                *
     *                                                                    *
     *   Norm of MP1 T2 amplitudes               :      1.1276194864      *
     *                                                                    *
     **********************************************************************



    ------------------------------------------------------------------------
         total  cpu-time : 13 hours 29 minutes and  4 seconds
         total wall-time :  1 hours 54 minutes and 15 seconds
    ------------------------------------------------------------------------

   ****  ricc2 : all done  ****


    2018-04-03 22:31:24.094 

