 operating system is UNIX !

 ridft (c-12-254.gp.local) : TURBOMOLE V7.2 ( 21285 ) 30 Jun 2017 at 11:51:10
 Copyright (C) 2017 TURBOMOLE GmbH, Karlsruhe


    2018-02-07 23:04:17.511 



                                  r i d f t

                        DFT program with RI approximation 
                                for coulomb part 




                                                 
                                 References:     
                                                 
          TURBOMOLE:                             
              R. Ahlrichs, M. Baer, M. Haeser, H. Horn, and
              C. Koelmel
              Electronic structure calculations on workstation
              computers: the program system TURBOMOLE
              Chem. Phys. Lett. 162: 165 (1989)
          Density Functional:                              
              O. Treutler and R. Ahlrichs                      
              Efficient Molecular Numerical Integration Schemes
              J. Chem. Phys. 102: 346 (1995)                   
          Parallel Version:                                
              Performance of parallel TURBOMOLE for Density    
              Functional Calculations                          
              M. v. Arnim and R. Ahlrichs                      
              J. Comp. Chem. 19: 1746 (1998)                   
          RI-J Method:                                     
              Auxiliary Basis Sets to approximate Coulomb      
              Potentials                                       
              Chem. Phys. Lett. 240: 283 (1995)                
              K. Eichkorn, O. Treutler, H. Oehm, M. Haeser     
              and R. Ahlrichs                                  
              Chem. Phys. Lett. 242: 652 (1995)                
                                                           
              Auxiliary Basis Sets for Main Row Atoms and their
              Use to approximate Coulomb Potentials            
              K. Eichkorn, F. Weigend, O. Treutler and         
              R. Ahlrichs                                      
              Theo. Chem. Acc. 97: 119 (1997)                   
                                                           
              Accurate Coulomb-fitting basis sets for H to Rn 
              F. Weigend                                        
              Phys. Chem. Chem. Phys. 8: 1057 (2006)            
                                                           
          Multipole accelerated RI-J (MARI-J):             
              Fast evaluation of the Coulomb potential for     
              electron densities using multipole accelerated   
              resolution of identity approximation             
              M. Sierka, A. Hogekamp and R. Ahlrichs           
              J. Chem. Phys. 118: 9136 (2003)                  
          RI-JK Method:                                     
              A fully direct RI-HF algorithm: Implementation,
              optimised auxiliary basis sets, demonstration of
              accuracy and efficiency                         
              F. Weigend                                      
              Phys. Chem. Chem. Phys. 4: 4285 (2002)           
          Two-component HF and DFT with spin-orbit coupling:  
              Self-consistent treatment of spin-orbit         
              interactions with efficient Hartree-Fock and    
              density functional methods                      
              M. K. Armbruster, F. Weigend, C. van Wüllen and 
              W. Klopper                                      
              Phys. Chem. Chem. Phys. 10: 1748 (2008)         
          Relativistic all-electron 2c calculations           
              An efficient implementation of two-component    
              relativistic exact-decoupling methods for large 
              molecules                                       
              D. Peng, N. Middendorf, F. Weigend, M. Reiher   
              J. Chem. Phys. 138, 184105 (2013)               
                                         




              +--------------------------------------------------+
              |      general information about current run       |
              +--------------------------------------------------+

 

 DENSITY CONVERGENCE CHECK SWITCHED ON !
 SCF CONVERGENCE IF RMS(delta[D]) <     0.1000000000E-06

 PBE functional
 exchange:    LDA + PBE
 correlation: LDA (PW) + PBE
 A DFT calculation using the RI-J approximation will be carried out.
 Allocatable memory for RI due to $ricore (MB):                  5000


              +--------------------------------------------------+
              | Atomic coordinate, charge and isotop information |
              +--------------------------------------------------+

                    atomic coordinates            atom    charge  isotop
         39.18725082   24.74029453    4.00810913    c      0.000     0
         37.91546513   22.14948000    3.77378309    c      0.000     0
         35.03363278   22.26853275    4.05535228    c      0.000     0
         33.74294983   19.68527713    3.82102624    c      0.000     0
         30.85922775   19.81566823    4.07613927    c      0.000     0
         29.56287562   17.23808178    3.82858515    c      0.000     0
         26.67726382   17.37792152    4.05535228    c      0.000     0
         25.37335279   14.80600425    3.78890090    c      0.000     0
         22.48774098   14.95907207    3.99866050    c      0.000     0
         21.17249159   12.39093425    3.72653993    c      0.000     0
         18.28876951   12.55534043    3.93818926    c      0.000     0
         16.96218177    9.99287179    3.67551733    c      0.000     0
         14.08034942   10.16483687    3.90606392    c      0.000     0
         12.74809249    7.60425796    3.66417897    c      0.000     0
          9.86814987    7.77811276    3.92685090    c      0.000     0
          8.53400322    5.21564413    3.71142212    c      0.000     0
          5.65595032    5.38571948    4.00621940    c      0.000     0
          4.34070093    2.81380221    3.80590843    c      0.000     0
          2.28845835    3.00088510    4.00432968    h      0.000     0
         38.81875422   25.57933293    5.86570992    h      0.000     0
         41.23760367   24.59667535    3.76811391    h      0.000     0
         38.46915489   26.04798502    2.57191727    h      0.000     0
         38.38222749   21.31233133    1.93318983    h      0.000     0
         38.68647339   20.86635596    5.21186467    h      0.000     0
         34.56120124   23.10568143    5.89594553    h      0.000     0
         34.26073479   23.55165679    2.61538097    h      0.000     0
         34.22860944   18.84245927    1.98610217    h      0.000     0
         34.50073001   18.40782226    5.27044618    h      0.000     0
         30.37356813   20.65281691    5.91484280    h      0.000     0
         30.10333730   21.10257173    2.63238850    h      0.000     0
         30.06365305   16.39337420    1.99744052    h      0.000     0
         30.30175854   15.95495774    5.28556399    h      0.000     0
         26.17648639   18.21318047    5.89027636    h      0.000     0
         25.94216035   18.67049419    2.60593234    h      0.000     0
         25.88168912   13.96507612    1.95964600    h      0.000     0
         26.09711790   13.51532130    5.24776947    h      0.000     0
         21.97940465   15.79433102    5.83169485    h      0.000     0
         21.76586560   16.25353447    2.54546110    h      0.000     0
         21.67893820   11.55189585    1.89728504    h      0.000     0
         21.89247725   11.09647185    5.18351878    h      0.000     0
         17.78610236   13.39626856    5.76933388    h      0.000     0
         17.56878386   13.85169255    2.48310014    h      0.000     0
         17.45540029    9.14816421    1.84248298    h      0.000     0
         17.68594688    8.69651966    5.12871672    h      0.000     0
         13.59468980   11.01521363    5.73909827    h      0.000     0
         13.35280485   11.45740954    2.45286452    h      0.000     0
         13.21863430    6.75577093    1.82925490    h      0.000     0
         13.48697541    6.31168528    5.11359892    h      0.000     0
          9.40327724    8.63604843    5.76177498    h      0.000     0
          9.12359777    9.06312653    2.47743096    h      0.000     0
          8.98375804    4.35959819    1.87271860    h      0.000     0
          9.29178340    3.92874063    5.15517289    h      0.000     0
          5.21186467    6.24932432    5.84114348    h      0.000     0
          4.90005986    6.66506407    2.55868918    h      0.000     0
          4.72431533    1.92563093    1.97476381    h      0.000     0
          5.00966398    1.52500899    5.28367427    h      0.000     0
          9.39004915    8.90249981   -3.87960775    c      6.000     0
          8.09936621    6.31924419   -4.11393379    c      6.000     0
          5.21753385    6.43829693   -3.83236460    c      6.000     0
          3.94574817    3.84748241   -4.06669064    c      6.000     0
         12.27188151    8.77210871   -4.13661050    c      6.000     0
         13.57012336   11.35158488   -3.88716666    c      6.000     0
         16.45384544   11.20985542   -4.11393379    c      6.000     0
         17.75964620   13.78177269   -3.84748241    c      6.000     0
         20.64525800   13.62870487   -4.05724201    c      6.000     0
         21.95861766   16.19684268   -3.78512144    c      6.000     0
         24.84422947   16.03243651   -3.99677077    c      6.000     0
         26.16892749   18.59679487   -3.73409884    c      6.000     0
         29.05075984   18.42294007   -3.96464543    c      6.000     0
         30.38301676   20.98540871   -3.72276048    c      6.000     0
         33.26295939   20.80966418   -3.98732214    c      6.000     0
         34.59710604   23.37213281   -3.77000364    c      6.000     0
         37.47515894   23.20205746   -4.06480091    c      6.000     0
         38.79040833   25.77397473   -3.86637967    c      6.000     0
         40.84265091   25.58878157   -4.06480091    h      1.000     0
         38.12144528   27.06276795   -5.34414550    h      1.000     0
         37.91924458   22.33845262   -5.89972499    h      1.000     0
         38.23104939   21.92271287   -2.61727069    h      1.000     0
         34.14735122   24.23006848   -1.93318983    h      1.000     0
         33.83932586   24.65903631   -5.21564413    h      1.000     0
         33.72783202   19.95172851   -5.82035649    h      1.000     0
         34.00751149   19.52465040   -2.53601247    h      1.000     0
         29.91247496   21.83389574   -1.88783641    h      1.000     0
         29.64413385   22.27609165   -5.17218043    h      1.000     0
         29.53641946   17.57256331   -5.79767978    h      1.000     0
         29.78019413   17.13225712   -2.51144603    h      1.000     0
         25.67759869   19.43961273   -1.90106449    h      1.000     0
         25.44516238   19.89125727   -5.18729823    h      1.000     0
         25.34500689   15.19150838   -5.82791539    h      1.000     0
         25.56232540   14.73797411   -2.54168165    h      1.000     0
         21.45217106   17.03777081   -1.95586655    h      1.000     0
         21.24052173   17.49130509   -5.24210029    h      1.000     0
         21.15359433   12.79344592   -5.89027636    h      1.000     0
         21.36713338   12.33424247   -2.60404261    h      1.000     0
         17.24942014   14.62270082   -2.02011724    h      1.000     0
         17.03588109   15.07245564   -5.30635098    h      1.000     0
         16.95462286   10.37459647   -5.95074759    h      1.000     0
         17.18894890    9.91728275   -2.66451385    h      1.000     0
         13.06934594   12.19440274   -2.05791176    h      1.000     0
         12.82935072   12.63281920   -5.34414550    h      1.000     0
         12.75754112    7.93684976   -5.97531403    h      1.000     0
         13.02777196    7.48520521   -2.69285974    h      1.000     0
          8.90438954    9.74531767   -2.04468368    h      1.000     0
          8.57179774    5.48209551   -5.95641677    h      1.000     0
          8.87037447    5.03612014   -2.67585220    h      1.000     0
          4.75077150    7.27544561   -1.99177134    h      1.000     0
          4.44652559    7.72142098   -5.27044618    h      1.000     0
          1.89539531    3.99110159   -3.82858515    h      1.000     0
          4.31424476    3.00844400   -5.92618115    h      1.000     0
          4.66384410    2.53979192   -2.63238850    h      1.000     0
          8.63037925   10.17995468   -5.33091742    h      1.000     0
         38.40679392   26.66214601   -2.03334532    h      1.000     0
 
       center of nuclear mass  :   21.56596376   14.29404844   -0.02948066
       center of nuclear charge:   21.32759151   14.86815812   -3.93571708

              +--------------------------------------------------+
              |               basis set information              |
              +--------------------------------------------------+

              we will work with the 1s 3p 5d 7f 9g ... basis set
              ...i.e. with spherical basis functions...

   type   atoms  prim   cont   basis
   ---------------------------------------------------------------------------
    c       36     50     30   cc-pVTZ   [4s3p2d1f|18s5p2d1f]
    h       76     16     14   cc-pVTZ   [3s2p1d|5s2p1d]
   ---------------------------------------------------------------------------
   total:  112   3016   2144
   ---------------------------------------------------------------------------

   total number of primitive shells          :   34
   total number of contracted shells         :  816
   total number of cartesian basis functions : 2400
   total number of SCF-basis functions       : 2144


 integral neglect threshold       :  0.14E-13
 integral storage threshold THIZE :  0.10E-04
 integral storage threshold THIME :         5

 RI-J AUXILIARY BASIS SET information:

              we will work with the 1s 3p 5d 7f 9g ... basis set
              ...i.e. with spherical basis functions...

   type   atoms  prim   cont   basis
   ---------------------------------------------------------------------------
    c       36     70     49   cc-pVTZ   [6s4p3d1f1g|12s5p4d2f1g]
    h       76     16     11   cc-pVTZ   [3s1p1d|5s2p1d]
   ---------------------------------------------------------------------------
   total:  112   3736   2600
   ---------------------------------------------------------------------------

   total number of primitive shells          :   32
   total number of contracted shells         :  920
   total number of cartesian basis functions : 3108
   total number of SCF-basis functions       : 2600


 symmetry group of the molecule :   c1 

 the group has the following generators :
   c1(z)

    1 symmetry operations found

 there are 1 real representations :   a   

 maximum number of shells which are related by symmetry :  1


    mo occupation :
   irrep   mo's   occupied
    a     2144       73
 
 number of basis functions   :                   2144
 number of occupied orbitals :                     73
 
  
           ------------------
           density functional
           ------------------
 Dummy atoms with grid-point found.
 DFT quadrature threshold dgrenze tightened by factor 1/10.

 PBE functional
 exchange:    LDA + PBE
 correlation: LDA (PW) + PBE
 Dummy atoms with grid-point found.
 DFT quadrature threshold dgrenze tightened by factor 1/10.

 Dummy atoms with grid-point found.
 DFT quadrature threshold dgrenze tightened by factor 1/10.


 iterations will be done with small grid
  
 spherical integration : Lebedev's spherical grid
 spherical gridsize    :                     5
    i.e. gridpoints    :                   590
 value for diffuse not defined
 radial integration    : Chebyshev 2nd kind (scaling 3)
 radial gridsize       :                     8
 integration cells     :                   112
 partition function    : becke
 partition sharpness   :                     3
  
 found dummy atom(s) with basis: included in dft

 biggest AO integral is expected to be     3.593180334
  
           ------------------------
               RI-J - INFORMATION
           ------------------------
 Contributions to RI integral batches: 
  neglected integral batches:                215087
  direct contribution:                        71045
  memory contribution:                 47204
 Memory core needed for (P|Q) and Cholesky     52 MByte
 Memory core minimum needed except of (P|Q)     3 MByte
 Total minimum memory core needed (sum)        55 MByte
  
 ****************************************
 Memory allocated for RI-J  3260 MByte
 ****************************************
                                            

          ------------------------
          nuclear repulsion energy  :   1177.21181332    
          ------------------------


         -----------------
         -S,T+V- integrals
         -----------------

 1e-integrals will be neglected if expon. factor < 0.139248E-14
 
   Difference densities algorithm switched on.
   The maximal number of linear combinations of
   difference densities is                    20 .

 DIIS switched on: error vector is FDS-SDF
 Max. Iterations for DIIS is     :   4
 DIIS matrix (see manual) 
    Scaling factor of diagonals  :  1.200
    threshold for scaling factor :  0.000

 scf convergence criterion : increment of total energy < .1000000D-08
                  and increment of one-electron energy < .1000000D-05

  MOs are in ASCII format !


 automatic virtual orbital shift switched on 
      shift if e(lumo)-e(homo) < 0.10000000    


 reading orbital data $scfmo  from file mos
 orbital characterization : expanded
 mo provided and orthogonalized by Cholesky decomposition

 DSCF restart information will be dumped onto file mos


 Starting SCF iterations

          Overall gridpoints after grid construction =        544065

 ITERATION  ENERGY          1e-ENERGY        2e-ENERGY     RMS[dD(SAO)]   TOL
   1  -705.84865346707    -3260.8332715     1377.7728047    0.000D+00 0.139D-13
                            Exc = -107.574888139     Coul =  1485.34769283    
                              N = 145.99880172    
                            current damping = 0.700
 
          max. resid. norm for Fia-block=  2.320D-01 for orbital     32a         
          max. resid. fock norm         =  1.134D+01 for orbital   2091a         

 ITERATION  ENERGY          1e-ENERGY        2e-ENERGY     RMS[dD(SAO)]   TOL
   2  -707.57330497662    -3280.0405299     1395.2554116    0.688D-03 0.894D-14
                            Exc = -109.597172710     Coul =  1504.85258434    
                              N = 145.99907357    
                            current damping = 0.650
 
          Norm of current diis error:  3.2094    
          max. resid. norm for Fia-block=  1.004D-01 for orbital     22a         
          max. resid. fock norm         =  1.170D-01 for orbital     21a         

 ITERATION  ENERGY          1e-ENERGY        2e-ENERGY     RMS[dD(SAO)]   TOL
   3  -707.92549193482    -3283.8682175     1398.7309122    0.407D-03 0.686D-14
                            Exc = -110.217541024     Coul =  1508.94845324    
                              N = 145.99923851    
                            current damping = 0.550
 
          Norm of current diis error:  1.5623    
          max. resid. norm for Fia-block=  4.624D-02 for orbital     32a         
          max. resid. fock norm         =  5.020D-02 for orbital     21a         

 ITERATION  ENERGY          1e-ENERGY        2e-ENERGY     RMS[dD(SAO)]   TOL
   4  -708.02674557431    -3287.8477264     1402.6091675    0.219D-03 0.591D-14
                            Exc = -110.699225545     Coul =  1513.30839307    
                              N = 145.99936219    
                            current damping = 0.450
 
          Norm of current diis error: 0.57319    
          max. resid. norm for Fia-block=  1.777D-02 for orbital     32a         
          max. resid. fock norm         =  1.931D-02 for orbital     21a         

 ITERATION  ENERGY          1e-ENERGY        2e-ENERGY     RMS[dD(SAO)]   TOL
   5  -708.04276861502    -3288.5253505     1403.2707686    0.114D-03 0.535D-14
                            Exc = -110.836798348     Coul =  1514.10756692    
                              N = 145.99941372    
                            current damping = 0.350
 
          Norm of current diis error: 0.21191    
          max. resid. norm for Fia-block=  6.620D-03 for orbital     32a         
          max. resid. fock norm         =  6.723D-03 for orbital     32a         
          mo-orthogonalization: Cholesky decomposition

 ITERATION  ENERGY          1e-ENERGY        2e-ENERGY     RMS[dD(SAO)]   TOL
   6  -708.04500327923    -3289.3709547     1404.1141381    0.450D-04 0.509D-14
                            Exc = -110.928012503     Coul =  1515.04215056    
                              N = 145.99943656    
                            current damping = 0.250
 
          Norm of current diis error: 0.60086E-01
          max. resid. norm for Fia-block=  1.772D-03 for orbital     67a         
          max. resid. fock norm         =  2.526D-03 for orbital    950a         

 ITERATION  ENERGY          1e-ENERGY        2e-ENERGY     RMS[dD(SAO)]   TOL
   7  -708.04514937566    -3289.1788165     1403.9218538    0.178D-04 0.497D-14
                            Exc = -110.923256931     Coul =  1514.84511073    
                              N = 145.99943972    
                            current damping = 0.300
 
          Norm of current diis error: 0.33502E-01
          max. resid. norm for Fia-block=  6.197D-04 for orbital     34a         
          max. resid. fock norm         =  1.060D-03 for orbital      7a         

 ITERATION  ENERGY          1e-ENERGY        2e-ENERGY     RMS[dD(SAO)]   TOL
   8  -708.04518795864    -3289.2699274     1404.0129261    0.425D-05 0.493D-14
                            Exc = -110.931354871     Coul =  1514.94428096    
                              N = 145.99944139    
                            current damping = 0.350
 
          Norm of current diis error: 0.69860E-02
          max. resid. norm for Fia-block=  1.997D-04 for orbital     33a         
          max. resid. fock norm         =  2.682D-04 for orbital   2119a         

 ITERATION  ENERGY          1e-ENERGY        2e-ENERGY     RMS[dD(SAO)]   TOL
   9  -708.04518937626    -3289.3112891     1404.0542864    0.118D-05 0.491D-14
                            Exc = -110.934602741     Coul =  1514.98888910    
                              N = 145.99944185    
                            current damping = 0.200
 
          Norm of current diis error: 0.33504E-02
          max. resid. norm for Fia-block=  5.814D-05 for orbital     65a         
          max. resid. fock norm         =  9.885D-05 for orbital   2119a         

 ITERATION  ENERGY          1e-ENERGY        2e-ENERGY     RMS[dD(SAO)]   TOL
  10  -708.04518975824    -3289.3012187     1404.0442156    0.494D-06 0.489D-14
                            Exc = -110.933978042     Coul =  1514.97819364    
                              N = 145.99944183    
                            current damping = 0.250
 
          Norm of current diis error: 0.45612E-03
          max. resid. norm for Fia-block=  1.563D-05 for orbital     73a         
          max. resid. fock norm         =  4.732D-05 for orbital     12a         
          mo-orthogonalization: Cholesky decomposition

 ITERATION  ENERGY          1e-ENERGY        2e-ENERGY     RMS[dD(SAO)]   TOL
  11  -708.04518975968    -3289.2996858     1404.0426827    0.111D-06 0.486D-14
                            Exc = -110.933882689     Coul =  1514.97656542    
                              N = 145.99944183    
                            current damping = 0.100
 
          Norm of current diis error: 0.41701E-03
          max. resid. norm for Fia-block=  6.847D-06 for orbital     73a         
          max. resid. fock norm         =  1.886D-05 for orbital     12a         

 DENSITY CONVERGED !


 ITERATION  ENERGY          1e-ENERGY        2e-ENERGY     RMS[dD(SAO)]   TOL
  12  -708.04518976524    -3289.3000257     1404.0430226    0.510D-07 0.485D-14
                            Exc = -110.933908445     Coul =  1514.97693102    
                              N = 145.99944183    
                            current damping = 0.150
 
          Norm of current diis error: 0.73947E-04
          max. resid. norm for Fia-block=  1.813D-06 for orbital     67a         
          max. resid. fock norm         =  3.750D-06 for orbital      5a         

 DENSITY CONVERGED !


 ITERATION  ENERGY          1e-ENERGY        2e-ENERGY     RMS[dD(SAO)]   TOL
  13  -708.04518976540    -3289.3004505     1404.0434474    0.145D-07 0.484D-14
                            Exc = -110.933938941     Coul =  1514.97738633    
                              N = 145.99944184    
                            current damping = 0.050
 
          Norm of current diis error: 0.53238E-04
          max. resid. norm for Fia-block=  7.418D-07 for orbital     67a         
          max. resid. fock norm         =  1.632D-06 for orbital      5a         

 DENSITY CONVERGED !


 ITERATION  ENERGY          1e-ENERGY        2e-ENERGY     RMS[dD(SAO)]   TOL
  14  -708.04518976543    -3289.3002576     1404.0432545    0.689D-08 0.483D-14
                            Exc = -110.933924400     Coul =  1514.97717891    
                              N = 145.99944184    
                            current damping = 0.100
 
          Norm of current diis error: 0.41926E-05
          max. resid. norm for Fia-block=  9.893D-08 for orbital     73a         
          max. resid. fock norm         =  2.488D-07 for orbital      6a         

 ENERGY & DENSITY CONVERGED !

          Overall gridpoints after grid construction =       1578835

 ITERATION  ENERGY          1e-ENERGY        2e-ENERGY     RMS[dD(SAO)]   TOL
  15  -708.04527369172    -3289.3002634     1404.0431764    0.718D-09 0.481D-14
                            Exc = -110.934009017     Coul =  1514.97718538    
                              N = 146.00017146    
                            current damping = 0.150
 
          Norm of current diis error: 0.30014E-05
          max. resid. norm for Fia-block=  5.639D-08 for orbital     73a         
          max. resid. fock norm         =  1.549D-07 for orbital     10a         

 End of SCF iterations

   convergence criteria satisfied after   15 iterations


                  ------------------------------------------ 
                 |  total energy      =   -708.04527369172  |
                  ------------------------------------------ 
                 :  kinetic energy    =    702.90168487979  :
                 :  potential energy  =  -1410.94695857151  :
                 :  virial theorem    =      1.99273550859  :
                 :  wavefunction norm =      1.00000000000  :
                  .......................................... 


 <geterg> : there is no data group $energy 


 orbitals $scfmo  will be written to file mos

    irrep                 69a         70a         71a         72a         73a   
 eigenvalues H         -0.27621    -0.27529    -0.27518    -0.26586    -0.24842
            eV          -7.5161     -7.4911     -7.4881     -7.2345     -6.7598
 occupation              2.0000      2.0000      2.0000      2.0000      2.0000 

    irrep                 74a         75a         76a         77a         78a   
 eigenvalues H         -0.00829    -0.00362     0.00371     0.01299     0.02359
            eV          -0.2255     -0.0984      0.1010      0.3535      0.6420
 
 
 
 
 ==============================================================================
                           electrostatic moments
 ==============================================================================

 reference point for electrostatic moments:    0.00000   0.00000   0.00000

 
              nuc           elec       ->  total
 ------------------------------------------------------------------------------
                          charge      
 ------------------------------------------------------------------------------
         146.000000    -146.000000      -0.000000
 
 ------------------------------------------------------------------------------
                       dipole moment  
 ------------------------------------------------------------------------------
   x    3113.828361   -3113.829788      -0.001427
   y    2170.751086   -2170.748896       0.002189
   z    -574.614694     574.600835      -0.013859
 
   | dipole moment | =     0.0141 a.u. =     0.0358 debye 
 
 ------------------------------------------------------------------------------
                     quadrupole moment
 ------------------------------------------------------------------------------
  xx   84127.374039  -84220.832209     -93.458170
  yy   38490.441307  -38584.554420     -94.113112
  zz    2364.375663   -2453.906730     -89.531068
  xy   56544.837568  -56545.951817      -1.114249
  xz  -12192.470218   12192.336065      -0.134153
  yz   -8486.740573    8486.003936      -0.736637
 
     1/3  trace=     -92.367450
     anisotropy=       4.881563
 
 ==============================================================================
 


    ------------------------------------------------------------------------
         total  cpu-time : 39 minutes and 54 seconds
         total wall-time : 42 minutes and 19 seconds
    ------------------------------------------------------------------------

   ****  ridft : all done  ****


    2018-02-07 23:46:36.966 

