 this is node-proc. number 0 running on node c-17-4.gp.local
 the total number of node-proc. spawned is  33

 dscfserver (c-17-4.gp.local) : TURBOMOLE V7.2 ( 21471 ) 7 Nov 2017 at 16:15:16
 Copyright (C) 2017 TURBOMOLE GmbH, Karlsruhe


    2018-02-28 23:08:05.003 

 
    0:02:41 ---- Start global counter...
    2:15:20 ---- ... finished.
 
    2:17:39 ---- Start global counter...
    4:23:34 ---- ... finished.
 
    4:25:52 ---- Start global counter...
    6:30:09 ---- ... finished.
 
    6:32:29 ---- Start global counter...
    8:28:33 ---- ... finished.
 
    8:30:54 ---- Start global counter...
   10:19:37 ---- ... finished.
 
   10:22:46 ---- Start global counter...
   12:00:18 ---- ... finished.
 
   12:02:45 ---- Start global counter...
   13:33:11 ---- ... finished.
 
   13:35:42 ---- Start global counter...
   14:57:45 ---- ... finished.
 
   15:00:16 ---- Start global counter...
   16:13:55 ---- ... finished.
 
   16:16:20 ---- Start global counter...
   17:23:42 ---- ... finished.
 
   17:26:52 ---- Start global counter...
   18:25:56 ---- ... finished.
 
   18:28:24 ---- Start global counter...
   19:22:04 ---- ... finished.
 
   19:24:25 ---- Start global counter...
   20:09:20 ---- ... finished.
 
   20:11:40 ---- Start global counter...
   20:52:19 ---- ... finished.
 
   20:54:41 ---- Start global counter...
   21:28:39 ---- ... finished.
 
   21:31:45 ---- Start global counter...
   22:09:27 ---- ... finished.
 
   22:12:38 ---- Start global counter...
   22:53:46 ---- ... finished.
 
   22:56:16 ---- Start global counter...
   23:35:33 ---- ... finished.
 
   23:37:28 ---- ByeBye Tag received


 ! Total wall-clock time in seconds  :    85047.7
 ! Time (sec) spent in global counter:    82142.7
 ! So-called SERIAL wall-clock time  :     2905.0

  *** Regular termination of server ***
 total turnaround time of dscfserver 85049.13 sec
 cpu elapsed by dscfserver process   82124.58 sec 

   ***  dscf server : all done  ***


    2018-03-01 22:45:34.136 

