
   OpenMP run-time library returned nthreads = 28
 operating system is UNIX !

 dscf (c-13-37) : TURBOMOLE V7.3 ( 22142 ) 4 Jul 2018 at 18:12:42
 Copyright (C) 2018 TURBOMOLE GmbH, Karlsruhe


    2019-04-01 21:36:38.404 



                             d s c f - program

                   idea & directorship : reinhart ahlrichs
                   program development : marco haeser
                                         michael baer
                           dft version : oliver treutler


                          quantum chemistry group
                          universitaet  karlsruhe
                                  germany




                          References             
                                                 
          TURBOMOLE:                             
              R. Ahlrichs, M. Baer, M. Haeser, H. Horn, and
              C. Koelmel
              Electronic structure calculations on workstation
              computers: the program system TURBOMOLE
              Chem. Phys. Lett. 162: 165 (1989)
          Density Functional:                              
              O. Treutler and R. Ahlrichs                      
              Efficient Molecular Numerical Integration Schemes
              J. Chem. Phys. 102: 346 (1995)                   
          Parallel Version:                                
              Performance of parallel TURBOMOLE for Density    
              Functional Calculations                          
              M. v. Arnim and R. Ahlrichs                      
              J. Comp. Chem. 19: 1746 (1998)                   
                                         




              +--------------------------------------------------+
              | Atomic coordinate, charge and isotop information |
              +--------------------------------------------------+

                    atomic coordinates            atom    charge  isotop
          4.22160315    0.19498685    0.01106185    n      7.000     0
          4.77976103   -0.84934757   -1.49087521    h      1.000     0
          4.80757036   -0.77013614    1.55470258    h      1.000     0
          5.46756625    2.66743643   -0.06498382    c      6.000     0
          4.88072612    3.76673729    1.56871356    h      1.000     0
          7.52984193    2.59317969   -0.08190758    h      1.000     0
          4.85016953    3.68017368   -1.74272768    h      1.000     0
 
       center of nuclear mass  :    4.88975472    1.39282112   -0.02637722
       center of nuclear charge:    4.95581603    1.43278519   -0.02803135

              +--------------------------------------------------+
              |               basis set information              |
              +--------------------------------------------------+

              we will work with the 1s 3p 5d 7f 9g ... basis set
              ...i.e. with spherical basis functions...

   type   atoms  prim   cont   basis
   ---------------------------------------------------------------------------
    n        1     77     55   cc-pVQZ   [5s4p3d2f1g|21s6p3d2f1g]
    h        5     32     30   cc-pVQZ   [4s3p2d1f|6s3p2d1f]
    c        1     77     55   cc-pVQZ   [5s4p3d2f1g|21s6p3d2f1g]
   ---------------------------------------------------------------------------
   total:    7    314    260
   ---------------------------------------------------------------------------

   total number of primitive shells          :   78
   total number of contracted shells         :   80
   total number of cartesian basis functions :  315
   total number of SCF-basis functions       :  260


 integral neglect threshold       :  0.11E-12
 integral storage threshold THIZE :  0.10E-04
 integral storage threshold THIME :         5


 DENSITY CONVERGENCE CHECK SWITCHED ON !
 SCF CONVERGENCE IF RMS(delta[D]) <     0.1000000000E-06


 symmetry group of the molecule :   c1 

 the group has the following generators :
   c1(z)

    1 symmetry operations found

 there are 1 real representations :   a   

 maximum number of shells which are related by symmetry :  1


    mo occupation :
   irrep   mo's   occupied
    a      260        9
 
 number of basis functions   :                    260
 number of occupied orbitals :                      9
 

 automatic virtual orbital shift switched on 
      shift if e(lumo)-e(homo) < 0.10000000    


          ------------------------
          nuclear repulsion energy  :   42.0626757217    
          ------------------------


         -----------------
         -S,T+V- integrals
         -----------------

 1e-integrals will be neglected if expon. factor < 0.106094E-13
 
   Difference densities algorithm switched on.
   The maximal number of linear combinations of
   difference densities is                    20 .

 DIIS switched on: error vector is FDS-SDF
 Max. Iterations for DIIS is     :   5
 DIIS matrix (see manual) 
    Scaling factor of diagonals  :  1.200
    threshold for scaling factor :  0.000

 scf convergence criterion : increment of total energy < .1000000D-08
                  and increment of one-electron energy < .1000000D-05

  MOs are in ASCII format !


 reading orbital data $scfmo  from file mos
 orbital characterization : scfconv=9

 DSCF restart information will be dumped onto file mos

 
                                              current damping :  0.700
 ITERATION  ENERGY          1e-ENERGY        2e-ENERGY     RMS[dD(SAO)]   TOL
   1  -95.241509749013    -211.70251057     74.398325104    0.000D+00 0.106D-12
          max. resid. norm for Fia-block=  1.105D-01 for orbital      1a         
          max. resid. fock norm         =  2.547D-01 for orbital    259a         
          Delta Eig. =    26.0530162546 eV 
 
                                              current damping :  0.650
 ITERATION  ENERGY          1e-ENERGY        2e-ENERGY     RMS[dD(SAO)]   TOL
   2  -95.256897641384    -211.47769037     74.158117009    0.971D-03 0.683D-13
          Norm of current diis error: 0.37669    
          max. resid. norm for Fia-block=  5.179D-02 for orbital      1a         
          max. resid. fock norm         =  9.249D-02 for orbital    260a         
          Delta Eig. =    11.1610154869 eV 
 
                                              current damping :  0.600
 ITERATION  ENERGY          1e-ENERGY        2e-ENERGY     RMS[dD(SAO)]   TOL
   3  -95.259957020827    -211.53884655     74.216213812    0.491D-03 0.509D-13
          Norm of current diis error: 0.16653    
          max. resid. norm for Fia-block=  2.124D-02 for orbital      1a         
          max. resid. fock norm         =  3.789D-02 for orbital    259a         
          Delta Eig. =     4.4837230803 eV 
 
                                              current damping :  0.650
 ITERATION  ENERGY          1e-ENERGY        2e-ENERGY     RMS[dD(SAO)]   TOL
   4  -95.260573477971    -211.51710607     74.193856867    0.210D-03 0.448D-13
          Norm of current diis error: 0.65650E-01
          max. resid. norm for Fia-block=  8.103D-03 for orbital      1a         
          max. resid. fock norm         =  1.383D-02 for orbital    259a         
          Delta Eig. =     1.6182033074 eV 
 
                                              current damping :  0.500
 ITERATION  ENERGY          1e-ENERGY        2e-ENERGY     RMS[dD(SAO)]   TOL
   5  -95.260671942322    -211.51553469     74.192187028    0.845D-04 0.413D-13
          Norm of current diis error: 0.27765E-01
          max. resid. norm for Fia-block=  3.166D-03 for orbital      1a         
          max. resid. fock norm         =  5.459D-03 for orbital    260a         
 mo-orthogonalization: Cholesky decomposition
          Delta Eig. =     0.7009285494 eV 
 
                                              current damping :  0.350
 ITERATION  ENERGY          1e-ENERGY        2e-ENERGY     RMS[dD(SAO)]   TOL
   6  -95.260691269217    -211.51401736     74.190650368    0.394D-04 0.383D-13
          Norm of current diis error: 0.10279E-01
          max. resid. norm for Fia-block=  1.044D-03 for orbital      1a         
          max. resid. fock norm         =  1.819D-03 for orbital    260a         
          Delta Eig. =     0.2596451622 eV 
 
                                              current damping :  0.200
 ITERATION  ENERGY          1e-ENERGY        2e-ENERGY     RMS[dD(SAO)]   TOL
   7  -95.260694290262    -211.51339934     74.190029332    0.166D-04 0.354D-13
          Norm of current diis error: 0.32302E-02
          max. resid. norm for Fia-block=  2.888D-04 for orbital      7a         
          max. resid. fock norm         =  4.720D-04 for orbital    260a         
          Delta Eig. =     0.0757019462 eV 
 
                                              current damping :  0.050
 ITERATION  ENERGY          1e-ENERGY        2e-ENERGY     RMS[dD(SAO)]   TOL
   8  -95.260694652346    -211.51323724     74.189866867    0.615D-05 0.329D-13
          Norm of current diis error: 0.85440E-03
          max. resid. norm for Fia-block=  7.579D-05 for orbital      5a         
          max. resid. fock norm         =  8.040D-05 for orbital    260a         
          Delta Eig. =     0.0146001073 eV 
 
                                              current damping :  0.050
 ITERATION  ENERGY          1e-ENERGY        2e-ENERGY     RMS[dD(SAO)]   TOL
   9  -95.260694686639    -211.51313526     74.189764848    0.202D-05 0.307D-13
          Norm of current diis error: 0.19504E-03
          max. resid. norm for Fia-block=  2.294D-05 for orbital      9a         
          max. resid. fock norm         =  2.320D-05 for orbital      9a         
          Delta Eig. =     0.0007665308 eV 
 
                                              current damping :  0.050
 ITERATION  ENERGY          1e-ENERGY        2e-ENERGY     RMS[dD(SAO)]   TOL
  10  -95.260694689080    -211.51313450     74.189764087    0.539D-06 0.292D-13
          Norm of current diis error: 0.53012E-04
          max. resid. norm for Fia-block=  7.783D-06 for orbital      9a         
          max. resid. fock norm         =  7.902D-06 for orbital      9a         
 mo-orthogonalization: Cholesky decomposition
          Delta Eig. =     0.0000814736 eV 
 
                                              current damping :  0.050
 ITERATION  ENERGY          1e-ENERGY        2e-ENERGY     RMS[dD(SAO)]   TOL
  11  -95.260694689290    -211.51312072     74.189750308    0.164D-06 0.302D-13
          Norm of current diis error: 0.13899E-04
          max. resid. norm for Fia-block=  2.388D-06 for orbital      9a         
          max. resid. fock norm         =  2.431D-06 for orbital      9a         
          Delta Eig. =     0.0000476043 eV 

 DENSITY CONVERGED !

 
                                              current damping :  0.100
 ITERATION  ENERGY          1e-ENERGY        2e-ENERGY     RMS[dD(SAO)]   TOL
  12  -95.260694689306    -211.51312671     74.189756299    0.417D-07 0.303D-13
          Norm of current diis error: 0.45064E-05
          max. resid. norm for Fia-block=  6.218D-07 for orbital      9a         
          max. resid. fock norm         =  6.330D-07 for orbital      9a         
          Delta Eig. =     0.0000207433 eV 

 ENERGY & DENSITY CONVERGED !

 
                                              current damping :  0.150
 ITERATION  ENERGY          1e-ENERGY        2e-ENERGY     RMS[dD(SAO)]   TOL
  13  -95.260694689308    -211.51312372     74.189753308    0.921D-08 0.301D-13
          max. resid. norm for Fia-block=  1.901D-07 for orbital      9a         
          max. resid. fock norm         =  1.957D-07 for orbital      9a         

 convergence criteria satisfied after    13 iterations


                  ------------------------------------------ 
                 |  total energy      =    -95.26069468931  |
                  ------------------------------------------ 
                 :  kinetic energy    =     95.17161953970  :
                 :  potential energy  =   -190.43231422901  :
                 :  virial theorem    =      1.99906493282  :
                 :  wavefunction norm =      1.00000000000  :
                  .......................................... 


 orbitals $scfmo  will be written to file mos

    irrep                  5a          6a          7a          8a          9a   
 eigenvalues H         -0.66030    -0.60327    -0.55477    -0.51673    -0.39303
            eV         -17.9678    -16.4160    -15.0962    -14.0609    -10.6948
 occupation              2.0000      2.0000      2.0000      2.0000      2.0000 

    irrep                 10a         11a         12a         13a         14a   
 eigenvalues H          0.11172     0.14883     0.16644     0.19165     0.21002
            eV           3.0400      4.0500      4.5292      5.2151      5.7151
 
 
 
 
 ==============================================================================
                           electrostatic moments
 ==============================================================================

 reference point for electrostatic moments:    0.00000   0.00000   0.00000

 
              nuc           elec       ->  total
 ------------------------------------------------------------------------------
                          charge      
 ------------------------------------------------------------------------------
          18.000000     -18.000000      -0.000000
 
 ------------------------------------------------------------------------------
                       dipole moment  
 ------------------------------------------------------------------------------
   x      89.204689     -88.647979       0.556710
   y      25.790134     -25.876114      -0.085980
   z      -0.504564       0.501677      -0.002887
 
   | dipole moment | =     0.5633 a.u. =     1.4318 debye 
 
 ------------------------------------------------------------------------------
                     quadrupole moment
 ------------------------------------------------------------------------------
  xx     454.122216    -460.884063      -6.761847
  yy      78.728512     -88.474057      -9.745545
  zz      10.170674     -19.533144      -9.362471
  xy     141.266363    -141.725773      -0.459410
  xz      -2.869429       2.888007       0.018579
  yz      -1.673014       1.682350       0.009336
 
     1/3  trace=      -8.623288
     anisotropy=       2.922446
 
 ==============================================================================
 


    ------------------------------------------------------------------------
         total  cpu-time :  9 minutes and 26 seconds
         total wall-time :  1 minutes and  7 seconds
    ------------------------------------------------------------------------

   ****  dscf : all done  ****


    2019-04-01 21:37:45.310 

