 operating system is UNIX !

 ridft (c-9-373.gp.local) : TURBOMOLE V7.2 ( 21454 ) 4 Oct 2017 at 12:48:15
 Copyright (C) 2017 TURBOMOLE GmbH, Karlsruhe


    2018-05-18 15:36:34.002 



                                  r i d f t

                        DFT program with RI approximation 
                                for coulomb part 




                                                 
                                 References:     
                                                 
          TURBOMOLE:                             
              R. Ahlrichs, M. Baer, M. Haeser, H. Horn, and
              C. Koelmel
              Electronic structure calculations on workstation
              computers: the program system TURBOMOLE
              Chem. Phys. Lett. 162: 165 (1989)
          Density Functional:                              
              O. Treutler and R. Ahlrichs                      
              Efficient Molecular Numerical Integration Schemes
              J. Chem. Phys. 102: 346 (1995)                   
          Parallel Version:                                
              Performance of parallel TURBOMOLE for Density    
              Functional Calculations                          
              M. v. Arnim and R. Ahlrichs                      
              J. Comp. Chem. 19: 1746 (1998)                   
          RI-J Method:                                     
              Auxiliary Basis Sets to approximate Coulomb      
              Potentials                                       
              Chem. Phys. Lett. 240: 283 (1995)                
              K. Eichkorn, O. Treutler, H. Oehm, M. Haeser     
              and R. Ahlrichs                                  
              Chem. Phys. Lett. 242: 652 (1995)                
                                                           
              Auxiliary Basis Sets for Main Row Atoms and their
              Use to approximate Coulomb Potentials            
              K. Eichkorn, F. Weigend, O. Treutler and         
              R. Ahlrichs                                      
              Theo. Chem. Acc. 97: 119 (1997)                   
                                                           
              Accurate Coulomb-fitting basis sets for H to Rn 
              F. Weigend                                        
              Phys. Chem. Chem. Phys. 8: 1057 (2006)            
                                                           
          Multipole accelerated RI-J (MARI-J):             
              Fast evaluation of the Coulomb potential for     
              electron densities using multipole accelerated   
              resolution of identity approximation             
              M. Sierka, A. Hogekamp and R. Ahlrichs           
              J. Chem. Phys. 118: 9136 (2003)                  
          RI-JK Method:                                     
              A fully direct RI-HF algorithm: Implementation,
              optimised auxiliary basis sets, demonstration of
              accuracy and efficiency                         
              F. Weigend                                      
              Phys. Chem. Chem. Phys. 4: 4285 (2002)           
          Two-component HF and DFT with spin-orbit coupling:  
              Self-consistent treatment of spin-orbit         
              interactions with efficient Hartree-Fock and    
              density functional methods                      
              M. K. Armbruster, F. Weigend, C. van Wüllen and 
              W. Klopper                                      
              Phys. Chem. Chem. Phys. 10: 1748 (2008)         
          Relativistic all-electron 2c calculations           
              An efficient implementation of two-component    
              relativistic exact-decoupling methods for large 
              molecules                                       
              D. Peng, N. Middendorf, F. Weigend, M. Reiher   
              J. Chem. Phys. 138, 184105 (2013)               
                                         




              +--------------------------------------------------+
              |      general information about current run       |
              +--------------------------------------------------+

 
 PBE functional
 exchange:    LDA + PBE
 correlation: LDA (PW) + PBE
 A DFT calculation using the RI-J approximation will be carried out.
 Allocatable memory for RI due to $ricore (MB):                   500


              +--------------------------------------------------+
              | Atomic coordinate, charge and isotop information |
              +--------------------------------------------------+

                    atomic coordinates            atom    charge  isotop
          4.78772944    0.55750952    8.52852274    c      6.000     0
          4.85308465    1.69097991    6.81014649    h      1.000     0
          4.84537235    1.84858284   10.13241801    h      1.000     0
          6.48976928   -0.59805292    8.58560936    h      1.000     0
          2.40322350   -1.05232412    8.60279701    c      6.000     0
          2.39293637   -2.20454251   10.31582801    h      1.000     0
          2.40108714   -2.37391117    7.01621874    h      1.000     0
         -0.00008294    0.52767420    8.51659443    c      6.000     0
         -0.00037571    1.85484772   10.10204532    h      1.000     0
          0.00006237    1.67809491    6.79870179    h      1.000     0
         -2.40336263   -1.05240515    8.60214524    c      6.000     0
         -2.39319167   -2.20534492   10.31470974    h      1.000     0
         -2.40127195   -2.37336698    7.01503295    h      1.000     0
         -4.78766643    0.55772903    8.52848805    c      6.000     0
         -4.85228241    1.69257319    6.81095989    h      1.000     0
         -6.48993547   -0.59745745    8.58425988    h      1.000     0
         -4.84537779    1.84763008   10.13335949    h      1.000     0
 
       center of nuclear mass  :   -0.00002819   -0.07324658    8.55502182
       center of nuclear charge:   -0.00002565   -0.05978253    8.55453749

              +--------------------------------------------------+
              |               basis set information              |
              +--------------------------------------------------+

              we will work with the 1s 3p 5d 7f 9g ... basis set
              ...i.e. with spherical basis functions...

   type   atoms  prim   cont   basis
   ---------------------------------------------------------------------------
    c        5     77     57   def2-QZVP   [7s4p3d2f1g|15s8p3d2f1g]
    h       12     33     30   def2-QZVP   [4s3p2d1f|7s3p2d1f]
   ---------------------------------------------------------------------------
   total:   17    781    645
   ---------------------------------------------------------------------------

   total number of primitive shells          :   42
   total number of contracted shells         :  205
   total number of cartesian basis functions :  780
   total number of SCF-basis functions       :  645


 integral neglect threshold       :  0.43E-13
 integral storage threshold THIZE :  0.10E-04
 integral storage threshold THIME :         5

 RI-J AUXILIARY BASIS SET information:

              we will work with the 1s 3p 5d 7f 9g ... basis set
              ...i.e. with spherical basis functions...

   type   atoms  prim   cont   basis
   ---------------------------------------------------------------------------
    c        5     70     49   def2-QZVP   [6s4p3d1f1g|12s5p4d2f1g]
    h       12     16     11   def2-QZVP   [3s1p1d|5s2p1d]
   ---------------------------------------------------------------------------
   total:   17    542    377
   ---------------------------------------------------------------------------

   total number of primitive shells          :   32
   total number of contracted shells         :  135
   total number of cartesian basis functions :  449
   total number of SCF-basis functions       :  377


 symmetry group of the molecule :   c1 

 the group has the following generators :
   c1(z)

    1 symmetry operations found

 there are 1 real representations :   a   

 maximum number of shells which are related by symmetry :  1


    mo occupation :
   irrep   mo's   occupied
    a      645       21
 
 number of basis functions   :                    645
 number of occupied orbitals :                     21
 
  
           ------------------
           density functional
           ------------------
 PBE functional
 exchange:    LDA + PBE
 correlation: LDA (PW) + PBE

 iterations will be done with small grid
  
 spherical integration : Lebedev's spherical grid
 spherical gridsize    :                     5
    i.e. gridpoints    :                   590
 value for diffuse not defined
 radial integration    : Chebyshev 2nd kind (scaling 3)
 radial gridsize       :                     8
 integration cells     :                    17
 partition function    : becke
 partition sharpness   :                     3
  

 biggest AO integral is expected to be     5.262544080
  
           ------------------------
               RI-J - INFORMATION
           ------------------------
 Contributions to RI integral batches: 
  neglected integral batches:                  3295
  direct contribution:                         4969
  memory contribution:                 12851
 Memory core needed for (P|Q) and Cholesky      2 MByte
 Memory core minimum needed except of (P|Q)     2 MByte
 Total minimum memory core needed (sum)         3 MByte
  
 ****************************************
 Memory allocated for RI-J   490 MByte
 ****************************************
                                            

          ------------------------
          nuclear repulsion energy  :   185.635585464    
          ------------------------


         -----------------
         -S,T+V- integrals
         -----------------

 1e-integrals will be neglected if expon. factor < 0.428457E-14
 
   Difference densities algorithm switched on.
   The maximal number of linear combinations of
   difference densities is                    20 .

 DIIS switched on: error vector is FDS-SDF
 Max. Iterations for DIIS is     :   4
 DIIS matrix (see manual) 
    Scaling factor of diagonals  :  1.200
    threshold for scaling factor :  0.000

 scf convergence criterion : increment of total energy < .1000000D-08
                  and increment of one-electron energy < .1000000D-05

  MOs are in ASCII format !


 automatic virtual orbital shift switched on 
      shift if e(lumo)-e(homo) < 0.10000000    


 reading orbital data $scfmo  from file mos
 orbital characterization : expanded
 mo provided and orthogonalized by Cholesky decomposition

 DSCF restart information will be dumped onto file mos


 Starting SCF iterations

          Overall gridpoints after grid construction =         73068

 ITERATION  ENERGY          1e-ENERGY        2e-ENERGY     NORM[dD(SAO)]  TOL
   1  -196.86514455377    -623.37363074     240.87290072    0.000D+00 0.427D-13
                            Exc = -30.3007828838     Coul =  271.173683602    
                              N = 42.000278061    
                            current damping = 0.700
 
          max. resid. norm for Fia-block=  4.494D-01 for orbital      6a         
          max. resid. fock norm         =  3.979D+01 for orbital    591a         

 ITERATION  ENERGY          1e-ENERGY        2e-ENERGY     NORM[dD(SAO)]  TOL
   2  -197.41672394381    -629.08524497     246.03293556    0.109D+01 0.325D-13
                            Exc = -30.9508301048     Coul =  276.983765666    
                              N = 42.000228887    
                            current damping = 0.650
 
          Norm of current diis error:  2.6064    
          max. resid. norm for Fia-block=  1.018D-01 for orbital      3a         
          max. resid. fock norm         =  1.172D-01 for orbital      6a         

 ITERATION  ENERGY          1e-ENERGY        2e-ENERGY     NORM[dD(SAO)]  TOL
   3  -197.52300304510    -630.15540409     246.99681558    0.326D+00 0.221D-13
                            Exc = -31.1453293765     Coul =  278.142144955    
                              N = 42.000201121    
                            current damping = 0.550
 
          Norm of current diis error:  1.2311    
          max. resid. norm for Fia-block=  4.457D-02 for orbital     10a         
          max. resid. fock norm         =  4.971D-02 for orbital      6a         

 ITERATION  ENERGY          1e-ENERGY        2e-ENERGY     NORM[dD(SAO)]  TOL
   4  -197.55312306178    -631.36931130     248.18060278    0.120D+00 0.178D-13
                            Exc = -31.3014660649     Coul =  279.482068841    
                              N = 42.000183199    
                            current damping = 0.450
 
          Norm of current diis error: 0.43736    
          max. resid. norm for Fia-block=  1.680D-02 for orbital      6a         
          max. resid. fock norm         =  1.925D-02 for orbital      6a         

 ITERATION  ENERGY          1e-ENERGY        2e-ENERGY     NORM[dD(SAO)]  TOL
   5  -197.55753393924    -631.46987041     248.27675101    0.492D-01 0.160D-13
                            Exc = -31.3386022659     Coul =  279.615353274    
                              N = 42.000174984    
                            current damping = 0.300
 
          Norm of current diis error: 0.16873    
          max. resid. norm for Fia-block=  6.785D-03 for orbital     10a         
          max. resid. fock norm         =  6.930D-03 for orbital     10a         
          mo-orthogonalization: Cholesky decomposition

 ITERATION  ENERGY          1e-ENERGY        2e-ENERGY     NORM[dD(SAO)]  TOL
   6  -197.55819568814    -631.78506148     248.59128032    0.150D-01 0.151D-13
                            Exc = -31.3712934645     Coul =  279.962573789    
                              N = 42.000171447    
                            current damping = 0.150
 
          Norm of current diis error: 0.54883E-01
          max. resid. norm for Fia-block=  1.837D-03 for orbital     20a         
          max. resid. fock norm         =  2.990D-03 for orbital    644a         

 ITERATION  ENERGY          1e-ENERGY        2e-ENERGY     NORM[dD(SAO)]  TOL
   7  -197.55824750809    -631.67568307     248.48185010    0.408D-02 0.147D-13
                            Exc = -31.3668248415     Coul =  279.848674937    
                              N = 42.000170550    
                            current damping = 0.200
 
          Norm of current diis error: 0.28843E-01
          max. resid. norm for Fia-block=  6.140D-04 for orbital     14a         
          max. resid. fock norm         =  1.685D-03 for orbital    644a         

 ITERATION  ENERGY          1e-ENERGY        2e-ENERGY     NORM[dD(SAO)]  TOL
   8  -197.55826183112    -631.71322461     248.51937732    0.120D-02 0.146D-13
                            Exc = -31.3693190121     Coul =  279.888696328    
                              N = 42.000170401    
                            current damping = 0.250
 
          Norm of current diis error: 0.64397E-02
          max. resid. norm for Fia-block=  2.038D-04 for orbital     15a         
          max. resid. fock norm         =  5.548D-04 for orbital    644a         

 ITERATION  ENERGY          1e-ENERGY        2e-ENERGY     NORM[dD(SAO)]  TOL
   9  -197.55826242412    -631.72452711     248.53067922    0.395D-03 0.146D-13
                            Exc = -31.3703952328     Coul =  279.901074454    
                              N = 42.000170372    
                            current damping = 0.100
 
          Norm of current diis error: 0.31159E-02
          max. resid. norm for Fia-block=  6.060D-05 for orbital     15a         
          max. resid. fock norm         =  1.701D-04 for orbital    644a         

 ITERATION  ENERGY          1e-ENERGY        2e-ENERGY     NORM[dD(SAO)]  TOL
  10  -197.55826260170    -631.72085938     248.52701131    0.291D-04 0.145D-13
                            Exc = -31.3700598877     Coul =  279.897071202    
                              N = 42.000170368    
                            current damping = 0.150
 
          Norm of current diis error: 0.12122E-03
          max. resid. norm for Fia-block=  3.397D-06 for orbital     21a         
          max. resid. fock norm         =  9.645D-06 for orbital    644a         
          mo-orthogonalization: Cholesky decomposition

 ITERATION  ENERGY          1e-ENERGY        2e-ENERGY     NORM[dD(SAO)]  TOL
  11  -197.55826260194    -631.72092915     248.52708108    0.120D-04 0.144D-13
                            Exc = -31.3700700280     Coul =  279.897151112    
                              N = 42.000170367    
                            current damping = 0.200
 
          Norm of current diis error: 0.51942E-04
          max. resid. norm for Fia-block=  1.653D-06 for orbital     21a         
          max. resid. fock norm         =  3.470D-06 for orbital    641a         

 ITERATION  ENERGY          1e-ENERGY        2e-ENERGY     NORM[dD(SAO)]  TOL
  12  -197.55826260200    -631.72091235     248.52706428    0.250D-05 0.144D-13
                            Exc = -31.3700686415     Coul =  279.897132923    
                              N = 42.000170367    
                            current damping = 0.250
 
          Norm of current diis error: 0.21306E-04
          max. resid. norm for Fia-block=  5.661D-07 for orbital     14a         
          max. resid. fock norm         =  1.507D-06 for orbital    643a         

 ITERATION  ENERGY          1e-ENERGY        2e-ENERGY     NORM[dD(SAO)]  TOL
  13  -197.55826260203    -631.72094186     248.52709379    0.723D-06 0.143D-13
                            Exc = -31.3700704078     Coul =  279.897164201    
                              N = 42.000170367    
                            current damping = 0.300
 
          Norm of current diis error: 0.71093E-05
          max. resid. norm for Fia-block=  1.502D-07 for orbital     19a         
          max. resid. fock norm         =  2.125D-07 for orbital     21a         

 ITERATION  ENERGY          1e-ENERGY        2e-ENERGY     NORM[dD(SAO)]  TOL
  14  -197.55826260204    -631.72092710     248.52707904    0.900D-07 0.143D-13
                            Exc = -31.3700693334     Coul =  279.897148371    
                              N = 42.000170367    
                            current damping = 0.350
 
          Norm of current diis error: 0.12230E-05
          max. resid. norm for Fia-block=  3.699D-08 for orbital     16a         
          max. resid. fock norm         =  6.992D-08 for orbital    645a         

 ENERGY CONVERGED !

          Overall gridpoints after grid construction =        245925

 ITERATION  ENERGY          1e-ENERGY        2e-ENERGY     NORM[dD(SAO)]  TOL
  15  -197.55823415089    -631.72092944     248.52710982    0.212D-07 0.141D-13
                            Exc = -31.3700410939     Coul =  279.897150917    
                              N = 41.999998114    
                            current damping = 0.400
 
          Norm of current diis error: 0.32076E-06
          max. resid. norm for Fia-block=  7.380D-09 for orbital     19a         
          max. resid. fock norm         =  1.338D-08 for orbital    641a         

 End of SCF iterations

   convergence criteria satisfied after    15 iterations


                  ------------------------------------------ 
                 |  total energy      =   -197.55823415089  |
                  ------------------------------------------ 
                 :  kinetic energy    =    196.67128490676  :
                 :  potential energy  =   -394.22951905765  :
                 :  virial theorem    =      1.99551044153  :
                 :  wavefunction norm =      1.00000000000  :
                  .......................................... 


 <geterg> : there is no data group $energy 


 <skperg> : $end is missing 


 orbitals $scfmo  will be written to file mos

    irrep                 17a         18a         19a         20a         21a   
 eigenvalues H         -0.31066    -0.29117    -0.28604    -0.27802    -0.27582
            eV          -8.4537     -7.9232     -7.7837     -7.5654     -7.5055
 occupation              2.0000      2.0000      2.0000      2.0000      2.0000 

    irrep                 22a         23a         24a         25a         26a   
 eigenvalues H          0.00542     0.01671     0.02657     0.03106     0.04681
            eV           0.1474      0.4548      0.7231      0.8452      1.2739
 
 
 
 
 ==============================================================================
                           electrostatic moments
 ==============================================================================

 reference point for electrostatic moments:    0.00000   0.00000   0.00000

 
              nuc           elec       ->  total
 ------------------------------------------------------------------------------
                          charge      
 ------------------------------------------------------------------------------
          42.000000     -42.000000      -0.000000
 
 ------------------------------------------------------------------------------
                       dipole moment  
 ------------------------------------------------------------------------------
   x      -0.001077       0.001080       0.000002
   y      -2.510866       2.473234      -0.037633
   z     359.290575    -359.288739       0.001836
 
   | dipole moment | =     0.0377 a.u. =     0.0958 debye 
 
 ------------------------------------------------------------------------------
                     quadrupole moment
 ------------------------------------------------------------------------------
  xx     545.648029    -572.748223     -27.100194
  yy      59.209744     -85.913535     -26.703791
  zz    3101.090819   -3126.884219     -25.793400
  xy      -0.008821       0.008891       0.000070
  xz       0.004653      -0.004585       0.000067
  yz     -23.017281      22.739411      -0.277870
 
     1/3  trace=     -26.532462
     anisotropy=       1.256369
 
 ==============================================================================
 


    ------------------------------------------------------------------------
         total  cpu-time :  2 minutes and 15 seconds
         total wall-time :  7 minutes and 53 seconds
    ------------------------------------------------------------------------

   ****  ridft : all done  ****


    2018-05-18 15:44:26.811 

