
 eiger (gplogin3.local) : TURBOMOLE V7.2 ( 21285 ) 30 Jun 2017 at 11:51:10
 Copyright (C) 2017 TURBOMOLE GmbH, Karlsruhe


    2017-11-13 07:59:57.699 

                                                                                
  
 HOMO-LUMO Separation
   HOMO:    60.    60 a     -0.18576873 H =     -5.05503 eV
   LUMO:    61.    61 a     -0.09379152 H =     -2.55220 eV
   Gap :                    +0.09197720 H =     +2.50283 eV
 
Number of MOs=   3436, Electrons=    120.00, Symmetry: c1   
 
   Nr.   Orbital    Occupation       Energy
   77.    77 a                     +0.052921 H =        +1.440 eV
   76.    76 a                     +0.049010 H =        +1.334 eV
   75.    75 a                     +0.041868 H =        +1.139 eV
   74.    74 a                     +0.038718 H =        +1.054 eV
   73.    73 a                     +0.037887 H =        +1.031 eV
   72.    72 a                     +0.033419 H =        +0.909 eV
   71.    71 a                     +0.032128 H =        +0.874 eV
   70.    70 a                     +0.017500 H =        +0.476 eV
   69.    69 a                     +0.015550 H =        +0.423 eV
   68.    68 a                     +0.012707 H =        +0.346 eV
   67.    67 a                     +0.001213 H =        +0.033 eV
   66.    66 a                     -0.001924 H =        -0.052 eV
   65.    65 a                     -0.012172 H =        -0.331 eV
   64.    64 a                     -0.032663 H =        -0.889 eV
   63.    63 a                     -0.045203 H =        -1.230 eV
   62.    62 a                     -0.072294 H =        -1.967 eV
   61.    61 a                     -0.093792 H =        -2.552 eV
   60.    60 a        2.000        -0.185769 H =        -5.055 eV
   59.    59 a        2.000        -0.207264 H =        -5.640 eV
   58.    58 a        2.000        -0.231578 H =        -6.302 eV
   57.    57 a        2.000        -0.248303 H =        -6.757 eV
   56.    56 a        2.000        -0.266824 H =        -7.261 eV
   55.    55 a        2.000        -0.282970 H =        -7.700 eV
   54.    54 a        2.000        -0.283940 H =        -7.726 eV
   53.    53 a        2.000        -0.292338 H =        -7.955 eV
   52.    52 a        2.000        -0.303088 H =        -8.247 eV
   51.    51 a        2.000        -0.310809 H =        -8.458 eV
   50.    50 a        2.000        -0.314812 H =        -8.566 eV
   49.    49 a        2.000        -0.333962 H =        -9.088 eV
   48.    48 a        2.000        -0.344850 H =        -9.384 eV
   47.    47 a        2.000        -0.346562 H =        -9.430 eV
   46.    46 a        2.000        -0.359665 H =        -9.787 eV
   45.    45 a        2.000        -0.366947 H =        -9.985 eV


    ------------------------------------------------------------------------
         total  cpu-time :   5.51 seconds
         total wall-time :   5.53 seconds
    ------------------------------------------------------------------------

   ****  eiger : all done  ****


    2017-11-13 08:00:03.207 

