Using OpenMPI from /sopt/mpi/openmpi-1.8.6/intel_15.0.3/bin/mpiexec
STARTING ridft ON 8 PROCESSORS!
RUNNING PROGRAM /beegfs/modfac/apps/TURBOMOLE/7.0_intel/bin/em64t-unknown-linux-gnu_mpi/ridft_mpi.
PLEASE WAIT UNTIL ridft HAS FINISHED.
Look for the output in slave1.output.
  this is node-proc. number 1 running on node c-5-41.local
  the total number of node-proc. spawned is            7
  parallel platform: MPP, or cluster with fast interconnect

 ridft (c-5-41.local) : TURBOMOLE V7.0( ) 6 Jul 2015 at 19:34:44
 Copyright (C) 2015 TURBOMOLE GmbH, Karlsruhe


    2017-11-09 02:02:29.476 



                                  r i d f t

                        DFT program with RI approximation 
                                for coulomb part 




                                                 
                                 References:     
                                                 
          TURBOMOLE:                             
              R. Ahlrichs, M. Baer, M. Haeser, H. Horn, and
              C. Koelmel
              Electronic structure calculations on workstation
              computers: the program system TURBOMOLE
              Chem. Phys. Lett. 162: 165 (1989)
          Density Functional:                              
              O. Treutler and R. Ahlrichs                      
              Efficient Molecular Numerical Integration Schemes
              J. Chem. Phys. 102: 346 (1995)                   
          Parallel Version:                                
              Performance of parallel TURBOMOLE for Density    
              Functional Calculations                          
              M. v. Arnim and R. Ahlrichs                      
              J. Comp. Chem. 19: 1746 (1998)                   
          RI-J Method:                                     
              Auxiliary Basis Sets to approximate Coulomb      
              Potentials                                       
              Chem. Phys. Lett. 240: 283 (1995)                
              K. Eichkorn, O. Treutler, H. Oehm, M. Haeser     
              and R. Ahlrichs                                  
              Chem. Phys. Lett. 242: 652 (1995)                
                                                           
              Auxiliary Basis Sets for Main Row Atoms and their
              Use to approximate Coulomb Potentials            
              K. Eichkorn, F. Weigend, O. Treutler and         
              R. Ahlrichs                                      
              Theo. Chem. Acc. 97: 119 (1997)                   
                                                           
              Accurate Coulomb-fitting basis sets for H to Rn 
              F. Weigend                                        
              Phys. Chem. Chem. Phys. 8: 1057 (2006)            
                                                           
          Multipole accelerated RI-J (MARI-J):             
              Fast evaluation of the Coulomb potential for     
              electron densities using multipole accelerated   
              resolution of identity approximation             
              M. Sierka, A. Hogekamp and R. Ahlrichs           
              J. Chem. Phys. 118: 9136 (2003)                  
          RI-JK Method:                                     
              A fully direct RI-HF algorithm: Implementation,
              optimised auxiliary basis sets, demonstration of
              accuracy and efficiency                         
              F. Weigend                                      
              Phys. Chem. Chem. Phys. 4: 4285 (2002)           
          Two-component HF and DFT with spin-orbit coupling:  
              Self-consistent treatment of spin-orbit         
              interactions with efficient Hartree-Fock and    
              density functional methods                      
              M. K. Armbruster, F. Weigend, C. van Wüllen and 
              W. Klopper                                      
              Phys. Chem. Chem. Phys. 10: 1748 (2008)         
          Relativistic all-electron 2c calculations           
              An efficient implementation of two-component    
              relativistic exact-decoupling methods for large 
              molecules                                       
              D. Peng, N. Middendorf, F. Weigend, M. Reiher   
              J. Chem. Phys. 138, 184105 (2013)               
                                         


 


              +--------------------------------------------------+
              |      general information about current run       |
              +--------------------------------------------------+

 

 SCF run will be profiled !


 DENSITY CONVERGENCE CHECK SWITCHED ON !
 SCF CONVERGENCE IF RMS(delta[D]) <     0.1000000000E-06

 PBE functional
 exchange:    LDA + PBE
 correlation: LDA (PW) + PBE
 A DFT calculation using the RI-J approximation will be carried out.
 Allocatable memory for RI due to $ricore (MB):       13000


              +--------------------------------------------------+
              | Atomic coordinate, charge and isotop information |
              +--------------------------------------------------+

                    atomic coordinates            atom    charge  isotop
          1.47400130   12.97840855   10.46321877    c      6.000     0
         -1.42194711  -12.95236318   10.50711918    c      6.000     0
         -3.51827852   -8.71488287   10.67272269    c      6.000     0
          1.22919144   -9.05957629   10.95273739    c      6.000     0
          3.57308963    8.74214504   10.61880143    c      6.000     0
         -1.17165289    9.08563621   10.94293406    c      6.000     0
         -1.17288083  -10.16974409    9.71264374    c      6.000     0
          1.21820004   10.19389350    9.67760254    c      6.000     0
         -0.01577677   -0.00081710   -0.61100156    c      6.000     0
          0.15429197    4.37565313   -0.69054108    c      6.000     0
         -0.19402613   -4.37709458   -0.67856040    c      6.000     0
         -0.55929318   -7.03123591    3.21036313    c      6.000     0
          0.54805534    7.03986009    3.18853604    c      6.000     0
         -0.31877961   -4.55516328    2.04416646    c      6.000     0
          0.30345127    4.56044964    2.03044875    c      6.000     0
          0.58076877    9.15982629    1.54879573    c      6.000     0
         -0.61478594   -9.15470964    1.57576987    c      6.000     0
          0.99711247    9.87365787    6.81274844    c      6.000     0
         -0.97953426   -9.85618032    6.84504121    c      6.000     0
         -0.00403023    0.00250863    2.11154219    c      6.000     0
         -0.74392528   -7.43475782    5.81861435    c      6.000     0
          0.75850110    7.44933785    5.79386139    c      6.000     0
          0.34070212    8.73142991   -1.10144086    c      6.000     0
         -0.39861827   -8.73309227   -1.07762389    c      6.000     0
         -0.17910655   -2.31709543    3.38716175    c      6.000     0
          0.18085094    2.32528402    3.37988952    c      6.000     0
          1.02479054   11.95094915    5.14064543    c      6.000     0
         -1.03036373  -11.93691487    5.17780973    c      6.000     0
          0.81990586   11.60622568    2.55789493    c      6.000     0
         -0.85134166  -11.59820735    2.59240284    c      6.000     0
          0.02193858    2.18166975   -1.94927934    n      7.000     0
         -0.06672775   -2.18648606   -1.94364909    n      7.000     0
          0.13355147    6.51560640   -2.18085243    n      7.000     0
         -0.19352271   -6.52056992   -2.16406656    n      7.000     0
         -0.71180296   -5.82922647    7.09345346    h      1.000     0
          0.74579439    5.84626805    7.07218421    h      1.000     0
          1.20982307   13.85044838    5.88201126    h      1.000     0
         -1.21256395  -13.83432520    5.92511799    h      1.000     0
         -0.20128702   -2.31305349    5.43959803    h      1.000     0
          0.22184874    2.32620338    5.43205972    h      1.000     0
          0.84152149   13.22104769    1.28896670    h      1.000     0
         -0.89126969  -13.21558200    1.32720077    h      1.000     0
         -0.39306323  -10.36850454   -2.33336202    h      1.000     0
          0.31715197   10.36393541   -2.36071770    h      1.000     0
         -1.55225091  -13.06116624   12.56760513    h      1.000     0
          1.62652034   13.09185297   12.52191892    h      1.000     0
         -1.39328016    7.07229742   10.52134693    h      1.000     0
          3.44669246    6.72205728   10.19043378    h      1.000     0
         -3.39522541   -6.69602570   10.23763233    h      1.000     0
          1.44796069   -7.04728951   10.52466264    h      1.000     0
         -3.12774186  -13.82428811    9.72380578    h      1.000     0
          0.22085682  -14.06739060    9.92284383    h      1.000     0
          3.17055302   13.84961217    9.65934363    h      1.000     0
         -0.17576722   14.09116736    9.89447375    h      1.000     0
          5.29559352    9.48212419    9.74469141    h      1.000     0
         -2.87285749   10.07196214   10.30104757    h      1.000     0
         -5.24932510   -9.45656504    9.81712783    h      1.000     0
          2.92380070  -10.04822525   10.29713433    h      1.000     0
         -3.66821506   -8.91595502   12.72633173    h      1.000     0
          1.10891264   -9.26470625   13.00791869    h      1.000     0
         -1.03209869    9.29552243   12.99640534    h      1.000     0
          3.74274055    8.94867302   12.67033744    h      1.000     0
 
       center of nuclear mass  :   -0.00152415    0.00530701    4.11934769
       center of nuclear charge:   -0.00050369    0.00560590    4.36462909

              +--------------------------------------------------+
              |               basis set information              |
              +--------------------------------------------------+

              we will work with the 1s 3p 5d 7f 9g ... basis set
              ...i.e. with spherical basis functions...

   type   atoms  prim   cont   basis
   ---------------------------------------------------------------------------
    c       30     50     30   cc-pVTZ   [4s3p2d1f|18s5p2d1f]
    n        4     50     30   cc-pVTZ   [4s3p2d1f|18s5p2d1f]
    h       28     16     14   cc-pVTZ   [3s2p1d|5s2p1d]
   ---------------------------------------------------------------------------
   total:   62   2148   1412
   ---------------------------------------------------------------------------

   total number of primitive shells          :   60
   total number of contracted shells         :  508
   total number of cartesian basis functions : 1610
   total number of SCF-basis functions       : 1412


 integral neglect threshold       :  0.21E-13
 integral storage threshold THIZE :  0.10E-04
 integral storage threshold THIME :         5

 RI-J AUXILIARY BASIS SET information:

              we will work with the 1s 3p 5d 7f 9g ... basis set
              ...i.e. with spherical basis functions...

   type   atoms  prim   cont   basis
   ---------------------------------------------------------------------------
    c       30     70     49   cc-pVTZ   [6s4p3d1f1g|12s5p4d2f1g]
    n        4     70     49   cc-pVTZ   [6s4p3d1f1g|12s5p4d2f1g]
    h       28     16     11   cc-pVTZ   [3s1p1d|5s2p1d]
   ---------------------------------------------------------------------------
   total:   62   2828   1974
   ---------------------------------------------------------------------------

   total number of primitive shells          :   56
   total number of contracted shells         :  650
   total number of cartesian basis functions : 2410
   total number of SCF-basis functions       : 1974


 symmetry group of the molecule :   c1 

 the group has the following generators :
   c1(z)

    1 symmetry operations found

 there are 1 real representations :   a   

 maximum number of shells which are related by symmetry :  1


    mo occupation :
   irrep   mo's   occupied
    a     1412      118
 
 number of basis functions   :         1412
 number of occupied orbitals :          118
 
  
           ------------------
           density functional
           ------------------
 PBE functional
 exchange:    LDA + PBE
 correlation: LDA (PW) + PBE
 grinp -> nfun, dfgga, dfhybrid 
           6 T F
 iterations will be done with small grid
  
 spherical integration : Lebedev's spherical grid
 spherical gridsize    :           5
    i.e. gridpoints    :         590
 value for diffuse not defined
 radial integration    : Chebyshev 2nd kind (scaling 3)
 radial gridsize       :           8
 integration cells     :          62
 partition function    : becke
 partition sharpness   :           3
  

 <rddim> : input of entry tasksize
           from data group '$pardft' failed !

               Default values taken

 <rddim> : input of entry memdiv
           from data group '$pardft' failed !

               Default values taken
  RIDFT: memory allocation for DFT gridpoints
  MEMORY is divided by 1 as DEFAULT
 Each node can hold at most  the            1 -th part
 of the gridpoints    

 biggest AO integral is expected to be     4.229423036
  
           ------------------------
               RI-J - INFORMATION
           ------------------------
 
 
 **************************************************
 *      MEMORY ALLOCATION FOR PARALLEL RI-DFT     *
 **************************************************
 
 
MEMORY FOR (MU NU/ ALPHA), SEQUENTIAL RUN              12969 MByte
 
            DIFFERENCE IN MEMORY NEED:       DIAG./SLAVE  
 
      TOTAL DIFFERENCE :                    111 MByte
 
      difference in xcore:                   32 MByte
      difference in fatmat:                  30 MByte
      getcor calls skipped by slaves:        51 MByte
 
 
           Integral memory available for diagonal.     12969 MByte
 
           Integral memory available for slave             0 MByte
 
         MEMORY FOR (MU NU/ ALPHA) ON DIAGONALIZER     12969 MByte
 
         MEMORY FOR (MU NU/ ALPHA) ON ONE SLAVE            0 MByte
 
         TOTAL MEMORY FOR (MU NU/ ALPHA),ALL NODES     12969 MByte
 
 Contributions to RI integral batches: 
  neglected integral batches:       71229
  direct contribution:                  0
  memory contribution:       58057
 Memory core needed for (P|Q) and Cholesky     30 MByte
 Memory core minimum needed except of (P|Q)     6 MByte
 Total minimum memory core needed (sum)        36 MByte
  
 ****************************************
 Memory allocated for RI-J 13005 MByte
 ****************************************
                                            

          ------------------------
          nuclear repulsion energy  :   3161.25075355    
          ------------------------

 
          -----------------
          -S integrals
          -----------------

 1e-integrals will be neglected if expon. factor < 0.207575E-14
 
          -----------------
          -T+V integrals
          -----------------

 1e-integrals will be neglected if expon. factor < 0.207575E-14
 Difference densities >>NOT<< switched on in parallel ridft!

 automatic virtual orbital shift switched on 
      shift if e(lumo)-e(homo) < 0.10000000    


 DIIS switched on: error vector is FDS-SDF
 Max. Iterations for DIIS is     :   4
 DIIS matrix (see manual) 
    Scaling factor of diagonals  :  1.200
    threshold for scaling factor :  0.000

 scf convergence criterion : increment of total energy < .1000000D-08
                  and increment of one-electron energy < .1000000D-05


 <geterg> : there is no data group $energy 

  MOs are in ASCII format !


 reading orbital data $scfmo  from file mos . 

 orbital characterization : expanded
 
 mo provided and orthogonalized by Cholesky decomposition

 DSCF restart information will be dumped onto file mos


 Starting SCF iterations


 ITERATION  ENERGY          1e-ENERGY        2e-ENERGY     RMS[dD(SAO)]   TOL
   1  -1373.0135978820    -8098.9977239     3564.7333725    0.000D+00 0.207D-13
                            Exc = -195.353171820     Coul =  3760.08654434    
                              N = 236.00032791    
                            current damping = 0.700
 
          max. resid. norm for Fia-block=  2.961D-01 for orbital     97a         
          max. resid. fock norm         =  4.590D+00 for orbital   1342a         

 ITERATION  ENERGY          1e-ENERGY        2e-ENERGY     RMS[dD(SAO)]   TOL
   2  -1376.8703713484    -8134.5727083     3596.4515834    0.351D-02 0.207D-13
                            Exc = -197.648795437     Coul =  3794.10037888    
                              N = 236.00026324    
                            current damping = 0.650
 
          Norm of current diis error:  4.6156    
          max. resid. norm for Fia-block=  1.368D-01 for orbital      3a         
          max. resid. fock norm         =  2.922D-01 for orbital   1393a         

 ITERATION  ENERGY          1e-ENERGY        2e-ENERGY     RMS[dD(SAO)]   TOL
   3  -1377.5431730377    -8143.5012158     3604.7072892    0.146D-02 0.207D-13
                            Exc = -198.646964294     Coul =  3803.35425353    
                              N = 236.00022421    
                            current damping = 0.550
 
          Norm of current diis error:  2.3234    
          max. resid. norm for Fia-block=  6.045D-02 for orbital    115a         
          max. resid. fock norm         =  6.520D-02 for orbital     37a         

 ITERATION  ENERGY          1e-ENERGY        2e-ENERGY     RMS[dD(SAO)]   TOL
   4  -1377.7652756518    -8147.9423776     3608.9263484    0.129D-02 0.207D-13
                            Exc = -198.894736102     Coul =  3807.82108445    
                              N = 236.00020698    
                            current damping = 0.450
 
          Norm of current diis error: 0.97853    
          max. resid. norm for Fia-block=  3.054D-02 for orbital     35a         
          max. resid. fock norm         =  7.024D-02 for orbital   1392a         

 ITERATION  ENERGY          1e-ENERGY        2e-ENERGY     RMS[dD(SAO)]   TOL
   5  -1377.7939231596    -8150.7164193     3611.6717426    0.421D-03 0.207D-13
                            Exc = -199.280504431     Coul =  3810.95224701    
                              N = 236.00019520    
                            current damping = 0.350
 
          Norm of current diis error: 0.60374    
          max. resid. norm for Fia-block=  1.819D-02 for orbital    117a         
          max. resid. fock norm         =  1.994D-02 for orbital    117a         
          mo-orthogonalization: Cholesky decomposition

 ITERATION  ENERGY          1e-ENERGY        2e-ENERGY     RMS[dD(SAO)]   TOL
   6  -1377.8076195016    -8150.7647853     3611.7064122    0.503D-03 0.207D-13
                            Exc = -199.232851122     Coul =  3810.93926333    
                              N = 236.00019321    
                            current damping = 0.200
 
          Norm of current diis error: 0.34604    
          max. resid. norm for Fia-block=  7.197D-03 for orbital    116a         
          max. resid. fock norm         =  1.484D-02 for orbital   1391a         
          irrep a   : virtual orbitals shifted by    0.00443

 ITERATION  ENERGY          1e-ENERGY        2e-ENERGY     RMS[dD(SAO)]   TOL
   7  -1377.8113870559    -8150.9783322     3611.9161916    0.142D-03 0.207D-13
                            Exc = -199.260784720     Coul =  3811.17697632    
                              N = 236.00019182    
                            current damping = 0.050
 
          Norm of current diis error: 0.19402    
          max. resid. norm for Fia-block=  3.582D-03 for orbital    117a         
          max. resid. fock norm         =  5.728D-03 for orbital   1394a         
          irrep a   : virtual orbitals shifted by    0.02096

 ITERATION  ENERGY          1e-ENERGY        2e-ENERGY     RMS[dD(SAO)]   TOL
   8  -1377.8126753699    -8151.0517410     3611.9883121    0.771D-04 0.207D-13
                            Exc = -199.275485206     Coul =  3811.26379733    
                              N = 236.00019170    
                            current damping = 0.050
 
          Norm of current diis error: 0.81535E-01
          max. resid. norm for Fia-block=  1.667D-03 for orbital    113a         
          max. resid. fock norm         =  2.895D-03 for orbital   1386a         
          irrep a   : virtual orbitals shifted by    0.02059

 ITERATION  ENERGY          1e-ENERGY        2e-ENERGY     RMS[dD(SAO)]   TOL
   9  -1377.8127447612    -8150.9917730     3611.9282747    0.458D-04 0.207D-13
                            Exc = -199.277034219     Coul =  3811.20530895    
                              N = 236.00019166    
                            current damping = 0.100
 
          Norm of current diis error: 0.70128E-01
          max. resid. norm for Fia-block=  1.079D-03 for orbital    113a         
          max. resid. fock norm         =  1.600D-03 for orbital   1388a         
          irrep a   : virtual orbitals shifted by    0.01722

 ITERATION  ENERGY          1e-ENERGY        2e-ENERGY     RMS[dD(SAO)]   TOL
  10  -1377.8129297870    -8151.0677127     3612.0040293    0.234D-04 0.207D-13
                            Exc = -199.273210854     Coul =  3811.27724020    
                              N = 236.00019168    
                            current damping = 0.150
 
          Norm of current diis error: 0.16302E-01
          max. resid. norm for Fia-block=  4.317D-04 for orbital    118a         
          max. resid. fock norm         =  7.498D-04 for orbital   1390a         
          irrep a   : virtual orbitals shifted by    0.01307
          mo-orthogonalization: Cholesky decomposition

 ITERATION  ENERGY          1e-ENERGY        2e-ENERGY     RMS[dD(SAO)]   TOL
  11  -1377.8129308078    -8151.0135162     3611.9498318    0.898D-05 0.207D-13
                            Exc = -199.274230747     Coul =  3811.22406256    
                              N = 236.00019167    
                            current damping = 0.200
 
          Norm of current diis error: 0.14906E-01
          max. resid. norm for Fia-block=  2.465D-04 for orbital    117a         
          max. resid. fock norm         =  4.092D-04 for orbital   1391a         
          irrep a   : virtual orbitals shifted by    0.00961

 ITERATION  ENERGY          1e-ENERGY        2e-ENERGY     RMS[dD(SAO)]   TOL
  12  -1377.8129399202    -8151.0262493     3611.9625559    0.564D-05 0.207D-13
                            Exc = -199.273131981     Coul =  3811.23568785    
                              N = 236.00019168    
                            current damping = 0.250
 
          Norm of current diis error: 0.36808E-02
          max. resid. norm for Fia-block=  8.357D-05 for orbital    117a         
          max. resid. fock norm         =  1.550D-04 for orbital   1391a         
          irrep a   : virtual orbitals shifted by    0.00573

 ITERATION  ENERGY          1e-ENERGY        2e-ENERGY     RMS[dD(SAO)]   TOL
  13  -1377.8129402592    -8151.0361301     3611.9724363    0.217D-05 0.207D-13
                            Exc = -199.273779872     Coul =  3811.24621618    
                              N = 236.00019167    
                            current damping = 0.100
 
          Norm of current diis error: 0.22786E-02
          max. resid. norm for Fia-block=  4.214D-05 for orbital    117a         
          max. resid. fock norm         =  7.116D-05 for orbital   1391a         
          irrep a   : virtual orbitals shifted by    0.01709

 ITERATION  ENERGY          1e-ENERGY        2e-ENERGY     RMS[dD(SAO)]   TOL
  14  -1377.8129404516    -8151.0341272     3611.9704332    0.108D-05 0.207D-13
                            Exc = -199.273596053     Coul =  3811.24402925    
                              N = 236.00019168    
                            current damping = 0.150
 
          Norm of current diis error: 0.10515E-02
          max. resid. norm for Fia-block=  1.582D-05 for orbital    117a         
          max. resid. fock norm         =  2.997D-05 for orbital   1393a         
          irrep a   : virtual orbitals shifted by    0.01331

 ITERATION  ENERGY          1e-ENERGY        2e-ENERGY     RMS[dD(SAO)]   TOL
  15  -1377.8129404885    -8151.0338760     3611.9701820    0.367D-06 0.207D-13
                            Exc = -199.273556401     Coul =  3811.24373841    
                              N = 236.00019167    
                            current damping = 0.050
 
          Norm of current diis error: 0.40443E-03
          max. resid. norm for Fia-block=  8.129D-06 for orbital    112a         
          max. resid. fock norm         =  1.543D-05 for orbital   1396a         
          irrep a   : virtual orbitals shifted by    0.02085
          mo-orthogonalization: Cholesky decomposition

 ITERATION  ENERGY          1e-ENERGY        2e-ENERGY     RMS[dD(SAO)]   TOL
  16  -1377.8129404913    -8151.0329174     3611.9692234    0.147D-06 0.207D-13
                            Exc = -199.273568476     Coul =  3811.24279186    
                              N = 236.00019168    
                            current damping = 0.050
 
          Norm of current diis error: 0.31051E-03
          max. resid. norm for Fia-block=  4.415D-06 for orbital    115a         
          max. resid. fock norm         =  8.724D-06 for orbital   1412a         
          irrep a   : virtual orbitals shifted by    0.02085

 DENSITY CONVERGED !


 ITERATION  ENERGY          1e-ENERGY        2e-ENERGY     RMS[dD(SAO)]   TOL
  17  -1377.8129404950    -8151.0337183     3611.9700243    0.937D-07 0.207D-13
                            Exc = -199.273572729     Coul =  3811.24359699    
                              N = 236.00019168    
                            current damping = 0.100
 
          Norm of current diis error: 0.92702E-04
          max. resid. norm for Fia-block=  2.051D-06 for orbital    114a         
          max. resid. fock norm         =  3.626D-06 for orbital   1386a         
          irrep a   : virtual orbitals shifted by    0.01708

 DENSITY CONVERGED !


 ITERATION  ENERGY          1e-ENERGY        2e-ENERGY     RMS[dD(SAO)]   TOL
  18  -1377.8129404951    -8151.0336317     3611.9699376    0.501D-07 0.207D-13
                            Exc = -199.273571092     Coul =  3811.24350872    
                              N = 236.00019167    
                            current damping = 0.150
 
          Norm of current diis error: 0.63512E-04
          max. resid. norm for Fia-block=  1.083D-06 for orbital    114a         
          max. resid. fock norm         =  1.884D-06 for orbital    114a         
          irrep a   : virtual orbitals shifted by    0.01331

 DENSITY CONVERGED !


 ITERATION  ENERGY          1e-ENERGY        2e-ENERGY     RMS[dD(SAO)]   TOL
  19  -1377.8129404952    -8151.0335880     3611.9698940    0.252D-07 0.207D-13
                            Exc = -199.273570538     Coul =  3811.24346453    
                              N = 236.00019167    
                            current damping = 0.050
 
          Norm of current diis error: 0.19918E-04
          max. resid. norm for Fia-block=  4.419D-07 for orbital    117a         
          max. resid. fock norm         =  9.889D-07 for orbital     20a         
          irrep a   : virtual orbitals shifted by    0.02085

 ENERGY & DENSITY CONVERGED !


 ITERATION  ENERGY          1e-ENERGY        2e-ENERGY     RMS[dD(SAO)]   TOL
  20  -1377.8128530437    -8151.0335997     3611.9699931    0.906D-08 0.207D-13
                            Exc = -199.273484103     Coul =  3811.24347719    
                              N = 236.00003021    
                            current damping = 0.100
 
          Norm of current diis error: 0.15267E-04
          max. resid. norm for Fia-block=  2.419D-07 for orbital    117a         
          max. resid. fock norm         =  4.862D-07 for orbital   1391a         

 End of SCF iterations

   convergence criteria satisfied after   20 iterations


                  ------------------------------------------ 
                 |  total energy      =  -1377.81285304372  |
                  ------------------------------------------ 
                 :  kinetic energy    =   1368.74226890054  :
                 :  potential energy  =  -2746.55512194425  :
                 :  virial theorem    =      1.99341667911  :
                 :  wavefunction norm =      1.00000000000  :
                  .......................................... 


 <geterg> : there is no data group $energy 


 <skperg> : $end is missing 


 orbitals $scfmo  will be written to file mos

    irrep                114a        115a        116a        117a        118a   
 eigenvalues H         -0.21943    -0.21469    -0.20855    -0.20688    -0.20126
            eV          -5.9711     -5.8422     -5.6751     -5.6297     -5.4767
 occupation              2.0000      2.0000      2.0000      2.0000      2.0000 

    irrep                119a        120a        121a        122a        123a   
 eigenvalues H         -0.12588    -0.09440    -0.08049    -0.07315    -0.04644
            eV          -3.4255     -2.5688     -2.1901     -1.9906     -1.2637
 
 
 ! grave: sending quit signal to master process
 
 
 
 
 ==============================================================================
                           electrostatic moments
 ==============================================================================

 reference point for electrostatic moments:    0.00000   0.00000   0.00000

 
              nuc           elec       ->  total
 ------------------------------------------------------------------------------
                          charge      
 ------------------------------------------------------------------------------
         236.000000    -236.000000      -0.000000
 
 ------------------------------------------------------------------------------
                       dipole moment  
 ------------------------------------------------------------------------------
   x      -0.118870       0.134086       0.015216
   y       1.322993      -1.317891       0.005102
   z    1030.052464   -1026.087624       3.964840
 
   | dipole moment | =     3.9649 a.u. =    10.0777 debye 
 
 ------------------------------------------------------------------------------
                     quadrupole moment
 ------------------------------------------------------------------------------
  xx     422.429137    -573.778732    -151.349594
  yy   17094.658334  -17205.351255    -110.692921
  zz    9552.674057   -9687.021777    -134.347720
  xy    1568.532068   -1564.469450       4.062618
  xz      17.581082     -17.572765       0.008317
  yz     -15.372834      15.327920      -0.044914
 
     1/3  trace=    -132.130079
     anisotropy=      36.059811
 
 ==============================================================================
 

    ridft profiling
  --------------------------------------------------------------------
             module   cpu total (s)       %  wall total (s)       %

               RIDFT           847.7  100.00           847.7  100.00
         Ridft_b_scf           421.4   49.71           421.2   49.69
        b_scf_prelim             0.0    0.00             0.0    0.00
        b_scf_molinp             0.0    0.00             0.0    0.00
         b_scf_init0             0.0    0.00             0.0    0.00
        b_scf_auxbas             0.0    0.00             0.0    0.00
      b_scf_symmetry             0.0    0.00             0.1    0.01
         b_scf_cosmo             0.0    0.00             0.0    0.00
        b_scf_params           291.5   34.38           291.3   34.36
          b_scf_ri-j           125.9   14.85           125.8   14.84
    b_scf_ri-j_auxpq           125.9   14.85           125.8   14.84
     ri-j_auxpq_chol             0.9    0.11             0.9    0.11
         b_scf_1elec             0.5    0.06             0.5    0.06
       b_scf_moinput             3.5    0.42             3.5    0.42
     moinput_orthmos             3.4    0.40             3.4    0.40
    b_scf_dft-dstmax             0.0    0.00             0.0    0.00
           Ridft_scf           426.0   50.26           426.0   50.26
          Scf_b_loop             0.0    0.00             0.0    0.00
                noga             0.0    0.00             0.0    0.00
            Scf_loop           425.3   50.16           425.2   50.16
     scf_loop_mkdmat             2.1    0.24             2.1    0.24
       scf_loop_ri-j            50.0    5.90            50.0    5.90
      parlp1.bc.dens             1.1    0.13             1.1    0.13
        parlp1.gs.gp             0.0    0.00             0.0    0.00
        parlp2.bc.gq             0.0    0.00             0.0    0.00
        scf_loop_dft           312.3   36.84           312.1   36.82
      pardft.bc.dens             0.0    0.00             0.0    0.00
        dft_grid_con             1.9    0.22             1.9    0.22
           dft_xcrhf           302.8   35.73           302.6   35.70
          dft_getval            29.6    3.50            29.6    3.49
          funct2 dst             0.8    0.09             0.8    0.09
      funct2 f2loop1             8.5    1.00             8.4    0.99
      funct2 f2loop2            10.4    1.23            10.4    1.23
          funct2 s+c             8.8    1.03             8.8    1.04
        funct2 cmf_2             8.1    0.95             8.2    0.96
          dft_mkdens           117.4   13.85           117.2   13.83
         dft_gga-fun             0.5    0.06             0.5    0.06
          dft_mkfock           154.0   18.17           154.0   18.16
     pardft.red.fock            28.3    3.34            28.3    3.34
     scf_loop_energy             0.0    0.00             0.0    0.00
     scf_loop_mkfock             0.0    0.01             0.0    0.01
       scf_loop_diis            22.5    2.66            22.5    2.66
       scf_loop_diag            21.0    2.48            21.0    2.48
         diag_tritrn             6.8    0.80             6.8    0.81
          diag_rdiag            14.0    1.65            14.0    1.65
     scf_loop_modump            13.3    1.56            13.5    1.59
      scf_loop_ortho             3.5    0.41             3.5    0.41
          Scf_a_loop             0.8    0.09             0.8    0.09
         Ridft_a_scf             0.2    0.03             0.5    0.05
         a_scf_fanal             0.2    0.02             0.4    0.05
 


    ------------------------------------------------------------------------
         total  cpu-time : 14 minutes and  9 seconds
         total wall-time : 14 minutes and  9 seconds
    ------------------------------------------------------------------------


   ****  ridft : all done  ****


    2017-11-09 02:16:38.058 

