 operating system is UNIX !

 ridft (c-17-34.gp.local) : TURBOMOLE V7.2 ( 21454 ) 4 Oct 2017 at 12:48:15
 Copyright (C) 2017 TURBOMOLE GmbH, Karlsruhe


    2018-05-18 15:42:32.246 



                                  r i d f t

                        DFT program with RI approximation 
                                for coulomb part 




                                                 
                                 References:     
                                                 
          TURBOMOLE:                             
              R. Ahlrichs, M. Baer, M. Haeser, H. Horn, and
              C. Koelmel
              Electronic structure calculations on workstation
              computers: the program system TURBOMOLE
              Chem. Phys. Lett. 162: 165 (1989)
          Density Functional:                              
              O. Treutler and R. Ahlrichs                      
              Efficient Molecular Numerical Integration Schemes
              J. Chem. Phys. 102: 346 (1995)                   
          Parallel Version:                                
              Performance of parallel TURBOMOLE for Density    
              Functional Calculations                          
              M. v. Arnim and R. Ahlrichs                      
              J. Comp. Chem. 19: 1746 (1998)                   
          RI-J Method:                                     
              Auxiliary Basis Sets to approximate Coulomb      
              Potentials                                       
              Chem. Phys. Lett. 240: 283 (1995)                
              K. Eichkorn, O. Treutler, H. Oehm, M. Haeser     
              and R. Ahlrichs                                  
              Chem. Phys. Lett. 242: 652 (1995)                
                                                           
              Auxiliary Basis Sets for Main Row Atoms and their
              Use to approximate Coulomb Potentials            
              K. Eichkorn, F. Weigend, O. Treutler and         
              R. Ahlrichs                                      
              Theo. Chem. Acc. 97: 119 (1997)                   
                                                           
              Accurate Coulomb-fitting basis sets for H to Rn 
              F. Weigend                                        
              Phys. Chem. Chem. Phys. 8: 1057 (2006)            
                                                           
          Multipole accelerated RI-J (MARI-J):             
              Fast evaluation of the Coulomb potential for     
              electron densities using multipole accelerated   
              resolution of identity approximation             
              M. Sierka, A. Hogekamp and R. Ahlrichs           
              J. Chem. Phys. 118: 9136 (2003)                  
          RI-JK Method:                                     
              A fully direct RI-HF algorithm: Implementation,
              optimised auxiliary basis sets, demonstration of
              accuracy and efficiency                         
              F. Weigend                                      
              Phys. Chem. Chem. Phys. 4: 4285 (2002)           
          Two-component HF and DFT with spin-orbit coupling:  
              Self-consistent treatment of spin-orbit         
              interactions with efficient Hartree-Fock and    
              density functional methods                      
              M. K. Armbruster, F. Weigend, C. van Wüllen and 
              W. Klopper                                      
              Phys. Chem. Chem. Phys. 10: 1748 (2008)         
          Relativistic all-electron 2c calculations           
              An efficient implementation of two-component    
              relativistic exact-decoupling methods for large 
              molecules                                       
              D. Peng, N. Middendorf, F. Weigend, M. Reiher   
              J. Chem. Phys. 138, 184105 (2013)               
                                         




              +--------------------------------------------------+
              |      general information about current run       |
              +--------------------------------------------------+

 
 TPSS meta-GGA functional
 exchange:    LDA + TPSS
 correlation: LDA (PW) + TPSS
 A DFT calculation using the RI-J approximation will be carried out.
 Allocatable memory for RI due to $ricore (MB):                   500


              +--------------------------------------------------+
              | Atomic coordinate, charge and isotop information |
              +--------------------------------------------------+

                    atomic coordinates            atom    charge  isotop
          1.43571787    1.94882743    0.70632746    c      6.000     0
          2.71178772    3.54449179    0.70808910    h      1.000     0
          2.39356073   -0.50524160    0.79609074    c      6.000     0
          4.41235172   -0.81103302    0.86820130    h      1.000     0
          0.74704756   -2.56245194    0.80295429    c      6.000     0
          1.49035507   -4.46446398    0.87501027    h      1.000     0
         -1.85609966   -2.16686280    0.72049633    c      6.000     0
         -3.13251646   -3.76270966    0.72777322    h      1.000     0
         -2.81445627    0.28563171    0.63791927    c      6.000     0
         -4.83381937    0.59290250    0.58150464    h      1.000     0
         -1.16931558    2.34388630    0.63094881    c      6.000     0
         -1.91195236    4.24641663    0.57517446    h      1.000     0
 
       center of nuclear mass  :   -0.21059410   -0.10934506    0.71631874
       center of nuclear charge:   -0.21059680   -0.10932527    0.71676606

              +--------------------------------------------------+
              |               basis set information              |
              +--------------------------------------------------+

              we will work with the 1s 3p 5d 7f 9g ... basis set
              ...i.e. with spherical basis functions...

   type   atoms  prim   cont   basis
   ---------------------------------------------------------------------------
    c        6     77     57   def2-QZVP   [7s4p3d2f1g|15s8p3d2f1g]
    h        6     33     30   def2-QZVP   [4s3p2d1f|7s3p2d1f]
   ---------------------------------------------------------------------------
   total:   12    660    522
   ---------------------------------------------------------------------------

   total number of primitive shells          :   42
   total number of contracted shells         :  162
   total number of cartesian basis functions :  642
   total number of SCF-basis functions       :  522


 integral neglect threshold       :  0.52E-13
 integral storage threshold THIZE :  0.10E-04
 integral storage threshold THIME :         5

 RI-J AUXILIARY BASIS SET information:

              we will work with the 1s 3p 5d 7f 9g ... basis set
              ...i.e. with spherical basis functions...

   type   atoms  prim   cont   basis
   ---------------------------------------------------------------------------
    c        6     70     49   def2-QZVP   [6s4p3d1f1g|12s5p4d2f1g]
    h        6     16     11   def2-QZVP   [3s1p1d|5s2p1d]
   ---------------------------------------------------------------------------
   total:   12    516    360
   ---------------------------------------------------------------------------

   total number of primitive shells          :   32
   total number of contracted shells         :  120
   total number of cartesian basis functions :  438
   total number of SCF-basis functions       :  360


 symmetry group of the molecule :   c1 

 the group has the following generators :
   c1(z)

    1 symmetry operations found

 there are 1 real representations :   a   

 maximum number of shells which are related by symmetry :  1


    mo occupation :
   irrep   mo's   occupied
    a      522       21
 
 number of basis functions   :                    522
 number of occupied orbitals :                     21
 
  
           ------------------
           density functional
           ------------------
 TPSS meta-GGA functional
 exchange:    LDA + TPSS
 correlation: LDA (PW) + TPSS

 iterations will be done with small grid
  
 spherical integration : Lebedev's spherical grid
 spherical gridsize    :                     5
    i.e. gridpoints    :                   590
 value for diffuse not defined
 radial integration    : Chebyshev 2nd kind (scaling 3)
 radial gridsize       :                     8
 integration cells     :                    12
 partition function    : becke
 partition sharpness   :                     3
  

 biggest AO integral is expected to be     5.262544080
  
           ------------------------
               RI-J - INFORMATION
           ------------------------
 Contributions to RI integral batches: 
  neglected integral batches:                  1436
  direct contribution:                         2239
  memory contribution:                  9528
 Memory core needed for (P|Q) and Cholesky      1 MByte
 Memory core minimum needed except of (P|Q)     2 MByte
 Total minimum memory core needed (sum)         3 MByte
  
 ****************************************
 Memory allocated for RI-J   432 MByte
 ****************************************
                                            

          ------------------------
          nuclear repulsion energy  :   203.621439855    
          ------------------------


         -----------------
         -S,T+V- integrals
         -----------------

 1e-integrals will be neglected if expon. factor < 0.520555E-14
 
   Difference densities algorithm switched on.
   The maximal number of linear combinations of
   difference densities is                    20 .

 DIIS switched on: error vector is FDS-SDF
 Max. Iterations for DIIS is     :   4
 DIIS matrix (see manual) 
    Scaling factor of diagonals  :  1.200
    threshold for scaling factor :  0.000

 scf convergence criterion : increment of total energy < .1000000D-08
                  and increment of one-electron energy < .1000000D-05

  MOs are in ASCII format !


 automatic virtual orbital shift switched on 
      shift if e(lumo)-e(homo) < 0.10000000    


 reading orbital data $scfmo  from file mos
 orbital characterization : expanded
 mo provided and orthogonalized by Cholesky decomposition

 DSCF restart information will be dumped onto file mos


 Starting SCF iterations

          Overall gridpoints after grid construction =         58190

 ITERATION  ENERGY          1e-ENERGY        2e-ENERGY     NORM[dD(SAO)]  TOL
   1  -231.60408661850    -704.44542338     269.21989691    0.000D+00 0.519D-13
                            Exc = -33.8169306540     Coul =  303.036827563    
                              N = 41.999958957    
                            current damping = 0.700
 
          max. resid. norm for Fia-block=  5.260D-01 for orbital      7a         
          max. resid. fock norm         =  4.784D+01 for orbital    437a         

 ITERATION  ENERGY          1e-ENERGY        2e-ENERGY     NORM[dD(SAO)]  TOL
   2  -232.22332279030    -711.43225139     275.58748874    0.129D+01 0.415D-13
                            Exc = -34.4881610572     Coul =  310.075649800    
                              N = 41.999960800    
                            current damping = 0.650
 
          Norm of current diis error:  2.9733    
          max. resid. norm for Fia-block=  1.129D-01 for orbital      4a         
          max. resid. fock norm         =  1.706D-01 for orbital    493a         

 ITERATION  ENERGY          1e-ENERGY        2e-ENERGY     NORM[dD(SAO)]  TOL
   3  -232.34564411054    -712.82429297     276.85720900    0.445D+00 0.271D-13
                            Exc = -34.6846705474     Coul =  311.541879550    
                              N = 41.999963997    
                            current damping = 0.550
 
          Norm of current diis error:  1.4297    
          max. resid. norm for Fia-block=  5.506D-02 for orbital      7a         
          max. resid. fock norm         =  6.229D-02 for orbital      7a         

 ITERATION  ENERGY          1e-ENERGY        2e-ENERGY     NORM[dD(SAO)]  TOL
   4  -232.38173977517    -714.15689619     278.15371656    0.134D+00 0.222D-13
                            Exc = -34.8228805854     Coul =  312.976597144    
                              N = 41.999963702    
                            current damping = 0.450
 
          Norm of current diis error: 0.52283    
          max. resid. norm for Fia-block=  2.093D-02 for orbital      7a         
          max. resid. fock norm         =  2.305D-02 for orbital      7a         

 ITERATION  ENERGY          1e-ENERGY        2e-ENERGY     NORM[dD(SAO)]  TOL
   5  -232.38758265384    -714.39216617     278.38314366    0.351D-01 0.200D-13
                            Exc = -34.8647124885     Coul =  313.247856145    
                              N = 41.999964371    
                            current damping = 0.300
 
          Norm of current diis error: 0.19095    
          max. resid. norm for Fia-block=  7.434D-03 for orbital      7a         
          max. resid. fock norm         =  8.397D-03 for orbital      7a         
          mo-orthogonalization: Cholesky decomposition

 ITERATION  ENERGY          1e-ENERGY        2e-ENERGY     NORM[dD(SAO)]  TOL
   6  -232.38841016364    -714.69477988     278.68492986    0.126D-01 0.190D-13
                            Exc = -34.8920361065     Coul =  313.576965966    
                              N = 41.999964172    
                            current damping = 0.150
 
          Norm of current diis error: 0.46964E-01
          max. resid. norm for Fia-block=  1.697D-03 for orbital     20a         
          max. resid. fock norm         =  2.878D-03 for orbital     74a         

 ITERATION  ENERGY          1e-ENERGY        2e-ENERGY     NORM[dD(SAO)]  TOL
   7  -232.38845259018    -714.60129455     278.59140211    0.293D-02 0.185D-13
                            Exc = -34.8890787426     Coul =  313.480480850    
                              N = 41.999964456    
                            current damping = 0.200
 
          Norm of current diis error: 0.28027E-01
          max. resid. norm for Fia-block=  6.196D-04 for orbital     12a         
          max. resid. fock norm         =  8.232D-04 for orbital    490a         

 ITERATION  ENERGY          1e-ENERGY        2e-ENERGY     NORM[dD(SAO)]  TOL
   8  -232.38846678434    -714.65600074     278.64609410    0.860D-03 0.183D-13
                            Exc = -34.8925910547     Coul =  313.538685152    
                              N = 41.999964376    
                            current damping = 0.250
 
          Norm of current diis error: 0.28880E-02
          max. resid. norm for Fia-block=  1.540D-04 for orbital     21a         
          max. resid. fock norm         =  3.863D-04 for orbital    520a         

 ITERATION  ENERGY          1e-ENERGY        2e-ENERGY     NORM[dD(SAO)]  TOL
   9  -232.38846646452    -714.65798696     278.64808064    0.717D-03 0.182D-13
                            Exc = -34.8927390288     Coul =  313.540819672    
                              N = 41.999964376    
                            current damping = 0.300
 
          Norm of current diis error: 0.47092E-02
          max. resid. norm for Fia-block=  7.067D-05 for orbital     21a         
          max. resid. fock norm         =  1.787D-04 for orbital    520a         

 ITERATION  ENERGY          1e-ENERGY        2e-ENERGY     NORM[dD(SAO)]  TOL
  10  -232.38846693187    -714.65790571     278.64799892    0.284D-04 0.181D-13
                            Exc = -34.8927419424     Coul =  313.540740865    
                              N = 41.999964377    
                            current damping = 0.350
 
          Norm of current diis error: 0.14411E-02
          max. resid. norm for Fia-block=  2.960D-05 for orbital     21a         
          max. resid. fock norm         =  7.440D-05 for orbital    520a         
          mo-orthogonalization: Cholesky decomposition

 ITERATION  ENERGY          1e-ENERGY        2e-ENERGY     NORM[dD(SAO)]  TOL
  11  -232.38846697966    -714.65766625     278.64775941    0.416D-05 0.178D-13
                            Exc = -34.8927327370     Coul =  313.540492148    
                              N = 41.999964378    
                            current damping = 0.200
 
          Norm of current diis error: 0.12392E-03
          max. resid. norm for Fia-block=  2.659D-06 for orbital     21a         
          max. resid. fock norm         =  7.450D-06 for orbital    510a         

 ITERATION  ENERGY          1e-ENERGY        2e-ENERGY     NORM[dD(SAO)]  TOL
  12  -232.38846698001    -714.65765496     278.64774812    0.286D-05 0.175D-13
                            Exc = -34.8927309966     Coul =  313.540479119    
                              N = 41.999964378    
                            current damping = 0.050
 
          Norm of current diis error: 0.11151E-04
          max. resid. norm for Fia-block=  5.117D-07 for orbital     16a         
          max. resid. fock norm         =  1.738D-06 for orbital    510a         

 ITERATION  ENERGY          1e-ENERGY        2e-ENERGY     NORM[dD(SAO)]  TOL
  13  -232.38846698001    -714.65762627     278.64771944    0.114D-05 0.172D-13
                            Exc = -34.8927297207     Coul =  313.540449160    
                              N = 41.999964378    
                            current damping = 0.050
 
          Norm of current diis error: 0.12960E-04
          max. resid. norm for Fia-block=  2.567D-07 for orbital     16a         
          max. resid. fock norm         =  4.904D-07 for orbital      4a         

 ITERATION  ENERGY          1e-ENERGY        2e-ENERGY     NORM[dD(SAO)]  TOL
  14  -232.38846698002    -714.65764536     278.64773852    0.198D-06 0.172D-13
                            Exc = -34.8927308442     Coul =  313.540469369    
                              N = 41.999964378    
                            current damping = 0.100
 
          Norm of current diis error: 0.21016E-05
          max. resid. norm for Fia-block=  7.312D-08 for orbital     21a         
          max. resid. fock norm         =  1.609D-07 for orbital      1a         

 ENERGY CONVERGED !

          Overall gridpoints after grid construction =        188429

 ITERATION  ENERGY          1e-ENERGY        2e-ENERGY     NORM[dD(SAO)]  TOL
  15  -232.38834862063    -714.65764429     278.64785582    0.647D-07 0.171D-13
                            Exc = -34.8926123408     Coul =  313.540468157    
                              N = 41.999999332    
                            current damping = 0.150
 
          Norm of current diis error: 0.13537E-05
          max. resid. norm for Fia-block=  2.710D-08 for orbital     14a         
          max. resid. fock norm         =  6.287D-08 for orbital      4a         

 End of SCF iterations

   convergence criteria satisfied after    15 iterations


                  ------------------------------------------ 
                 |  total energy      =   -232.38834862063  |
                  ------------------------------------------ 
                 :  kinetic energy    =    231.31331512661  :
                 :  potential energy  =   -463.70166374724  :
                 :  virial theorem    =      1.99537397851  :
                 :  wavefunction norm =      1.00000000000  :
                  .......................................... 


 <geterg> : there is no data group $energy 


 <skperg> : $end is missing 


 orbitals $scfmo  will be written to file mos

    irrep                 17a         18a         19a         20a         21a   
 eigenvalues H         -0.33431    -0.30707    -0.30704    -0.23117    -0.23115
            eV          -9.0971     -8.3558     -8.3551     -6.2904     -6.2900
 occupation              2.0000      2.0000      2.0000      2.0000      2.0000 

    irrep                 22a         23a         24a         25a         26a   
 eigenvalues H         -0.03707    -0.03704     0.01533     0.04027     0.04027
            eV          -1.0086     -1.0080      0.4170      1.0958      1.0959
 
 
 
 
 ==============================================================================
                           electrostatic moments
 ==============================================================================

 reference point for electrostatic moments:    0.00000   0.00000   0.00000

 
              nuc           elec       ->  total
 ------------------------------------------------------------------------------
                          charge      
 ------------------------------------------------------------------------------
          42.000000     -42.000000       0.000000
 
 ------------------------------------------------------------------------------
                       dipole moment  
 ------------------------------------------------------------------------------
   x      -8.845066       8.845028      -0.000038
   y      -4.591661       4.591896       0.000235
   z      30.104174     -30.098940       0.005234
 
   | dipole moment | =     0.0052 a.u. =     0.0133 debye 
 
 ------------------------------------------------------------------------------
                     quadrupole moment
 ------------------------------------------------------------------------------
  xx     192.370237    -216.252306     -23.882069
  yy     191.034448    -214.915301     -23.880853
  zz      21.828715     -51.132554     -29.303839
  xy       1.091364      -1.087819       0.003545
  xz      -1.241665       1.390770       0.149105
  yz      -7.952213       7.824376      -0.127838
 
     1/3  trace=     -25.688920
     anisotropy=       5.433042
 
 ==============================================================================
 


    ------------------------------------------------------------------------
         total  cpu-time :  6 minutes and 38 seconds
         total wall-time : 14 minutes and  2 seconds
    ------------------------------------------------------------------------

   ****  ridft : all done  ****


    2018-05-18 15:56:34.333 

