
 eiger (gplogin3.local) : TURBOMOLE V7.2 ( 21285 ) 30 Jun 2017 at 11:51:10
 Copyright (C) 2017 TURBOMOLE GmbH, Karlsruhe


    2017-11-13 10:38:40.007 

                                                                                
  
 HOMO-LUMO Separation
   HOMO:   338.   338 a     -0.17475011 H =     -4.75520 eV
   LUMO:   339.   339 a     -0.11409319 H =     -3.10464 eV
   Gap :                    +0.06065693 H =     +1.65056 eV
 
Number of MOs=   7280, Electrons=    676.00, Symmetry: c1   
 
   Nr.   Orbital    Occupation       Energy
  355.   355 a                     -0.045575 H =        -1.240 eV
  354.   354 a                     -0.046496 H =        -1.265 eV
  353.   353 a                     -0.046852 H =        -1.275 eV
  352.   352 a                     -0.048560 H =        -1.321 eV
  351.   351 a                     -0.048808 H =        -1.328 eV
  350.   350 a                     -0.049079 H =        -1.336 eV
  349.   349 a                     -0.050770 H =        -1.382 eV
  348.   348 a                     -0.051233 H =        -1.394 eV
  347.   347 a                     -0.056636 H =        -1.541 eV
  346.   346 a                     -0.060735 H =        -1.653 eV
  345.   345 a                     -0.072076 H =        -1.961 eV
  344.   344 a                     -0.072081 H =        -1.961 eV
  343.   343 a                     -0.099040 H =        -2.695 eV
  342.   342 a                     -0.099569 H =        -2.709 eV
  341.   341 a                     -0.099953 H =        -2.720 eV
  340.   340 a                     -0.100762 H =        -2.742 eV
  339.   339 a                     -0.114093 H =        -3.105 eV
  338.   338 a        2.000        -0.174750 H =        -4.755 eV
  337.   337 a        2.000        -0.175699 H =        -4.781 eV
  336.   336 a        2.000        -0.176121 H =        -4.792 eV
  335.   335 a        2.000        -0.187808 H =        -5.111 eV
  334.   334 a        2.000        -0.188718 H =        -5.135 eV
  333.   333 a        2.000        -0.212598 H =        -5.785 eV
  332.   332 a        2.000        -0.212680 H =        -5.787 eV
  331.   331 a        2.000        -0.214033 H =        -5.824 eV
  330.   330 a        2.000        -0.214242 H =        -5.830 eV
  329.   329 a        2.000        -0.231664 H =        -6.304 eV
  328.   328 a        2.000        -0.232332 H =        -6.322 eV
  327.   327 a        2.000        -0.233709 H =        -6.360 eV
  326.   326 a        2.000        -0.234345 H =        -6.377 eV
  325.   325 a        2.000        -0.236264 H =        -6.429 eV
  324.   324 a        2.000        -0.238237 H =        -6.483 eV
  323.   323 a        2.000        -0.238988 H =        -6.503 eV


    ------------------------------------------------------------------------
         total  cpu-time :  24.08 seconds
         total wall-time :  24.12 seconds
    ------------------------------------------------------------------------

   ****  eiger : all done  ****


    2017-11-13 10:39:04.107 

