
   OpenMP run-time library returned nthreads = 28

 ricc2 (c-15-24) : TURBOMOLE V7.3 ( 22142 ) 4 Jul 2018 at 18:12:42
 Copyright (C) 2018 TURBOMOLE GmbH, Karlsruhe


    2019-04-01 21:50:37.842 



                              R I C C 2 - PROGRAM

                          the quantum chemistry groups
                             at the universities in
                           Karlsruhe, Bochum & Mainz
                                   Germany



   *-----------------------------------------------------------------------*
   |                     program will use 28 thread(s)                     |
   *-----------------------------------------------------------------------*


              +--------------------------------------------------+
              | Atomic coordinate, charge and isotop information |
              +--------------------------------------------------+

                    atomic coordinates            atom    charge  isotop
         -1.07659254    1.53894091    0.19104705    n      0.000     0
          0.24732308    1.06091238   -1.11043058    h      0.000     0
         -2.76136637    0.99572467   -0.52993583    h      0.000     0
         -0.57733848    0.12417447    2.51105246    c      0.000     0
         -1.99772300    0.59388455    3.92299473    h      0.000     0
         -0.54428559   -1.93185282    2.29572672    h      0.000     0
          1.24808422    0.69638133    3.26968398    h      0.000     0
          4.26490694    5.08355208   -0.28218770    c      6.000     0
          4.50040171    5.86056349   -2.17010788    h      1.000     0
          5.22218810    6.29485245    1.07422847    h      1.000     0
          2.24968077    5.03341854    0.13056898    h      1.000     0
          5.23243101    2.40430275   -0.27785261    c      6.000     0
          4.36319500    0.76829801   -1.67469019    o      8.000     0
          7.09661366    1.88834639    1.40840805    n      7.000     0
          7.85205251    3.31496258    2.40118088    h      1.000     0
          8.20861419   -0.60531835    1.55486101    c      6.000     0
          6.71917625   -2.00622930    1.37907756    h      1.000     0
          9.57159765   -0.93034250    0.04583080    h      1.000     0
          9.14337387   -0.82427749    3.36888382    h      1.000     0
 
       center of nuclear mass  :    3.85629016    1.56268761    0.49838698
       center of nuclear charge:    5.90190098    1.93507439    0.21649804

              +--------------------------------------------------+
              |               basis set information              |
              +--------------------------------------------------+

              we will work with the 1s 3p 5d 7f 9g ... basis set
              ...i.e. with spherical basis functions...

   type   atoms  prim   cont   basis
   ---------------------------------------------------------------------------
    n        2     77     55   cc-pVQZ   [5s4p3d2f1g|21s6p3d2f1g]
    h       12     32     30   cc-pVQZ   [4s3p2d1f|6s3p2d1f]
    c        4     77     55   cc-pVQZ   [5s4p3d2f1g|21s6p3d2f1g]
    o        1     77     55   cc-pVQZ   [5s4p3d2f1g|21s6p3d2f1g]
   ---------------------------------------------------------------------------
   total:   19    923    745
   ---------------------------------------------------------------------------

   total number of primitive shells          :  111
   total number of contracted shells         :  225
   total number of cartesian basis functions :  910
   total number of SCF-basis functions       :  745


 symmetry group of the molecule :   c1 

 the group has the following generators :
   c1(z)

    1 symmetry operations found

 there are 1 real representations :   a   


   =========================================================================


     restricted closed shell calculation for the wavefunction models:
               MP2        - Second Order Moeller Plesset PT


     global parameters for ricc2 program:

        hard restart (reuse of interm.) :  disabled
        soft restart (reuse of vectors) :  disabled
        threshold for vector function   :    0.100000E-05
        convergence threshold energy    :    0.100000E-06
        linear dependence threshold     :    0.100000E-13
        global print level              :      1
        maximum number of iterations    :   300
        maximum number DIIS vectors     :    10
        max. dim. of reduced space      :   100
        core memory limit (MB)          : *****


     MP2 energy only: Energy will be calculated directly from T2 amplitudes!

     Scratch Directory : 


   =========================================================================

    der. integral neglect threshold  :  0.10E-07
    integral neglect threshold       :  0.37E-11
    integral storage threshold THIZE :  0.10E-04
    integral storage threshold THIME :         5


                  +------------------------------------------+
                  |     Auxiliary basis set information      |
                  +------------------------------------------+

              we will work with the 1s 3p 5d 7f 9g ... basis set
              ...i.e. with spherical basis functions...

   type   atoms  prim   cont   basis
   ---------------------------------------------------------------------------
    n        2    132    132   cc-pVQZ   [8s7p6d5f3g1h|8s7p6d5f3g1h]
    h       12     55     55   cc-pVQZ   [5s4p3d2f1g|5s4p3d2f1g]
    c        4    132    132   cc-pVQZ   [8s7p6d5f3g1h|8s7p6d5f3g1h]
    o        1    132    132   cc-pVQZ   [8s7p6d5f3g1h|8s7p6d5f3g1h]
   ---------------------------------------------------------------------------
   total:   19   1584   1584
   ---------------------------------------------------------------------------

   total number of primitive shells          :  105
   total number of contracted shells         :  390
   total number of cartesian basis functions : 2107
   total number of SCF-basis functions       : 1584


 maximum number of shells which are related by symmetry :  1


 The symmetry information takes   1 MB

*---------------------------------------------------------------------*
|               simplified C1 algorithm will be applied               |
*---------------------------------------------------------------------*
  MOs are in ASCII format !


 reading orbital data $scfmo  from file mos
 orbital characterization : scfconv=9



              +--------------------------------------------+
              | list of orbitals that will be kept frozen: |
              +--------------------------------------------+
              |   irrep   index      energy     occ/vir    |
              +--------------------------------------------+
              |   a         1      -20.5063     occupied   |
              |   a         2      -15.5834     occupied   |
              |   a         3      -11.3439     occupied   |
              |   a         4      -11.2559     occupied   |
              |   a         5      -11.2343     occupied   |
              +--------------------------------------------+



   Molecular Orbital Statistic:
   ============================

   -----------------------------
   orbitals in total:
   -----------------------------
    frozen occupied :      5
    active occupied :     15
    active virtual  :    725
    frozen virtual  :      0
    all together    :    745
   -----------------------------


     time in riccmos       cpu:  8.49 sec    wall:  0.71 sec    ratio: 11.9

     total memory allocated for calculation of (Q|P)**(-1/2) : 29 MiB


     calculation of (P|Q) ...
     time in lp2sym        cpu:  3.07 sec    wall:  0.11 sec    ratio: 27.9


     calculation of the Cholesky decomposition of (P|Q)**(-1) ...
     time in invmetri      cpu: 11.20 sec    wall:  0.42 sec    ratio: 26.9

   threshold for RMS(d[D]) in SCF was     :  0.10E-06
   integral neglect threshold             :  0.37E-11
   derivative integral neglect threshold  :  0.10E-07


   =========================================================================

     Energy of reference wave function is  -247.1176117175000
     Maximum orbital residual is           0.1813757994453E-05


     Number of symmetry-nonredundant auxiliary basis functions:     1584

     Block lengths for integral files:
        frozen occupied (BOI):        1 MiB
        active occupied (BJI):        1 MiB
        active virtual  (BAI):        9 MiB
        frozen virtual  (BGI):        0 MiB
               general  (BTI):       10 MiB

   =========================================================================




   **************************************************************************
   *                                                                        *
   *          OPTIMIZATION OF THE GROUND STATE CLUSTER AMPLITUDES           *
   *                                                                        *
   **************************************************************************


   Iter.   MP2 energy       Norm(Omega)   Norm(t1)  Norm(t2)     cpu    wall
   ...........................................................................
    1   -248.1334305338     ------          0.00000   0.31975    2.90    0.10
   ...........................................................................


     time in total         cpu:  2 min 54 s  wall:  0 min  6 s  ratio: 27.6


     **********************************************************************
     *                                                                    *
     *   RHF  energy                             :   -247.1176117175      *
     *   MP2 correlation energy (doubles)        :     -1.0158188163      *
     *                                                                    *
     *   Final MP2 energy                        :   -248.1334305338      *
     *                                                                    *
     *    E(S)   =     -0.6587747874      E(T)   =     -0.3570440289      *
     *    E(OS)  =     -0.7777894637      E(SS)  =     -0.2380293526      *
     *                                                                    *
     *   SCS-MP2 energy                          :   -248.1303021915      *
     *   (computed with  C(OS) =   1.2000  and  C(SS) =   0.3333)         *
     *                                                                    *
     *   SOS-MP2 energy                          :   -248.1287380203      *
     *   (computed with  C(OS) =   1.3000)                                *
     *                                                                    *
     *   Norm of MP1 T2 amplitudes               :      0.3197452539      *
     *                                                                    *
     **********************************************************************



    ------------------------------------------------------------------------
         total  cpu-time :  4 minutes and 38 seconds
         total wall-time :  11.02 seconds
    ------------------------------------------------------------------------

   ****  ricc2 : all done  ****


    2019-04-01 21:50:48.798 

