 this is node-proc. number 0 running on node c-4-15.local
 the total number of node-proc. spawned is  33

 dscfserver (c-4-15.local) : TURBOMOLE V7.2 ( 21471 ) 7 Nov 2017 at 16:15:16
 Copyright (C) 2017 TURBOMOLE GmbH, Karlsruhe


    2018-02-12 14:28:15.376 

 
    0:02:19 ---- Start global counter...
    2:03:50 ---- ... finished.
 
    2:06:40 ---- Start global counter...
    4:02:34 ---- ... finished.
 
    4:05:23 ---- Start global counter...
    5:53:44 ---- ... finished.
 
    5:56:36 ---- Start global counter...
    7:32:10 ---- ... finished.
 
    7:35:56 ---- Start global counter...
    9:03:27 ---- ... finished.
 
    9:06:19 ---- Start global counter...
   10:22:25 ---- ... finished.
 
   10:25:25 ---- Start global counter...
   11:34:58 ---- ... finished.
 
   11:37:49 ---- Start global counter...
   12:39:54 ---- ... finished.
 
   12:42:48 ---- Start global counter...
   13:38:13 ---- ... finished.
 
   13:42:09 ---- Start global counter...
   14:31:26 ---- ... finished.
 
   14:34:25 ---- Start global counter...
   15:17:46 ---- ... finished.
 
   15:20:51 ---- Start global counter...
   15:57:56 ---- ... finished.
 
   16:01:21 ---- Start global counter...
   16:35:04 ---- ... finished.
 
   16:38:49 ---- Start global counter...
   17:12:40 ---- ... finished.
 
   17:17:01 ---- Start global counter...
   17:57:48 ---- ... finished.
 
   18:00:53 ---- Start global counter...
   18:35:38 ---- ... finished.
 
   18:37:59 ---- ByeBye Tag received


 ! Total wall-clock time in seconds  :    67079.1
 ! Time (sec) spent in global counter:    63891.5
 ! So-called SERIAL wall-clock time  :     3187.6

  *** Regular termination of server ***
 total turnaround time of dscfserver 67080.97 sec
 cpu elapsed by dscfserver process   63924.52 sec 

   ***  dscf server : all done  ***


    2018-02-13 09:06:16.344 

