 this is node-proc. number 0 running on node c-4-7.local
 the total number of node-proc. spawned is  33

 dscfserver (c-4-7.local) : TURBOMOLE V7.2 ( 21471 ) 7 Nov 2017 at 16:15:16
 Copyright (C) 2017 TURBOMOLE GmbH, Karlsruhe


    2018-02-21 00:17:59.304 

 
    0:01:36 ---- Start global counter...
    0:39:01 ---- ... finished.
 
    0:40:33 ---- Start global counter...
    1:15:37 ---- ... finished.
 
    1:17:11 ---- Start global counter...
    1:51:16 ---- ... finished.
 
    1:52:50 ---- Start global counter...
    2:24:30 ---- ... finished.
 
    2:26:06 ---- Start global counter...
    2:54:50 ---- ... finished.
 
    2:56:50 ---- Start global counter...
    3:23:40 ---- ... finished.
 
    3:25:16 ---- Start global counter...
    3:49:25 ---- ... finished.
 
    3:50:58 ---- Start global counter...
    4:13:44 ---- ... finished.
 
    4:15:17 ---- Start global counter...
    4:36:07 ---- ... finished.
 
    4:37:42 ---- Start global counter...
    4:57:25 ---- ... finished.
 
    4:59:27 ---- Start global counter...
    5:17:28 ---- ... finished.
 
    5:19:03 ---- Start global counter...
    5:35:15 ---- ... finished.
 
    5:36:50 ---- Start global counter...
    5:50:43 ---- ... finished.
 
    5:52:17 ---- Start global counter...
    6:04:35 ---- ... finished.
 
    6:06:09 ---- Start global counter...
    6:24:03 ---- ... finished.
 
    6:26:03 ---- Start global counter...
    6:36:10 ---- ... finished.
 
    6:37:29 ---- ByeBye Tag received


 ! Total wall-clock time in seconds  :    23848.6
 ! Time (sec) spent in global counter:    22181.6
 ! So-called SERIAL wall-clock time  :     1667.0

  *** Regular termination of server ***
 total turnaround time of dscfserver 23849.75 sec
 cpu elapsed by dscfserver process   22192.94 sec 

   ***  dscf server : all done  ***


    2018-02-21 06:55:29.056 

