Using Slurm to start processes with PMI2
STARTING ridft ON 8 PROCESSORS!
RUNNING PROGRAM /beegfs/modfac/apps/TURBOMOLE/7.0_intel_GA/bin/em64t-unknown-linux-gnu_mpi/ridft_mpi.
PLEASE WAIT UNTIL ridft HAS FINISHED.
Look for the output in slave1.output.
  this is node-proc. number 1 running on node c-7-11.local
  the total number of node-proc. spawned is            8
  parallel platform: MPP, or cluster with fast interconnect

 ridft (c-7-11.local) : TURBOMOLE V7.0.2( ) 15 Jan 2016 at 17:47:42
 Copyright (C) 2016 TURBOMOLE GmbH, Karlsruhe


    2017-11-10 23:57:13.265 



                                  r i d f t

                        DFT program with RI approximation 
                                for coulomb part 




                                                 
                                 References:     
                                                 
          TURBOMOLE:                             
              R. Ahlrichs, M. Baer, M. Haeser, H. Horn, and
              C. Koelmel
              Electronic structure calculations on workstation
              computers: the program system TURBOMOLE
              Chem. Phys. Lett. 162: 165 (1989)
          Density Functional:                              
              O. Treutler and R. Ahlrichs                      
              Efficient Molecular Numerical Integration Schemes
              J. Chem. Phys. 102: 346 (1995)                   
          Parallel Version:                                
              Performance of parallel TURBOMOLE for Density    
              Functional Calculations                          
              M. v. Arnim and R. Ahlrichs                      
              J. Comp. Chem. 19: 1746 (1998)                   
          RI-J Method:                                     
              Auxiliary Basis Sets to approximate Coulomb      
              Potentials                                       
              Chem. Phys. Lett. 240: 283 (1995)                
              K. Eichkorn, O. Treutler, H. Oehm, M. Haeser     
              and R. Ahlrichs                                  
              Chem. Phys. Lett. 242: 652 (1995)                
                                                           
              Auxiliary Basis Sets for Main Row Atoms and their
              Use to approximate Coulomb Potentials            
              K. Eichkorn, F. Weigend, O. Treutler and         
              R. Ahlrichs                                      
              Theo. Chem. Acc. 97: 119 (1997)                   
                                                           
              Accurate Coulomb-fitting basis sets for H to Rn 
              F. Weigend                                        
              Phys. Chem. Chem. Phys. 8: 1057 (2006)            
                                                           
          Multipole accelerated RI-J (MARI-J):             
              Fast evaluation of the Coulomb potential for     
              electron densities using multipole accelerated   
              resolution of identity approximation             
              M. Sierka, A. Hogekamp and R. Ahlrichs           
              J. Chem. Phys. 118: 9136 (2003)                  
          RI-JK Method:                                     
              A fully direct RI-HF algorithm: Implementation,
              optimised auxiliary basis sets, demonstration of
              accuracy and efficiency                         
              F. Weigend                                      
              Phys. Chem. Chem. Phys. 4: 4285 (2002)           
          Two-component HF and DFT with spin-orbit coupling:  
              Self-consistent treatment of spin-orbit         
              interactions with efficient Hartree-Fock and    
              density functional methods                      
              M. K. Armbruster, F. Weigend, C. van Wüllen and 
              W. Klopper                                      
              Phys. Chem. Chem. Phys. 10: 1748 (2008)         
          Relativistic all-electron 2c calculations           
              An efficient implementation of two-component    
              relativistic exact-decoupling methods for large 
              molecules                                       
              D. Peng, N. Middendorf, F. Weigend, M. Reiher   
              J. Chem. Phys. 138, 184105 (2013)               
                                         


 


              +--------------------------------------------------+
              |      general information about current run       |
              +--------------------------------------------------+

 

 SCF run will be profiled !


 DENSITY CONVERGENCE CHECK SWITCHED ON !
 SCF CONVERGENCE IF RMS(delta[D]) <     0.1000000000E-06

 PBE functional
 exchange:    LDA + PBE
 correlation: LDA (PW) + PBE
 A DFT calculation using the RI-J approximation will be carried out.
 Allocatable memory for RI due to $ricore (MB):       10000


              +--------------------------------------------------+
              | Atomic coordinate, charge and isotop information |
              +--------------------------------------------------+

                    atomic coordinates            atom    charge  isotop
        -10.49964130    9.07910480    0.00000000    c      6.000     0
          2.62586950  -13.63057277    0.00000000    c      6.000     0
          0.28265936  -10.28451263   -2.38172994    c      6.000     0
          0.28265936  -10.28451263    2.38172994    c      6.000     0
         -8.76595169    5.37900619    2.38167817    c      6.000     0
         -8.76595169    5.37900619   -2.38167817    c      6.000     0
          1.88671320  -10.82152476    0.00000000    c      6.000     0
         -8.43321781    7.03764874    0.00000000    c      6.000     0
          5.58516377    3.22863502    0.00000000    c      6.000     0
          3.50107814    7.06918865    0.00000000    c      6.000     0
          7.87144177   -0.49520099    0.00000000    c      6.000     0
          5.87454110   -4.76788865    0.00000000    c      6.000     0
         -1.19768736    7.47290876    0.00000000    c      6.000     0
          5.60938571   -2.03388260    0.00000000    c      6.000     0
          1.03850062    5.87789952    0.00000000    c      6.000     0
         -0.80683004   10.12174826    0.00000000    c      6.000     0
          8.36483599   -5.75151956    0.00000000    c      6.000     0
         -5.76831828    8.16669482    0.00000000    c      6.000     0
          4.19441596   -9.07488372    0.00000000    c      6.000     0
          3.22730485    1.86624501    0.00000000    c      6.000     0
          3.83559177   -6.46114984    0.00000000    c      6.000     0
         -3.68257007    6.55126691    0.00000000    c      6.000     0
          1.73878715   11.06068092    0.00000000    c      6.000     0
         10.44944224   -4.01498742    0.00000000    c      6.000     0
          3.30642068   -0.78909893    0.00000000    c      6.000     0
          0.96638149    3.26104042    0.00000000    c      6.000     0
         -5.33310343   10.79722760    0.00000000    c      6.000     0
          6.69104918  -10.01069643    0.00000000    c      6.000     0
         -2.89835004   11.75882639    0.00000000    c      6.000     0
          8.73948305   -8.38093117    0.00000000    c      6.000     0
          5.66848689    5.78370386    0.00000000    n      7.000     0
          7.84019099    2.02452109    0.00000000    n      7.000     0
          3.78120867    9.67652655    0.00000000    n      7.000     0
         10.27025049   -1.55432551    0.00000000    n      7.000     0
          1.92116253   -5.72491732    0.00000000    h      1.000     0
         -3.99993670    4.52488161    0.00000000    h      1.000     0
         -6.91591921   12.09722151    0.00000000    h      1.000     0
          7.02757178  -12.03110359    0.00000000    h      1.000     0
          1.53645343   -1.82894068    0.00000000    h      1.000     0
         -0.81841822    2.24707185    0.00000000    h      1.000     0
         -2.58391834   13.78902554    0.00000000    h      1.000     0
         10.65567654   -9.12173456    0.00000000    h      1.000     0
         12.35622282   -4.80071036    0.00000000    h      1.000     0
          2.01032301   13.10501484    0.00000000    h      1.000     0
          0.90745001  -14.78326896    0.00000000    h      1.000     0
        -12.35581218    8.16463880    0.00000000    h      1.000     0
         -7.38509811    3.83950501   -2.42904415    h      1.000     0
         -7.38509811    3.83950501    2.42904415    h      1.000     0
         -0.36521733   -8.32073754   -2.42976848    h      1.000     0
         -0.36521733   -8.32073754    2.42976848    h      1.000     0
          3.72704043  -14.12997179   -1.68037194    h      1.000     0
          3.72704043  -14.12997179    1.68037194    h      1.000     0
        -10.38334605   10.28291411    1.68013289    h      1.000     0
        -10.38334605   10.28291411   -1.68013289    h      1.000     0
         -8.53663722    6.50964588    4.09996746    h      1.000     0
         -8.53663722    6.50964588   -4.09996746    h      1.000     0
          1.37770965  -10.64937034   -4.09963997    h      1.000     0
          1.37770965  -10.64937034    4.09963997    h      1.000     0
         -1.38392628  -11.51348175   -2.39285401    h      1.000     0
         -1.38392628  -11.51348175    2.39285401    h      1.000     0
        -10.66107247    4.54481066   -2.39361084    h      1.000     0
        -10.66107247    4.54481066    2.39361084    h      1.000     0
 
       center of nuclear mass  :    1.54630475    0.89407930    0.00000000
       center of nuclear charge:    1.33458195    0.77165841    0.00000000

              +--------------------------------------------------+
              |               basis set information              |
              +--------------------------------------------------+

              we will work with the 1s 3p 5d 7f 9g ... basis set
              ...i.e. with spherical basis functions...

   type   atoms  prim   cont   basis
   ---------------------------------------------------------------------------
    c       30     77     55   cc-pVQZ   [5s4p3d2f1g|21s6p3d2f1g]
    n        4     77     55   cc-pVQZ   [5s4p3d2f1g|21s6p3d2f1g]
    h       28     32     30   cc-pVQZ   [4s3p2d1f|6s3p2d1f]
   ---------------------------------------------------------------------------
   total:   62   3514   2710
   ---------------------------------------------------------------------------

   total number of primitive shells          :   78
   total number of contracted shells         :  790
   total number of cartesian basis functions : 3360
   total number of SCF-basis functions       : 2710


 integral neglect threshold       :  0.99E-14
 integral storage threshold THIZE :  0.10E-04
 integral storage threshold THIME :         5

 RI-J AUXILIARY BASIS SET information:

              we will work with the 1s 3p 5d 7f 9g ... basis set
              ...i.e. with spherical basis functions...

   type   atoms  prim   cont   basis
   ---------------------------------------------------------------------------
    c       30     70     49   cc-pVQZ   [6s4p3d1f1g|12s5p4d2f1g]
    n        4     70     49   cc-pVQZ   [6s4p3d1f1g|12s5p4d2f1g]
    h       28     16     11   cc-pVQZ   [3s1p1d|5s2p1d]
   ---------------------------------------------------------------------------
   total:   62   2828   1974
   ---------------------------------------------------------------------------

   total number of primitive shells          :   56
   total number of contracted shells         :  650
   total number of cartesian basis functions : 2410
   total number of SCF-basis functions       : 1974


 symmetry group of the molecule :   c1 

 the group has the following generators :
   c1(z)

    1 symmetry operations found

 there are 1 real representations :   a   

 maximum number of shells which are related by symmetry :  1


    mo occupation :
   irrep   mo's   occupied
    a     2710      118
 
 number of basis functions   :         2710
 number of occupied orbitals :          118
 
  
           ------------------
           density functional
           ------------------
 PBE functional
 exchange:    LDA + PBE
 correlation: LDA (PW) + PBE
 grinp -> nfun, dfgga, dfhybrid 
           6 T F
 iterations will be done with small grid
  
 spherical integration : Lebedev's spherical grid
 spherical gridsize    :           5
    i.e. gridpoints    :         590
 value for diffuse not defined
 radial integration    : Chebyshev 2nd kind (scaling 3)
 radial gridsize       :           8
 integration cells     :          62
 partition function    : becke
 partition sharpness   :           3
  

 <rddim> : input of entry tasksize
           from data group '$pardft' failed !

               Default values taken

 <rddim> : input of entry memdiv
           from data group '$pardft' failed !

               Default values taken
  RIDFT: memory allocation for DFT gridpoints
  MEMORY is divided by 1 as DEFAULT
 Each node can hold at most  the            1 -th part
 of the gridpoints    

 biggest AO integral is expected to be     4.161848376
  
           ------------------------
               RI-J - INFORMATION
           ------------------------
 
 
 **************************************************
 *      MEMORY ALLOCATION FOR PARALLEL RI-DFT     *
 **************************************************
 
 
MEMORY FOR (MU NU/ ALPHA), SEQUENTIAL RUN               9968 MByte
 
            DIFFERENCE IN MEMORY NEED:       DIAG./SLAVE  
 
      TOTAL DIFFERENCE :                    331 MByte
 
      difference in xcore:                   33 MByte
      difference in fatmat:                 100 MByte
      getcor calls skipped by slaves:       199 MByte
 
 
           Integral memory available for diagonal.      9968 MByte
 
           Integral memory available for slave             0 MByte
 
         MEMORY FOR (MU NU/ ALPHA) ON DIAGONALIZER      9968 MByte
 
         MEMORY FOR (MU NU/ ALPHA) ON ONE SLAVE            0 MByte
 
         TOTAL MEMORY FOR (MU NU/ ALPHA),ALL NODES      9968 MByte
 
 Contributions to RI integral batches: 
  neglected integral batches:      189499
  direct contribution:              76970
  memory contribution:       45976
 Memory core needed for (P|Q) and Cholesky     30 MByte
 Memory core minimum needed except of (P|Q)     6 MByte
 Total minimum memory core needed (sum)        36 MByte
     number of direct tasks:         160
  
 ****************************************
 Memory allocated for RI-J 10003 MByte
 ****************************************
                                            

          ------------------------
          nuclear repulsion energy  :   3159.36319278    
          ------------------------

 
          -----------------
          -S integrals
          -----------------

 1e-integrals will be neglected if expon. factor < 0.994631E-15
 
          -----------------
          -T+V integrals
          -----------------

 1e-integrals will be neglected if expon. factor < 0.994631E-15
 Difference densities >>NOT<< switched on in parallel ridft!

 automatic virtual orbital shift switched on 
      shift if e(lumo)-e(homo) < 0.10000000    


 DIIS switched on: error vector is FDS-SDF
 Max. Iterations for DIIS is     :   4
 DIIS matrix (see manual) 
    Scaling factor of diagonals  :  1.200
    threshold for scaling factor :  0.000

 scf convergence criterion : increment of total energy < .1000000D-08
                  and increment of one-electron energy < .1000000D-05


 <geterg> : there is no data group $energy 

  MOs are in ASCII format !


 reading orbital data $scfmo  from file mos . 

 orbital characterization : expanded
 
 mo provided and orthogonalized by Cholesky decomposition

 DSCF restart information will be dumped onto file mos


 Starting SCF iterations


 ITERATION  ENERGY          1e-ENERGY        2e-ENERGY     RMS[dD(SAO)]   TOL
   1  -1373.0404124776    -8095.2813337     3562.8777285    0.000D+00 0.992D-14
                            Exc = -195.183525387     Coul =  3758.06125385    
                              N = 235.99948491    
                            current damping = 0.700
 
          max. resid. norm for Fia-block=  2.963D-01 for orbital     97a         
          max. resid. fock norm         =  6.771D+00 for orbital   2443a         

 ITERATION  ENERGY          1e-ENERGY        2e-ENERGY     RMS[dD(SAO)]   TOL
   2  -1376.9714351020    -8131.2856827     3594.9510548    0.779D-02 0.992D-14
                            Exc = -197.752311558     Coul =  3792.70336635    
                              N = 235.99955365    
                            current damping = 0.650
 
          Norm of current diis error:  6.4064    
          max. resid. norm for Fia-block=  1.435D-01 for orbital      3a         
          max. resid. fock norm         =  2.679D-01 for orbital   2438a         

 ITERATION  ENERGY          1e-ENERGY        2e-ENERGY     RMS[dD(SAO)]   TOL
   3  -1377.6451768969    -8139.9240516     3602.9156819    0.259D-02 0.992D-14
                            Exc = -198.749927267     Coul =  3801.66560915    
                              N = 235.99957909    
                            current damping = 0.550
 
          Norm of current diis error:  3.1879    
          max. resid. norm for Fia-block=  6.206D-02 for orbital    117a         
          max. resid. fock norm         =  6.532D-02 for orbital     37a         

 ITERATION  ENERGY          1e-ENERGY        2e-ENERGY     RMS[dD(SAO)]   TOL
   4  -1377.8703313368    -8144.6055806     3607.3720565    0.125D-02 0.992D-14
                            Exc = -199.013442988     Coul =  3806.38549948    
                              N = 235.99958738    
                            current damping = 0.450
 
          Norm of current diis error:  1.3343    
          max. resid. norm for Fia-block=  3.148D-02 for orbital     35a         
          max. resid. fock norm         =  7.843D-02 for orbital   2218a         

 ITERATION  ENERGY          1e-ENERGY        2e-ENERGY     RMS[dD(SAO)]   TOL
   5  -1377.8987741912    -8147.0657371     3609.8037701    0.538D-03 0.992D-14
                            Exc = -199.394270986     Coul =  3809.19804113    
                              N = 235.99959109    
                            current damping = 0.350
 
          Norm of current diis error: 0.85027    
          max. resid. norm for Fia-block=  1.833D-02 for orbital    117a         
          max. resid. fock norm         =  2.026D-02 for orbital    117a         
          mo-orthogonalization: Cholesky decomposition

 ITERATION  ENERGY          1e-ENERGY        2e-ENERGY     RMS[dD(SAO)]   TOL
   6  -1377.9145712092    -8147.0605810     3609.7828170    0.583D-03 0.992D-14
                            Exc = -199.342872468     Coul =  3809.12568943    
                              N = 235.99959524    
                            current damping = 0.400
 
          Norm of current diis error: 0.44749    
          max. resid. norm for Fia-block=  7.197D-03 for orbital    116a         
          max. resid. fock norm         =  1.401D-02 for orbital   2684a         

 ITERATION  ENERGY          1e-ENERGY        2e-ENERGY     RMS[dD(SAO)]   TOL
   7  -1377.9186729140    -8147.3399448     3610.0580791    0.113D-03 0.992D-14
                            Exc = -199.369830982     Coul =  3809.42791005    
                              N = 235.99959507    
                            current damping = 0.450
 
          Norm of current diis error: 0.20215    
          max. resid. norm for Fia-block=  3.046D-03 for orbital    117a         
          max. resid. fock norm         =  6.509D-03 for orbital   2707a         

 ITERATION  ENERGY          1e-ENERGY        2e-ENERGY     RMS[dD(SAO)]   TOL
   8  -1377.9195449148    -8147.3965256     3610.1137879    0.493D-04 0.992D-14
                            Exc = -199.381775481     Coul =  3809.49556334    
                              N = 235.99959522    
                            current damping = 0.300
 
          Norm of current diis error: 0.59507E-01
          max. resid. norm for Fia-block=  1.378D-03 for orbital    113a         
          max. resid. fock norm         =  3.108D-03 for orbital   2709a         

 ITERATION  ENERGY          1e-ENERGY        2e-ENERGY     RMS[dD(SAO)]   TOL
   9  -1377.9195011611    -8147.3284069     3610.0457129    0.245D-04 0.992D-14
                            Exc = -199.387208980     Coul =  3809.43292193    
                              N = 235.99959542    
                            current damping = 0.350
 
          Norm of current diis error: 0.73807E-01
          max. resid. norm for Fia-block=  6.151D-04 for orbital    113a         
          max. resid. fock norm         =  1.141D-03 for orbital   2688a         

 ITERATION  ENERGY          1e-ENERGY        2e-ENERGY     RMS[dD(SAO)]   TOL
  10  -1377.9196151652    -8147.3804651     3610.0976572    0.831D-05 0.992D-14
                            Exc = -199.385034212     Coul =  3809.48269137    
                              N = 235.99959546    
                            current damping = 0.400
 
          Norm of current diis error: 0.24496E-01
          max. resid. norm for Fia-block=  2.630D-04 for orbital    105a         
          max. resid. fock norm         =  5.984D-04 for orbital   2707a         
          mo-orthogonalization: Cholesky decomposition

 ITERATION  ENERGY          1e-ENERGY        2e-ENERGY     RMS[dD(SAO)]   TOL
  11  -1377.9196273188    -8147.3753898     3610.0925697    0.470D-05 0.992D-14
                            Exc = -199.384733548     Coul =  3809.47730321    
                              N = 235.99959542    
                            current damping = 0.450
 
          Norm of current diis error: 0.80141E-02
          max. resid. norm for Fia-block=  1.817D-04 for orbital    117a         
          max. resid. fock norm         =  2.641D-04 for orbital   2623a         

 ITERATION  ENERGY          1e-ENERGY        2e-ENERGY     RMS[dD(SAO)]   TOL
  12  -1377.9196281215    -8147.3827117     3610.0998908    0.327D-05 0.992D-14
                            Exc = -199.383772763     Coul =  3809.48366355    
                              N = 235.99959543    
                            current damping = 0.500
 
          Norm of current diis error: 0.57131E-02
          max. resid. norm for Fia-block=  7.591D-05 for orbital    117a         
          max. resid. fock norm         =  1.163D-04 for orbital   2623a         

 ITERATION  ENERGY          1e-ENERGY        2e-ENERGY     RMS[dD(SAO)]   TOL
  13  -1377.9196289070    -8147.3820613     3610.0992396    0.150D-05 0.992D-14
                            Exc = -199.384104309     Coul =  3809.48334393    
                              N = 235.99959544    
                            current damping = 0.550
 
          Norm of current diis error: 0.16595E-02
          max. resid. norm for Fia-block=  3.011D-05 for orbital    115a         
          max. resid. fock norm         =  6.557D-05 for orbital   2688a         

 ITERATION  ENERGY          1e-ENERGY        2e-ENERGY     RMS[dD(SAO)]   TOL
  14  -1377.9196289590    -8147.3797849     3610.0969631    0.402D-06 0.992D-14
                            Exc = -199.384079080     Coul =  3809.48104221    
                              N = 235.99959543    
                            current damping = 0.400
 
          Norm of current diis error: 0.79147E-03
          max. resid. norm for Fia-block=  1.413D-05 for orbital    117a         
          max. resid. fock norm         =  3.044D-05 for orbital   2709a         

 ITERATION  ENERGY          1e-ENERGY        2e-ENERGY     RMS[dD(SAO)]   TOL
  15  -1377.9196289728    -8147.3804996     3610.0976778    0.244D-06 0.992D-14
                            Exc = -199.384131063     Coul =  3809.48180890    
                              N = 235.99959543    
                            current damping = 0.450
 
          Norm of current diis error: 0.33771E-03
          max. resid. norm for Fia-block=  4.823D-06 for orbital    117a         
          max. resid. fock norm         =  1.474D-05 for orbital   2709a         
          mo-orthogonalization: Cholesky decomposition

 DENSITY CONVERGED !


 ITERATION  ENERGY          1e-ENERGY        2e-ENERGY     RMS[dD(SAO)]   TOL
  16  -1377.9196289753    -8147.3803991     3610.0975773    0.997D-07 0.992D-14
                            Exc = -199.384128574     Coul =  3809.48170591    
                              N = 235.99959543    
                            current damping = 0.500
 
          Norm of current diis error: 0.74947E-04
          max. resid. norm for Fia-block=  1.361D-06 for orbital    111a         
          max. resid. fock norm         =  2.739D-06 for orbital   2707a         

 DENSITY CONVERGED !


 ITERATION  ENERGY          1e-ENERGY        2e-ENERGY     RMS[dD(SAO)]   TOL
  17  -1377.9196289754    -8147.3804786     3610.0976568    0.279D-07 0.992D-14
                            Exc = -199.384123963     Coul =  3809.48178078    
                              N = 235.99959543    
                            current damping = 0.550
 
          Norm of current diis error: 0.46246E-04
          max. resid. norm for Fia-block=  5.858D-07 for orbital    111a         
          max. resid. fock norm         =  1.248D-06 for orbital   2679a         

 DENSITY CONVERGED !


 ITERATION  ENERGY          1e-ENERGY        2e-ENERGY     RMS[dD(SAO)]   TOL
  18  -1377.9196289754    -8147.3804456     3610.0976238    0.585D-08 0.992D-14
                            Exc = -199.384123101     Coul =  3809.48174689    
                              N = 235.99959543    
                            current damping = 0.600
 
          Norm of current diis error: 0.18059E-04
          max. resid. norm for Fia-block=  3.070D-07 for orbital    117a         
          max. resid. fock norm         =  6.253D-07 for orbital   2695a         

 ENERGY & DENSITY CONVERGED !


 ITERATION  ENERGY          1e-ENERGY        2e-ENERGY     RMS[dD(SAO)]   TOL
  19  -1377.9197174163    -8147.3804280     3610.0975178    0.296D-08 0.992D-14
                            Exc = -199.384212887     Coul =  3809.48173067    
                              N = 235.99996993    
                            current damping = 0.450
 
          Norm of current diis error: 0.76693E-05
          max. resid. norm for Fia-block=  1.175D-07 for orbital    115a         
          max. resid. fock norm         =  2.402D-07 for orbital   2686a         

 End of SCF iterations

   convergence criteria satisfied after   19 iterations


                  ------------------------------------------ 
                 |  total energy      =  -1377.91971741633  |
                  ------------------------------------------ 
                 :  kinetic energy    =   1371.32216090219  :
                 :  potential energy  =  -2749.24187831853  :
                 :  virial theorem    =      1.99521194419  :
                 :  wavefunction norm =      1.00000000000  :
                  .......................................... 


 <geterg> : there is no data group $energy 


 <skperg> : $end is missing 


 orbitals $scfmo  will be written to file mos

    irrep                114a        115a        116a        117a        118a   
 eigenvalues H         -0.22294    -0.21632    -0.21242    -0.20891    -0.20469
            eV          -6.0665     -5.8865     -5.7802     -5.6849     -5.5699
 occupation              2.0000      2.0000      2.0000      2.0000      2.0000 

    irrep                119a        120a        121a        122a        123a   
 eigenvalues H         -0.12671    -0.09550    -0.08240    -0.07521    -0.04965
            eV          -3.4480     -2.5986     -2.2422     -2.0467     -1.3510
 
 
 ! grave: sending quit signal to master process
 
 
 
 
 ==============================================================================
                           electrostatic moments
 ==============================================================================

 reference point for electrostatic moments:    0.00000   0.00000   0.00000

 
              nuc           elec       ->  total
 ------------------------------------------------------------------------------
                          charge      
 ------------------------------------------------------------------------------
         236.000000    -236.000000      -0.000000
 
 ------------------------------------------------------------------------------
                       dipole moment  
 ------------------------------------------------------------------------------
   x     314.961339    -318.423508      -3.462169
   y     182.111386    -184.112729      -2.001343
   z       0.000000       0.000000       0.000000
 
   | dipole moment | =     3.9990 a.u. =    10.1644 debye 
 
 ------------------------------------------------------------------------------
                     quadrupole moment
 ------------------------------------------------------------------------------
  xx    8548.291891   -8712.485129    -164.193238
  yy   14417.536308  -14545.879184    -128.342876
  zz     261.185203    -413.340240    -152.155037
  xy   -5088.833159    5057.735170     -31.097988
  xz       0.000000      -0.000000      -0.000000
  yz       0.000000       0.000000       0.000000
 
     1/3  trace=    -148.230383
     anisotropy=      62.448759
 
 ==============================================================================
 

    ridft profiling
  --------------------------------------------------------------------
             module   cpu total (s)       %  wall total (s)       %

               RIDFT          2048.6  100.00          2053.9  100.00
         Ridft_b_scf           101.5    4.95           101.4    4.94
        b_scf_prelim             0.0    0.00             0.0    0.00
        b_scf_molinp             0.0    0.00             0.0    0.00
         b_scf_init0             0.0    0.00             0.0    0.00
        b_scf_auxbas             0.0    0.00             0.0    0.00
      b_scf_symmetry             0.0    0.00             0.0    0.00
         b_scf_cosmo             0.0    0.00             0.0    0.00
        b_scf_params             8.4    0.41             8.4    0.41
          b_scf_ri-j            42.8    2.09            42.8    2.08
    b_scf_ri-j_auxpq            42.8    2.09            42.8    2.08
     ri-j_auxpq_chol             1.1    0.05             1.1    0.05
         b_scf_1elec             3.6    0.17             3.6    0.17
       b_scf_moinput            46.6    2.27            46.5    2.27
     moinput_orthmos            46.2    2.25            46.1    2.25
    b_scf_dft-dstmax             0.0    0.00             0.0    0.00
           Ridft_scf          1946.1   95.00          1951.4   95.01
          Scf_b_loop             0.0    0.00             0.0    0.00
                noga             0.0    0.00             0.0    0.00
            Scf_loop          1941.0   94.75          1945.9   94.74
     scf_loop_mkdmat            13.0    0.63            13.0    0.63
       scf_loop_ri-j           381.3   18.61           381.1   18.55
      parlp1.bc.dens             1.7    0.09             1.7    0.09
        parlp1.gs.gp             0.1    0.01             0.1    0.01
        parlp2.bc.gq             0.0    0.00             0.0    0.00
        scf_loop_dft           975.6   47.62           975.1   47.48
      pardft.bc.dens             0.0    0.00             0.0    0.00
        dft_grid_con             1.9    0.09             1.9    0.09
           dft_xcrhf           947.1   46.23           946.7   46.09
          dft_getval            33.8    1.65            33.8    1.64
          funct2 dst             0.4    0.02             0.5    0.02
      funct2 f2loop1             7.3    0.36             7.3    0.36
      funct2 f2loop2            12.3    0.60            12.3    0.60
          funct2 s+c            13.2    0.64            13.2    0.64
        funct2 cmf_2            12.0    0.59            12.0    0.59
          dft_mkdens           404.0   19.72           403.8   19.66
         dft_gga-fun             0.5    0.02             0.4    0.02
          dft_mkfock           508.3   24.81           508.1   24.74
     pardft.red.fock            89.4    4.36            89.3    4.35
     scf_loop_energy             0.1    0.01             0.1    0.01
     scf_loop_mkfock             0.2    0.01             0.2    0.01
       scf_loop_diis           288.4   14.08           288.3   14.04
       scf_loop_diag           155.0    7.57           154.9    7.54
         diag_tritrn            50.9    2.48            50.8    2.48
          diag_rdiag           103.6    5.06           103.6    5.04
     scf_loop_modump            82.1    4.01            87.9    4.28
      scf_loop_ortho            41.8    2.04            41.8    2.04
          Scf_a_loop             5.1    0.25             5.5    0.27
         Ridft_a_scf             1.1    0.05             1.1    0.05
         a_scf_fanal             1.0    0.05             1.0    0.05
 


    ------------------------------------------------------------------------
         total  cpu-time : 34 minutes and 15 seconds
         total wall-time : 34 minutes and 20 seconds
    ------------------------------------------------------------------------


   ****  ridft : all done  ****


    2017-11-11 00:31:33.245 

