
   OpenMP run-time library returned nthreads =  8

 ricc2 (c-15-34.local) : TURBOMOLE V7.2 ( 21471 ) 11 Oct 2017 at 17:04:51
 Copyright (C) 2017 TURBOMOLE GmbH, Karlsruhe


    2018-04-03 13:44:37.873 



                              R I C C 2 - PROGRAM

                          the quantum chemistry groups
                             at the universities in
                           Karlsruhe, Bochum & Mainz
                                   Germany



   *-----------------------------------------------------------------------*
   |                     program will use  8 thread(s)                     |
   *-----------------------------------------------------------------------*


              +--------------------------------------------------+
              | Atomic coordinate, charge and isotop information |
              +--------------------------------------------------+

                    atomic coordinates            atom    charge  isotop
          2.30186531    1.31056323    0.00000000    c      6.000     0
          2.30186531   -1.31056323    0.00000000    c      6.000     0
         -2.30186531   -1.31056323    0.00000000    c      6.000     0
         -2.30186531    1.31056323    0.00000000    c      6.000     0
          0.00000000    2.63574674    0.00000000    c      6.000     0
          0.00000000   -2.63574674    0.00000000    c      6.000     0
          0.00000000    5.33572864    0.00000000    c      6.000     0
          0.00000000   -5.33572864    0.00000000    c      6.000     0
          0.00000000    7.53232554    0.00000000    n      7.000     0
          0.00000000   -7.53232554    0.00000000    n      7.000     0
         -4.06854322   -2.34920594    0.00000000    h      1.000     0
         -4.06854322    2.34920594    0.00000000    h      1.000     0
          4.06854322    2.34920594    0.00000000    h      1.000     0
          4.06854322   -2.34920594    0.00000000    h      1.000     0
 
       center of nuclear mass  :    0.00000000    0.00000000    0.00000000
       center of nuclear charge:    0.00000000    0.00000000    0.00000000

              +--------------------------------------------------+
              |               basis set information              |
              +--------------------------------------------------+

              we will work with the 1s 3p 5d 7f 9g ... basis set
              ...i.e. with spherical basis functions...

   type   atoms  prim   cont   basis
   ---------------------------------------------------------------------------
    c        8     77     55   cc-pVQZ   [5s4p3d2f1g|21s6p3d2f1g]
    n        2     77     55   cc-pVQZ   [5s4p3d2f1g|21s6p3d2f1g]
    h        4     32     30   cc-pVQZ   [4s3p2d1f|6s3p2d1f]
   ---------------------------------------------------------------------------
   total:   14    898    670
   ---------------------------------------------------------------------------

   total number of primitive shells          :   78
   total number of contracted shells         :  190
   total number of cartesian basis functions :  840
   total number of SCF-basis functions       :  670


 symmetry group of the molecule :   c1 

 the group has the following generators :
   c1(z)

    1 symmetry operations found

 there are 1 real representations :   a   


   =========================================================================


     restricted closed shell calculation for the wavefunction models:
               MP2        - Second Order Moeller Plesset PT


     global parameters for ricc2 program:

        hard restart (reuse of interm.) :  disabled
        soft restart (reuse of vectors) :  disabled
        threshold for vector function   :    0.100000E-05
        convergence threshold energy    :    0.100000E-06
        linear dependence threshold     :    0.100000E-13
        global print level              :      1
        maximum number of iterations    :   300
        maximum number DIIS vectors     :    10
        max. dim. of reduced space      :   100
        core memory limit (MB)          : 15258


     MP2 energy only: Energy will be calculated directly from T2 amplitudes!

     Scratch Directory : 


   =========================================================================

    der. integral neglect threshold  :  0.10E-07
    integral neglect threshold       :  0.40E-11
    integral storage threshold THIZE :  0.10E-04
    integral storage threshold THIME :         5


                  +------------------------------------------+
                  |     Auxiliary basis set information      |
                  +------------------------------------------+

              we will work with the 1s 3p 5d 7f 9g ... basis set
              ...i.e. with spherical basis functions...

   type   atoms  prim   cont   basis
   ---------------------------------------------------------------------------
    c        8    132    132   cc-pVQZ   [8s7p6d5f3g1h|8s7p6d5f3g1h]
    n        2    132    132   cc-pVQZ   [8s7p6d5f3g1h|8s7p6d5f3g1h]
    h        4     55     55   cc-pVQZ   [5s4p3d2f1g|5s4p3d2f1g]
   ---------------------------------------------------------------------------
   total:   14   1540   1540
   ---------------------------------------------------------------------------

   total number of primitive shells          :   75
   total number of contracted shells         :  360
   total number of cartesian basis functions : 2090
   total number of SCF-basis functions       : 1540


 maximum number of shells which are related by symmetry :  1


 The symmetry information takes   1 MB

*---------------------------------------------------------------------*
|               simplified C1 algorithm will be applied               |
*---------------------------------------------------------------------*
  MOs are in ASCII format !


 reading orbital data $scfmo  from file mos
 orbital characterization : scfconv=9



              +--------------------------------------------+
              | list of orbitals that will be kept frozen: |
              +--------------------------------------------+
              |   irrep   index      energy     occ/vir    |
              +--------------------------------------------+
              |   a         1      -15.5952     occupied   |
              |   a         2      -15.5952     occupied   |
              |   a         3      -11.3214     occupied   |
              |   a         4      -11.3214     occupied   |
              |   a         5      -11.2977     occupied   |
              |   a         6      -11.2976     occupied   |
              |   a         7      -11.2972     occupied   |
              |   a         8      -11.2972     occupied   |
              |   a         9      -11.2964     occupied   |
              |   a        10      -11.2964     occupied   |
              +--------------------------------------------+



   Molecular Orbital Statistic:
   ============================

   -----------------------------
   orbitals in total:
   -----------------------------
    frozen occupied :     10
    active occupied :     23
    active virtual  :    637
    frozen virtual  :      0
    all together    :    670
   -----------------------------


     time in riccmos       cpu:  3.26 sec    wall:  0.76 sec    ratio:  4.3

     total memory allocated for calculation of (Q|P)**(-1/2) : 28 MiB


     calculation of (P|Q) ...
     time in lp2sym        cpu:  0.72 sec    wall:  0.09 sec    ratio:  8.0


     calculation of the Cholesky decomposition of (P|Q)**(-1) ...
     time in invmetri      cpu:  2.78 sec    wall:  0.35 sec    ratio:  7.9

   threshold for RMS(d[D]) in SCF was     :  0.10E-06
   integral neglect threshold             :  0.40E-11
   derivative integral neglect threshold  :  0.10E-07


   =========================================================================

     Energy of reference wave function is  -414.3193710054000
     Maximum orbital residual is           0.1096120219342E-05


     Number of symmetry-nonredundant auxiliary basis functions:     1540

     Block lengths for integral files:
        frozen occupied (BOI):        1 MiB
        active occupied (BJI):        1 MiB
        active virtual  (BAI):        8 MiB
        frozen virtual  (BGI):        0 MiB
               general  (BTI):        8 MiB

   =========================================================================




   **************************************************************************
   *                                                                        *
   *          OPTIMIZATION OF THE GROUND STATE CLUSTER AMPLITUDES           *
   *                                                                        *
   **************************************************************************


   Iter.   MP2 energy       Norm(Omega)    Norm(t1)  Norm(t2)     cpu    wall
   ...........................................................................
    1   -416.0211651874     ------          0.00000   0.44751    0.58    0.07
   ...........................................................................


     time in total         cpu: 35.09 sec    wall:  4.40 sec    ratio:  8.0


     **********************************************************************
     *                                                                    *
     *   RHF  energy                             :   -414.3193710054      *
     *   MP2 correlation energy (doubles)        :     -1.7017941820      *
     *                                                                    *
     *   Final MP2 energy                        :   -416.0211651874      *
     *                                                                    *
     *    E(S)   =     -1.0537736900      E(T)   =     -0.6480204920      *
     *    E(OS)  =     -1.2697805206      E(SS)  =     -0.4320136613      *
     *                                                                    *
     *   SCS-MP2 energy                          :   -415.9871121839      *
     *   (computed with  C(OS) =   1.2000  and  C(SS) =   0.3333)         *
     *                                                                    *
     *   SOS-MP2 energy                          :   -415.9700856822      *
     *   (computed with  C(OS) =   1.3000)                                *
     *                                                                    *
     *   Norm of MP1 T2 amplitudes               :      0.4475079543      *
     *                                                                    *
     **********************************************************************



    ------------------------------------------------------------------------
         total  cpu-time :  1 minutes and 28 seconds
         total wall-time :  11.77 seconds
    ------------------------------------------------------------------------

   ****  ricc2 : all done  ****


    2018-04-03 13:44:49.565 

