 this is node-proc. number 0 running on node c-5-24.local
 the total number of node-proc. spawned is  33

 dscfserver (c-5-24.local) : TURBOMOLE V7.2 ( 21471 ) 7 Nov 2017 at 16:15:16
 Copyright (C) 2017 TURBOMOLE GmbH, Karlsruhe


    2018-02-19 18:55:01.879 

 
    0:00:03 ---- Start global counter...
    0:00:44 ---- ... finished.
 
    0:00:52 ---- Start global counter...
    0:01:34 ---- ... finished.
 
    0:01:41 ---- Start global counter...
    0:02:21 ---- ... finished.
 
    0:02:29 ---- Start global counter...
    0:03:07 ---- ... finished.
 
    0:03:14 ---- Start global counter...
    0:03:50 ---- ... finished.
 
    0:03:58 ---- Start global counter...
    0:04:32 ---- ... finished.
 
    0:04:40 ---- Start global counter...
    0:05:10 ---- ... finished.
 
    0:05:18 ---- Start global counter...
    0:05:46 ---- ... finished.
 
    0:05:54 ---- Start global counter...
    0:06:21 ---- ... finished.
 
    0:06:28 ---- Start global counter...
    0:06:53 ---- ... finished.
 
    0:07:01 ---- Start global counter...
    0:07:24 ---- ... finished.
 
    0:07:32 ---- Start global counter...
    0:07:52 ---- ... finished.
 
    0:07:59 ---- Start global counter...
    0:08:18 ---- ... finished.
 
    0:08:26 ---- Start global counter...
    0:08:43 ---- ... finished.
 
    0:08:50 ---- Start global counter...
    0:09:08 ---- ... finished.
 
    0:09:15 ---- ByeBye Tag received


 ! Total wall-clock time in seconds  :      554.9
 ! Time (sec) spent in global counter:      436.9
 ! So-called SERIAL wall-clock time  :      118.0

  *** Regular termination of server ***
 total turnaround time of dscfserver   555.18 sec
 cpu elapsed by dscfserver process     437.24 sec 

   ***  dscf server : all done  ***


    2018-02-19 19:04:17.062 

