
   OpenMP run-time library returned nthreads =  8

 ricc2 (c-16-19.local) : TURBOMOLE V7.2 ( 21471 ) 11 Oct 2017 at 17:04:51
 Copyright (C) 2017 TURBOMOLE GmbH, Karlsruhe


    2018-04-03 20:37:09.192 



                              R I C C 2 - PROGRAM

                          the quantum chemistry groups
                             at the universities in
                           Karlsruhe, Bochum & Mainz
                                   Germany



   *-----------------------------------------------------------------------*
   |                     program will use  8 thread(s)                     |
   *-----------------------------------------------------------------------*


              +--------------------------------------------------+
              | Atomic coordinate, charge and isotop information |
              +--------------------------------------------------+

                    atomic coordinates            atom    charge  isotop
         -1.46652160   -0.15991502    9.49727353    c      6.000     0
          1.49516607   -0.17859407    9.46302770    c      6.000     0
          2.10343013   -2.56929295    8.29798435    n      7.000     0
         -0.02576612   -3.98500611    7.67166553    c      6.000     0
         -2.12693558   -2.49833794    8.25305887    n      7.000     0
         -2.08986113    2.13688033    8.13632036    n      7.000     0
          0.01809350    3.41425251    7.24465874    c      6.000     0
          2.12197109    2.06504823    8.00473833    n      7.000     0
         -0.00055564    5.39703345    6.06078376    o      8.000     0
         -0.05889359   -6.12079921    6.85004875    o      8.000     0
          4.65269104    3.08946221    7.77174478    c      6.000     0
          4.62358433   -3.63190321    8.10120599    c      6.000     0
         -9.08417140   -0.17132670    3.51222268    c      6.000     0
         -7.57789690   -0.15718752    6.06550345    c      6.000     0
         -6.13005037   -2.46361145    5.96500275    n      7.000     0
         -6.61475009   -3.88882776    3.80252008    c      6.000     0
         -8.26025792   -2.47106321    2.30535047    n      7.000     0
         -8.29029462    2.17313839    2.30712147    n      7.000     0
         -6.57051537    3.51261175    3.73295391    c      6.000     0
         -6.13245025    2.18120256    5.92087743    n      7.000     0
         -5.64802748    5.57046297    3.17410504    o      8.000     0
         -5.82026579   -5.98396748    3.34265274    o      8.000     0
         -4.58937434    3.20585191    7.94283947    c      6.000     0
         -4.66268418   -3.49842295    8.03991543    c      6.000     0
          9.11565555   -0.49315758   -3.51592060    c      6.000     0
          7.58197818   -0.37548215   -6.04921876    c      6.000     0
          6.12252183   -2.67911817   -6.02093764    n      7.000     0
          6.48795734   -4.10334670   -3.83579631    c      6.000     0
          8.12931845   -2.73550348   -2.29861552    n      7.000     0
          8.53536136    1.89901686   -2.31176447    n      7.000     0
          6.81814326    3.33983844   -3.66537060    c      6.000     0
          6.15756059    1.95891970   -5.79674341    n      7.000     0
          6.06351915    5.44729499   -3.12781822    o      8.000     0
          5.60048926   -6.16773219   -3.39169437    o      8.000     0
          4.65269104    3.08946221   -7.77174478    c      6.000     0
          4.62358433   -3.63190321   -8.10120599    c      6.000     0
          7.58197818   -0.37548215    6.04921876    c      6.000     0
          9.11565555   -0.49315758    3.51592060    c      6.000     0
          8.12931845   -2.73550348    2.29861552    n      7.000     0
          6.48795734   -4.10334670    3.83579631    c      6.000     0
          6.12252183   -2.67911817    6.02093764    n      7.000     0
          6.15756059    1.95891970    5.79674341    n      7.000     0
          6.81814326    3.33983844    3.66537060    c      6.000     0
          8.53536136    1.89901686    2.31176447    n      7.000     0
          6.06351915    5.44729499    3.12781822    o      8.000     0
          5.60048926   -6.16773219    3.39169437    o      8.000     0
          9.66840794    2.82997226    0.00000000    c      6.000     0
          9.13163654   -3.83119813    0.00000000    c      6.000     0
         -7.57789690   -0.15718752   -6.06550345    c      6.000     0
         -9.08417140   -0.17132670   -3.51222268    c      6.000     0
         -8.26025792   -2.47106321   -2.30535047    n      7.000     0
         -6.61475009   -3.88882776   -3.80252008    c      6.000     0
         -6.13005037   -2.46361145   -5.96500275    n      7.000     0
         -6.13245025    2.18120256   -5.92087743    n      7.000     0
         -6.57051537    3.51261175   -3.73295391    c      6.000     0
         -8.29029462    2.17313839   -2.30712147    n      7.000     0
         -5.64802748    5.57046297   -3.17410504    o      8.000     0
         -5.82026579   -5.98396748   -3.34265274    o      8.000     0
         -9.35012697    3.19163588    0.00000000    c      6.000     0
         -9.31376691   -3.50842639    0.00000000    c      6.000     0
          1.49516607   -0.17859407   -9.46302770    c      6.000     0
         -1.46652160   -0.15991502   -9.49727353    c      6.000     0
         -2.12693558   -2.49833794   -8.25305887    n      7.000     0
         -0.02576612   -3.98500611   -7.67166553    c      6.000     0
          2.10343013   -2.56929295   -8.29798435    n      7.000     0
          2.12197109    2.06504823   -8.00473833    n      7.000     0
          0.01809350    3.41425251   -7.24465874    c      6.000     0
         -2.08986113    2.13688033   -8.13632036    n      7.000     0
         -0.00055564    5.39703345   -6.06078376    o      8.000     0
         -0.05889359   -6.12079921   -6.85004875    o      8.000     0
         -4.58937434    3.20585191   -7.94283947    c      6.000     0
         -4.66268418   -3.49842295   -8.03991543    c      6.000     0
         -2.27539676   -0.09045302   11.40835932    h      1.000     0
          2.34750782   -0.04926370   11.35175277    h      1.000     0
          5.62188724    2.86967241    9.59369867    h      1.000     0
          4.45800747    5.08934256    7.29296628    h      1.000     0
          5.64201670   -3.29632086    9.87649046    h      1.000     0
          4.37509076   -5.65730219    7.77568756    h      1.000     0
        -11.14451921   -0.16292726    3.76225711    h      1.000     0
         -8.79361487   -0.12209209    7.74712082    h      1.000     0
         -4.36323838    5.21977225    7.54975731    h      1.000     0
         -5.58217372    2.92536075    9.74043161    h      1.000     0
         -4.46555666   -5.52282472    7.67215514    h      1.000     0
         -5.68649979   -3.17496755    9.81550843    h      1.000     0
         11.16584817   -0.66186619   -3.79816718    h      1.000     0
          8.78411700   -0.29829927   -7.74083899    h      1.000     0
          5.62188724    2.86967241   -9.59369867    h      1.000     0
          4.45800747    5.08934256   -7.29296628    h      1.000     0
          5.64201670   -3.29632086   -9.87649046    h      1.000     0
          4.37509076   -5.65730219   -7.77568756    h      1.000     0
          8.78411700   -0.29829927    7.74083899    h      1.000     0
         11.16584817   -0.66186619    3.79816718    h      1.000     0
          9.41086743    4.87879952    0.00000000    h      1.000     0
         11.68342371    2.34900922    0.00000000    h      1.000     0
          8.57411430   -5.82165992    0.00000000    h      1.000     0
         11.19992598   -3.65262540    0.00000000    h      1.000     0
         -8.79361487   -0.12209209   -7.74712082    h      1.000     0
        -11.14451921   -0.16292726   -3.76225711    h      1.000     0
        -11.39498751    2.85599933    0.00000000    h      1.000     0
         -8.95317543    5.21726851    0.00000000    h      1.000     0
        -11.36930706   -3.22643339    0.00000000    h      1.000     0
         -8.85579665   -5.52407022    0.00000000    h      1.000     0
          2.34750782   -0.04926370  -11.35175277    h      1.000     0
         -2.27539676   -0.09045302  -11.40835932    h      1.000     0
         -4.36323838    5.21977225   -7.54975731    h      1.000     0
         -5.58217372    2.92536075   -9.74043161    h      1.000     0
         -4.46555666   -5.52282472   -7.67215514    h      1.000     0
         -5.68649979   -3.17496755   -9.81550843    h      1.000     0
 
       center of nuclear mass  :    0.01528293   -0.26713213   -0.00000000
       center of nuclear charge:    0.01519891   -0.26633992   -0.00000000

              +--------------------------------------------------+
              |               basis set information              |
              +--------------------------------------------------+

              we will work with the 1s 3p 5d 7f 9g ... basis set
              ...i.e. with spherical basis functions...

   type   atoms  prim   cont   basis
   ---------------------------------------------------------------------------
    c       36     50     30   cc-pVTZ   [4s3p2d1f|18s5p2d1f]
    n       24     50     30   cc-pVTZ   [4s3p2d1f|18s5p2d1f]
    o       12     50     30   cc-pVTZ   [4s3p2d1f|18s5p2d1f]
    h       36     16     14   cc-pVTZ   [3s2p1d|5s2p1d]
   ---------------------------------------------------------------------------
   total:  108   4176   2664
   ---------------------------------------------------------------------------

   total number of primitive shells          :   86
   total number of contracted shells         :  936
   total number of cartesian basis functions : 3060
   total number of SCF-basis functions       : 2664


 symmetry group of the molecule :   cs

 the group has the following generators :
   c1(z)
   mirror plane sigma(xy)

    2 symmetry operations found

 there are 2 real representations :   a'   a"  


   =========================================================================


     restricted closed shell calculation for the wavefunction models:
               MP2        - Second Order Moeller Plesset PT


     global parameters for ricc2 program:

        hard restart (reuse of interm.) :  disabled
        soft restart (reuse of vectors) :  disabled
        threshold for vector function   :    0.100000E-05
        convergence threshold energy    :    0.100000E-06
        linear dependence threshold     :    0.100000E-13
        global print level              :      1
        maximum number of iterations    :   300
        maximum number DIIS vectors     :    10
        max. dim. of reduced space      :   100
        core memory limit (MB)          : 22888


     MP2 energy only: Energy will be calculated directly from T2 amplitudes!

     Scratch Directory : 


   =========================================================================

    der. integral neglect threshold  :  0.10E-07
    integral neglect threshold       :  0.11E-11
    integral storage threshold THIZE :  0.10E-04
    integral storage threshold THIME :         5


                  +------------------------------------------+
                  |     Auxiliary basis set information      |
                  +------------------------------------------+

              we will work with the 1s 3p 5d 7f 9g ... basis set
              ...i.e. with spherical basis functions...

   type   atoms  prim   cont   basis
   ---------------------------------------------------------------------------
    c       36     81     81   cc-pVTZ   [8s6p5d3f1g|8s6p5d3f1g]
    n       24     81     81   cc-pVTZ   [8s6p5d3f1g|8s6p5d3f1g]
    o       12     81     81   cc-pVTZ   [8s6p5d3f1g|8s6p5d3f1g]
    h       36     30     30   cc-pVTZ   [4s3p2d1f|4s3p2d1f]
   ---------------------------------------------------------------------------
   total:  108   6912   6912
   ---------------------------------------------------------------------------

   total number of primitive shells          :   79
   total number of contracted shells         : 2016
   total number of cartesian basis functions : 8532
   total number of SCF-basis functions       : 6912


 maximum number of shells which are related by symmetry :  2


 The symmetry information takes   1 MB

*---------------------------------------------------------------------*
|      simplified algorithm for abelian symmetry will be applied      |
*---------------------------------------------------------------------*
  MOs are in ASCII format !


 reading orbital data $scfmo  from file mos
 orbital characterization : scfconv=7



              +--------------------------------------------+
              | list of orbitals that will be kept frozen: |
              +--------------------------------------------+
              |   irrep   index      energy     occ/vir    |
              +--------------------------------------------+
              |   a'        1      -20.5143     occupied   |
              |   a'        2      -20.5143     occupied   |
              |   a'        3      -20.5142     occupied   |
              |   a'        4      -20.5082     occupied   |
              |   a'        5      -20.5049     occupied   |
              |   a'        6      -20.4992     occupied   |
              |   a'        7      -15.5928     occupied   |
              |   a'        8      -15.5923     occupied   |
              |   a'        9      -15.5921     occupied   |
              |   a'       10      -15.5919     occupied   |
              |   a'       11      -15.5918     occupied   |
              |   a'       12      -15.5915     occupied   |
              |   a'       13      -15.5912     occupied   |
              |   a'       14      -15.5894     occupied   |
              |   a'       15      -15.5893     occupied   |
              |   a'       16      -15.5887     occupied   |
              |   a'       17      -15.5880     occupied   |
              |   a'       18      -15.5879     occupied   |
              |   a'       19      -11.3794     occupied   |
              |   a'       20      -11.3794     occupied   |
              |   a'       21      -11.3791     occupied   |
              |   a'       22      -11.3752     occupied   |
              |   a'       23      -11.3731     occupied   |
              |   a'       24      -11.3696     occupied   |
              |   a'       25      -11.3451     occupied   |
              |   a'       26      -11.3444     occupied   |
              |   a'       27      -11.3438     occupied   |
              |   a'       28      -11.3437     occupied   |
              |   a'       29      -11.3432     occupied   |
              |   a'       30      -11.3431     occupied   |
              |   a'       31      -11.3196     occupied   |
              |   a'       32      -11.3195     occupied   |
              |   a'       33      -11.3182     occupied   |
              |   a'       34      -11.3182     occupied   |
              |   a'       35      -11.3179     occupied   |
              |   a'       36      -11.3159     occupied   |
              |   a'       37      -11.3157     occupied   |
              |   a'       38      -11.3156     occupied   |
              |   a"        1      -20.5143     occupied   |
              |   a"        2      -20.5143     occupied   |
              |   a"        3      -20.5142     occupied   |
              |   a"        4      -20.5082     occupied   |
              |   a"        5      -20.5049     occupied   |
              |   a"        6      -20.4992     occupied   |
              |   a"        7      -15.5928     occupied   |
              |   a"        8      -15.5923     occupied   |
              |   a"        9      -15.5922     occupied   |
              |   a"       10      -15.5919     occupied   |
              |   a"       11      -15.5918     occupied   |
              |   a"       12      -15.5915     occupied   |
              |   a"       13      -15.5912     occupied   |
              |   a"       14      -15.5894     occupied   |
              |   a"       15      -15.5893     occupied   |
              |   a"       16      -15.5887     occupied   |
              |   a"       17      -15.5880     occupied   |
              |   a"       18      -15.5879     occupied   |
              |   a"       19      -11.3794     occupied   |
              |   a"       20      -11.3794     occupied   |
              |   a"       21      -11.3791     occupied   |
              |   a"       22      -11.3752     occupied   |
              |   a"       23      -11.3731     occupied   |
              |   a"       24      -11.3696     occupied   |
              |   a"       25      -11.3451     occupied   |
              |   a"       26      -11.3444     occupied   |
              |   a"       27      -11.3438     occupied   |
              |   a"       28      -11.3437     occupied   |
              |   a"       29      -11.3432     occupied   |
              |   a"       30      -11.3431     occupied   |
              |   a"       31      -11.3195     occupied   |
              |   a"       32      -11.3182     occupied   |
              |   a"       33      -11.3159     occupied   |
              |   a"       34      -11.3156     occupied   |
              +--------------------------------------------+



   Molecular Orbital Statistic:
   ============================


   --------------------------
    irred. repres.:   a'   a"
   --------------------------
   frozen occupied:   38   34
   active occupied:   97   89
   active virtual : 1241 1165
   frozen virtual :    0    0
   --------------------------
 

   -----------------------------
   orbitals in total:
   -----------------------------
    frozen occupied :     72
    active occupied :    186
    active virtual  :   2406
    frozen virtual  :      0
    all together    :   2664
   -----------------------------


     time in riccmos       cpu: 12.40 sec    wall:  5.06 sec    ratio:  2.4

     total memory allocated for calculation of (Q|P)**(-1/2) : 274 MiB


     calculation of (P|Q) ...
     time in lp2sym        cpu:  6.73 sec    wall:  0.88 sec    ratio:  7.6


     calculation of the Cholesky decomposition of (P|Q)**(-1) ...
     time in invmetri      cpu: 24.94 sec    wall:  4.13 sec    ratio:  6.0

   threshold for RMS(d[D]) in SCF was     :  0.10E-06
   integral neglect threshold             :  0.11E-11
   derivative integral neglect threshold  :  0.10E-07


   =========================================================================

     Energy of reference wave function is -3590.8730719109999
     Maximum orbital residual is           0.1512091270931E-05


     Number of symmetry-nonredundant auxiliary basis functions:     3738

     Block lengths for integral files:
        frozen occupied (BOI):        3 MiB
        active occupied (BJI):        6 MiB
        active virtual  (BAI):       69 MiB
        frozen virtual  (BGI):        0 MiB
               general  (BTI):       76 MiB

   =========================================================================




   **************************************************************************
   *                                                                        *
   *          OPTIMIZATION OF THE GROUND STATE CLUSTER AMPLITUDES           *
   *                                                                        *
   **************************************************************************


   Iter.   MP2 energy       Norm(Omega)    Norm(t1)  Norm(t2)     cpu    wall
   ...........................................................................
    1  -3604.1379614413     ------          0.00000   1.15652  540.37   75.34
   ...........................................................................


     time in total         cpu:  9 h  0 min  wall:  1 h 15 min  ratio:  7.2


     **********************************************************************
     *                                                                    *
     *   RHF  energy                             :  -3590.8730719110      *
     *   MP2 correlation energy (doubles)        :    -13.2648895303      *
     *                                                                    *
     *   Final MP2 energy                        :  -3604.1379614413      *
     *                                                                    *
     *    E(S)   =     -7.9653571520      E(T)   =     -5.2995323783      *
     *    E(OS)  =     -9.7318679447      E(SS)  =     -3.5330215856      *
     *                                                                    *
     *   SCS-MP2 energy                          :  -3603.7289873065      *
     *   (computed with  C(OS) =   1.2000  and  C(SS) =   0.3333)         *
     *                                                                    *
     *   SOS-MP2 energy                          :  -3603.5245002392      *
     *   (computed with  C(OS) =   1.3000)                                *
     *                                                                    *
     *   Norm of MP1 T2 amplitudes               :      1.1565222369      *
     *                                                                    *
     **********************************************************************



    ------------------------------------------------------------------------
         total  cpu-time : 10 hours  1 minutes and 19 seconds
         total wall-time :  1 hours 26 minutes and 28 seconds
    ------------------------------------------------------------------------

   ****  ricc2 : all done  ****


    2018-04-03 22:03:36.521 

