
 eiger (gplogin3.local) : TURBOMOLE V7.2 ( 21285 ) 30 Jun 2017 at 11:51:10
 Copyright (C) 2017 TURBOMOLE GmbH, Karlsruhe


    2017-11-05 19:14:16.520 

                                                                                
  
 HOMO-LUMO Separation
   HOMO:   102.   102 a     -0.14791443 H =     -4.02496 eV
   LUMO:   103.   103 a     -0.06843880 H =     -1.86232 eV
   Gap :                    +0.07947563 H =     +2.16264 eV
 
Number of MOs=   2408, Electrons=    204.00, Symmetry: c1   
 
   Nr.   Orbital    Occupation       Energy
  119.   119 a                     +0.022921 H =        +0.624 eV
  118.   118 a                     +0.022906 H =        +0.623 eV
  117.   117 a                     +0.015687 H =        +0.427 eV
  116.   116 a                     +0.006229 H =        +0.170 eV
  115.   115 a                     +0.001482 H =        +0.040 eV
  114.   114 a                     +0.001471 H =        +0.040 eV
  113.   113 a                     -0.002061 H =        -0.056 eV
  112.   112 a                     -0.003957 H =        -0.108 eV
  111.   111 a                     -0.003973 H =        -0.108 eV
  110.   110 a                     -0.009963 H =        -0.271 eV
  109.   109 a                     -0.013055 H =        -0.355 eV
  108.   108 a                     -0.019744 H =        -0.537 eV
  107.   107 a                     -0.019747 H =        -0.537 eV
  106.   106 a                     -0.034202 H =        -0.931 eV
  105.   105 a                     -0.034215 H =        -0.931 eV
  104.   104 a                     -0.036030 H =        -0.980 eV
  103.   103 a                     -0.068439 H =        -1.862 eV
  102.   102 a        2.000        -0.147914 H =        -4.025 eV
  101.   101 a        2.000        -0.147916 H =        -4.025 eV
  100.   100 a        2.000        -0.147931 H =        -4.025 eV
   99.    99 a        2.000        -0.147932 H =        -4.025 eV
   98.    98 a        2.000        -0.153899 H =        -4.188 eV
   97.    97 a        2.000        -0.153930 H =        -4.189 eV
   96.    96 a        2.000        -0.316983 H =        -8.626 eV
   95.    95 a        2.000        -0.316997 H =        -8.626 eV
   94.    94 a        2.000        -0.330365 H =        -8.990 eV
   93.    93 a        2.000        -0.347503 H =        -9.456 eV
   92.    92 a        2.000        -0.347750 H =        -9.463 eV
   91.    91 a        2.000        -0.347752 H =        -9.463 eV
   90.    90 a        2.000        -0.354683 H =        -9.651 eV
   89.    89 a        2.000        -0.354692 H =        -9.652 eV
   88.    88 a        2.000        -0.380968 H =       -10.367 eV
   87.    87 a        2.000        -0.384342 H =       -10.458 eV


    ------------------------------------------------------------------------
         total  cpu-time :   2.73 seconds
         total wall-time :   2.86 seconds
    ------------------------------------------------------------------------

   ****  eiger : all done  ****


    2017-11-05 19:14:19.354 

