Using Slurm to start processes with PMI2
STARTING ridft ON 8 PROCESSORS!
RUNNING PROGRAM /beegfs/modfac/apps/TURBOMOLE/7.0_intel_GA/bin/em64t-unknown-linux-gnu_mpi/ridft_mpi.
PLEASE WAIT UNTIL ridft HAS FINISHED.
Look for the output in slave1.output.
  this is node-proc. number 1 running on node c-8-36.local
  the total number of node-proc. spawned is            8
  parallel platform: MPP, or cluster with fast interconnect

 ridft (c-8-36.local) : TURBOMOLE V7.0.2( ) 15 Jan 2016 at 17:47:42
 Copyright (C) 2016 TURBOMOLE GmbH, Karlsruhe


    2017-10-30 01:01:33.697 



                                  r i d f t

                        DFT program with RI approximation 
                                for coulomb part 




                                                 
                                 References:     
                                                 
          TURBOMOLE:                             
              R. Ahlrichs, M. Baer, M. Haeser, H. Horn, and
              C. Koelmel
              Electronic structure calculations on workstation
              computers: the program system TURBOMOLE
              Chem. Phys. Lett. 162: 165 (1989)
          Density Functional:                              
              O. Treutler and R. Ahlrichs                      
              Efficient Molecular Numerical Integration Schemes
              J. Chem. Phys. 102: 346 (1995)                   
          Parallel Version:                                
              Performance of parallel TURBOMOLE for Density    
              Functional Calculations                          
              M. v. Arnim and R. Ahlrichs                      
              J. Comp. Chem. 19: 1746 (1998)                   
          RI-J Method:                                     
              Auxiliary Basis Sets to approximate Coulomb      
              Potentials                                       
              Chem. Phys. Lett. 240: 283 (1995)                
              K. Eichkorn, O. Treutler, H. Oehm, M. Haeser     
              and R. Ahlrichs                                  
              Chem. Phys. Lett. 242: 652 (1995)                
                                                           
              Auxiliary Basis Sets for Main Row Atoms and their
              Use to approximate Coulomb Potentials            
              K. Eichkorn, F. Weigend, O. Treutler and         
              R. Ahlrichs                                      
              Theo. Chem. Acc. 97: 119 (1997)                   
                                                           
              Accurate Coulomb-fitting basis sets for H to Rn 
              F. Weigend                                        
              Phys. Chem. Chem. Phys. 8: 1057 (2006)            
                                                           
          Multipole accelerated RI-J (MARI-J):             
              Fast evaluation of the Coulomb potential for     
              electron densities using multipole accelerated   
              resolution of identity approximation             
              M. Sierka, A. Hogekamp and R. Ahlrichs           
              J. Chem. Phys. 118: 9136 (2003)                  
          RI-JK Method:                                     
              A fully direct RI-HF algorithm: Implementation,
              optimised auxiliary basis sets, demonstration of
              accuracy and efficiency                         
              F. Weigend                                      
              Phys. Chem. Chem. Phys. 4: 4285 (2002)           
          Two-component HF and DFT with spin-orbit coupling:  
              Self-consistent treatment of spin-orbit         
              interactions with efficient Hartree-Fock and    
              density functional methods                      
              M. K. Armbruster, F. Weigend, C. van Wüllen and 
              W. Klopper                                      
              Phys. Chem. Chem. Phys. 10: 1748 (2008)         
          Relativistic all-electron 2c calculations           
              An efficient implementation of two-component    
              relativistic exact-decoupling methods for large 
              molecules                                       
              D. Peng, N. Middendorf, F. Weigend, M. Reiher   
              J. Chem. Phys. 138, 184105 (2013)               
                                         


 


              +--------------------------------------------------+
              |      general information about current run       |
              +--------------------------------------------------+

 

 SCF run will be profiled !


 DENSITY CONVERGENCE CHECK SWITCHED ON !
 SCF CONVERGENCE IF RMS(delta[D]) <     0.1000000000E-06

 TPSS meta-GGA functional
 exchange:    LDA + TPSS
 correlation: LDA (PW) + TPSS
 A DFT calculation using the RI-J approximation will be carried out.
 Allocatable memory for RI due to $ricore (MB):       10000


              +--------------------------------------------------+
              | Atomic coordinate, charge and isotop information |
              +--------------------------------------------------+

                    atomic coordinates            atom    charge  isotop
         -3.56362974   -1.21622675    2.22687486    c      6.000     0
         -2.16726301    1.15279398    1.28353670    c      6.000     0
         -1.96477477    1.09717192   -1.61515204    c      6.000     0
         -0.51631289   -1.30040425   -2.39050988    c      6.000     0
         -1.85628541   -3.69429145   -1.42885597    c      6.000     0
         -2.06905314   -3.58373873    1.46318830    c      6.000     0
         -0.59062025    3.45494447   -2.61742941    c      6.000     0
          2.06882561    3.58387171   -1.46325484    c      6.000     0
          3.56322359    1.21621579   -2.22689384    c      6.000     0
          2.16678189   -1.15270166   -1.28347681    c      6.000     0
          1.96440681   -1.09689187    1.61517103    c      6.000     0
          0.51587058    1.30065959    2.39049282    c      6.000     0
          1.85582554    3.69456685    1.42875459    c      6.000     0
          0.59028755   -3.45463383    2.61755251    c      6.000     0
          3.47858389    6.02470387   -2.45971058    n      7.000     0
          6.26086292    5.97300915   -1.82915168    c      6.000     0
         -3.47840355   -6.02473984    2.45959120    n      7.000     0
         -3.26490836   -6.28941420    5.29240639    c      6.000     0
         -6.26126392   -5.97206910    1.83177319    c      6.000     0
         -2.40759119   -8.40846383    1.31412034    c      6.000     0
          3.26785217    6.28767440   -5.29289723    c      6.000     0
          2.40612648    8.40880493   -1.31656890    c      6.000     0
          3.24844372   -2.82022983   -1.87096286    h      1.000     0
          3.86552801   -1.05494372    2.43902403    h      1.000     0
          0.40828849    1.40363215    4.45767753    h      1.000     0
         -3.24902105    2.82027729    1.87097623    h      1.000     0
         -3.86591312    1.05531252   -2.43897517    h      1.000     0
         -0.40862535   -1.40328375   -4.45769097    h      1.000     0
         -5.44824736   -1.24102516    1.37944710    h      1.000     0
         -3.78075519   -1.11374458    4.28255079    h      1.000     0
          0.48335039   -3.31885293    4.67682885    h      1.000     0
          1.68445452   -5.14445732    2.13751331    h      1.000     0
         -0.74972633   -5.33884706   -2.01415581    h      1.000     0
         -3.72803702   -3.83234336   -2.30057163    h      1.000     0
         -0.48389396    3.31939217   -4.67672761    h      1.000     0
         -1.68465417    5.14475533   -2.13705221    h      1.000     0
          0.74913154    5.33903849    2.01403567    h      1.000     0
          3.72752949    3.83266160    2.30056477    h      1.000     0
          3.78023890    1.11356229   -4.28256836    h      1.000     0
          5.44785282    1.24087090   -1.37949669    h      1.000     0
         -7.01396460   -7.82314468    2.35578373    h      1.000     0
         -7.17100258   -4.49809094    2.93907219    h      1.000     0
         -6.49223246   -5.62672437   -0.18345355    h      1.000     0
         -3.87743748   -4.53823913    6.18208083    h      1.000     0
         -4.49499003   -7.86048799    5.82693722    h      1.000     0
         -1.31465122   -6.71864316    5.78089926    h      1.000     0
         -3.31122864   -9.98562159    2.29562090    h      1.000     0
         -2.87369448   -8.45911842   -0.68757584    h      1.000     0
         -0.36952130   -8.43600282    1.59548204    h      1.000     0
          7.17180833    4.49816356   -2.93426073    h      1.000     0
          7.01396434    7.82366157   -2.35410590    h      1.000     0
          6.48990576    5.62955670    0.18661469    h      1.000     0
          3.31105343    9.98575411   -2.29723095    h      1.000     0
          0.36844520    8.43615089   -1.60073568    h      1.000     0
          2.86951290    8.46008886    0.68572663    h      1.000     0
          4.49792922    7.85881042   -5.82728570    h      1.000     0
          3.88171069    4.53610369   -6.18085253    h      1.000     0
          1.31797724    6.71617823   -5.78349892    h      1.000     0
          6.98152927   12.08844786   -4.93521534    cl    17.000     0
         -6.97959869  -12.08945899    4.93601996    cl    17.000     0
 
       center of nuclear mass  :    0.00013532   -0.00006831    0.00006031
       center of nuclear charge:    0.00011654   -0.00005886    0.00005176

              +--------------------------------------------------+
              |               basis set information              |
              +--------------------------------------------------+

              we will work with the 1s 3p 5d 7f 9g ... basis set
              ...i.e. with spherical basis functions...

   type   atoms  prim   cont   basis
   ---------------------------------------------------------------------------
    c       20     77     55   cc-pVQZ   [5s4p3d2f1g|21s6p3d2f1g]
    n        2     77     55   cc-pVQZ   [5s4p3d2f1g|21s6p3d2f1g]
    h       36     32     30   cc-pVQZ   [4s3p2d1f|6s3p2d1f]
    cl       2    137     59   cc-pVQZ   [6s5p3d2f1g|42s19p3d2f1g]
   ---------------------------------------------------------------------------
   total:   60   3120   2408
   ---------------------------------------------------------------------------

   total number of primitive shells          :  145
   total number of contracted shells         :  724
   total number of cartesian basis functions : 2948
   total number of SCF-basis functions       : 2408


 integral neglect threshold       :  0.11E-13
 integral storage threshold THIZE :  0.10E-04
 integral storage threshold THIME :         5

 RI-J AUXILIARY BASIS SET information:

              we will work with the 1s 3p 5d 7f 9g ... basis set
              ...i.e. with spherical basis functions...

   type   atoms  prim   cont   basis
   ---------------------------------------------------------------------------
    c       20     70     49   cc-pVQZ   [6s4p3d1f1g|12s5p4d2f1g]
    n        2     70     49   cc-pVQZ   [6s4p3d1f1g|12s5p4d2f1g]
    h       36     16     11   cc-pVQZ   [3s1p1d|5s2p1d]
    cl       2     77     51   cc-pVQZ   [8s4p3d1f1g|14s5p5d2f1g]
   ---------------------------------------------------------------------------
   total:   60   2270   1576
   ---------------------------------------------------------------------------

   total number of primitive shells          :   83
   total number of contracted shells         :  544
   total number of cartesian basis functions : 1900
   total number of SCF-basis functions       : 1576


 symmetry group of the molecule :   c1 

 the group has the following generators :
   c1(z)

    1 symmetry operations found

 there are 1 real representations :   a   

 maximum number of shells which are related by symmetry :  1


    mo occupation :
   irrep   mo's   occupied
    a     2408      102
 
 number of basis functions   :         2408
 number of occupied orbitals :          102
 
  
           ------------------
           density functional
           ------------------
 TPSS meta-GGA functional
 exchange:    LDA + TPSS
 correlation: LDA (PW) + TPSS
 grinp -> nfun, dfgga, dfhybrid 
           5 F F
 iterations will be done with small grid
  
 spherical integration : Lebedev's spherical grid
 spherical gridsize    :           5
    i.e. gridpoints    :         590
 value for diffuse not defined
 radial integration    : Chebyshev 2nd kind (scaling 3)
 radial gridsize       :           8
 integration cells     :          60
 partition function    : becke
 partition sharpness   :           3
  

 <rddim> : input of entry tasksize
           from data group '$pardft' failed !

               Default values taken

 <rddim> : input of entry memdiv
           from data group '$pardft' failed !

               Default values taken
  RIDFT: memory allocation for DFT gridpoints
  MEMORY is divided by 1 as DEFAULT
 Each node can hold at most  the            1 -th part
 of the gridpoints    

 biggest AO integral is expected to be    10.299525420
  
           ------------------------
               RI-J - INFORMATION
           ------------------------
 
 
 **************************************************
 *      MEMORY ALLOCATION FOR PARALLEL RI-DFT     *
 **************************************************
 
 
MEMORY FOR (MU NU/ ALPHA), SEQUENTIAL RUN               9979 MByte
 
            DIFFERENCE IN MEMORY NEED:       DIAG./SLAVE  
 
      TOTAL DIFFERENCE :                    256 MByte
 
      difference in xcore:                   22 MByte
      difference in fatmat:                  80 MByte
      getcor calls skipped by slaves:       155 MByte
 
 
           Integral memory available for diagonal.      9979 MByte
 
           Integral memory available for slave             0 MByte
 
         MEMORY FOR (MU NU/ ALPHA) ON DIAGONALIZER      9979 MByte
 
         MEMORY FOR (MU NU/ ALPHA) ON ONE SLAVE            0 MByte
 
         TOTAL MEMORY FOR (MU NU/ ALPHA),ALL NODES      9979 MByte
 
 Contributions to RI integral batches: 
  neglected integral batches:      112665
  direct contribution:              93784
  memory contribution:       56001
 Memory core needed for (P|Q) and Cholesky     19 MByte
 Memory core minimum needed except of (P|Q)     6 MByte
 Total minimum memory core needed (sum)        25 MByte
     number of direct tasks:         160
  
 ****************************************
 Memory allocated for RI-J 10004 MByte
 ****************************************
                                            

          ------------------------
          nuclear repulsion energy  :   2642.57268670    
          ------------------------

 
          -----------------
          -S integrals
          -----------------

 1e-integrals will be neglected if expon. factor < 0.113364E-14
 
          -----------------
          -T+V integrals
          -----------------

 1e-integrals will be neglected if expon. factor < 0.113364E-14
 Difference densities >>NOT<< switched on in parallel ridft!

 automatic virtual orbital shift switched on 
      shift if e(lumo)-e(homo) < 0.10000000    


 DIIS switched on: error vector is FDS-SDF
 Max. Iterations for DIIS is     :   4
 DIIS matrix (see manual) 
    Scaling factor of diagonals  :  1.200
    threshold for scaling factor :  0.000

 scf convergence criterion : increment of total energy < .1000000D-08
                  and increment of one-electron energy < .1000000D-05


 <geterg> : there is no data group $energy 

  MOs are in ASCII format !


 reading orbital data $scfmo  from file mos . 

 orbital characterization : expanded
 
 mo provided and orthogonalized by Cholesky decomposition

 DSCF restart information will be dumped onto file mos


 Starting SCF iterations


 ITERATION  ENERGY          1e-ENERGY        2e-ENERGY     RMS[dD(SAO)]   TOL
   1  -1811.2303827271    -7690.4809545     3236.6778850    0.000D+00 0.113D-13
                            Exc = -189.566145116     Coul =  3426.24403015    
                              N = 204.00051304    
                            current damping = 0.700
 
          max. resid. norm for Fia-block=  2.820D-01 for orbital      4a         
          max. resid. fock norm         =  6.987D+00 for orbital   2236a         

 ITERATION  ENERGY          1e-ENERGY        2e-ENERGY     RMS[dD(SAO)]   TOL
   2  -1813.5732566862    -7718.5695405     3262.4235971    0.457D-02 0.113D-13
                            Exc = -191.639083776     Coul =  3454.06268089    
                              N = 204.00044301    
                            current damping = 0.650
 
          Norm of current diis error:  5.4546    
          max. resid. norm for Fia-block=  1.168D-01 for orbital      4a         
          max. resid. fock norm         =  1.841D-01 for orbital   1464a         

 ITERATION  ENERGY          1e-ENERGY        2e-ENERGY     RMS[dD(SAO)]   TOL
   3  -1814.0814676483    -7721.5332387     3264.8790843    0.171D-02 0.113D-13
                            Exc = -192.215921651     Coul =  3457.09500597    
                              N = 204.00037499    
                            current damping = 0.550
 
          Norm of current diis error:  2.7009    
          max. resid. norm for Fia-block=  5.525D-02 for orbital     35a         
          max. resid. fock norm         =  7.591D-02 for orbital   1406a         

 ITERATION  ENERGY          1e-ENERGY        2e-ENERGY     RMS[dD(SAO)]   TOL
   4  -1814.2387605894    -7729.2339446     3272.4224973    0.755D-03 0.113D-13
                            Exc = -192.728990023     Coul =  3465.15148736    
                              N = 204.00034997    
                            current damping = 0.450
 
          Norm of current diis error:  1.0179    
          max. resid. norm for Fia-block=  2.145D-02 for orbital     35a         
          max. resid. fock norm         =  4.413D-02 for orbital   1262a         

 ITERATION  ENERGY          1e-ENERGY        2e-ENERGY     RMS[dD(SAO)]   TOL
   5  -1814.2629009134    -7728.0422099     3271.2066223    0.434D-03 0.113D-13
                            Exc = -192.841765906     Coul =  3464.04838822    
                              N = 204.00032500    
                            current damping = 0.500
 
          Norm of current diis error: 0.53304    
          max. resid. norm for Fia-block=  8.605D-03 for orbital     53a         
          max. resid. fock norm         =  1.437D-02 for orbital   1364a         
          mo-orthogonalization: Cholesky decomposition

 ITERATION  ENERGY          1e-ENERGY        2e-ENERGY     RMS[dD(SAO)]   TOL
   6  -1814.2683173322    -7730.0864559     3273.2454518    0.150D-03 0.113D-13
                            Exc = -192.937365037     Coul =  3466.18281686    
                              N = 204.00032423    
                            current damping = 0.550
 
          Norm of current diis error: 0.12665    
          max. resid. norm for Fia-block=  2.675D-03 for orbital     49a         
          max. resid. fock norm         =  5.233D-03 for orbital   1255a         

 ITERATION  ENERGY          1e-ENERGY        2e-ENERGY     RMS[dD(SAO)]   TOL
   7  -1814.2687245746    -7730.0538168     3273.2124056    0.684D-04 0.113D-13
                            Exc = -192.949370161     Coul =  3466.16177573    
                              N = 204.00032144    
                            current damping = 0.600
 
          Norm of current diis error: 0.51783E-01
          max. resid. norm for Fia-block=  1.149D-03 for orbital     34a         
          max. resid. fock norm         =  2.286D-03 for orbital   1245a         

 ITERATION  ENERGY          1e-ENERGY        2e-ENERGY     RMS[dD(SAO)]   TOL
   8  -1814.2687831150    -7730.0258698     3273.1844000    0.210D-04 0.113D-13
                            Exc = -192.952903768     Coul =  3466.13730372    
                              N = 204.00032092    
                            current damping = 0.450
 
          Norm of current diis error: 0.22146E-01
          max. resid. norm for Fia-block=  4.385D-04 for orbital     52a         
          max. resid. fock norm         =  7.577D-04 for orbital   2353a         

 ITERATION  ENERGY          1e-ENERGY        2e-ENERGY     RMS[dD(SAO)]   TOL
   9  -1814.2687943017    -7730.0829487     3273.2414677    0.936D-05 0.113D-13
                            Exc = -192.957351191     Coul =  3466.19881888    
                              N = 204.00032055    
                            current damping = 0.500
 
          Norm of current diis error: 0.60343E-02
          max. resid. norm for Fia-block=  1.322D-04 for orbital     97a         
          max. resid. fock norm         =  3.192D-04 for orbital   2351a         

 ITERATION  ENERGY          1e-ENERGY        2e-ENERGY     RMS[dD(SAO)]   TOL
  10  -1814.2687952360    -7730.0940705     3273.2525886    0.455D-05 0.113D-13
                            Exc = -192.957638479     Coul =  3466.21022708    
                              N = 204.00032043    
                            current damping = 0.350
 
          Norm of current diis error: 0.33526E-02
          max. resid. norm for Fia-block=  6.573D-05 for orbital     96a         
          max. resid. fock norm         =  1.670D-04 for orbital   1361a         
          mo-orthogonalization: Cholesky decomposition

 ITERATION  ENERGY          1e-ENERGY        2e-ENERGY     RMS[dD(SAO)]   TOL
  11  -1814.2687954312    -7730.0793796     3273.2378975    0.105D-05 0.113D-13
                            Exc = -192.957666558     Coul =  3466.19556406    
                              N = 204.00032038    
                            current damping = 0.400
 
          Norm of current diis error: 0.22535E-02
          max. resid. norm for Fia-block=  3.616D-05 for orbital     88a         
          max. resid. fock norm         =  7.378D-05 for orbital   2404a         

 ITERATION  ENERGY          1e-ENERGY        2e-ENERGY     RMS[dD(SAO)]   TOL
  12  -1814.2687954884    -7730.0871876     3273.2457055    0.340D-06 0.113D-13
                            Exc = -192.957978353     Coul =  3466.20368380    
                              N = 204.00032040    
                            current damping = 0.450
 
          Norm of current diis error: 0.11447E-02
          max. resid. norm for Fia-block=  2.031D-05 for orbital     88a         
          max. resid. fock norm         =  3.991D-05 for orbital   2207a         

 ITERATION  ENERGY          1e-ENERGY        2e-ENERGY     RMS[dD(SAO)]   TOL
  13  -1814.2687955140    -7730.0886442     3273.2471620    0.289D-06 0.113D-13
                            Exc = -192.958014403     Coul =  3466.20517638    
                              N = 204.00032038    
                            current damping = 0.300
 
          Norm of current diis error: 0.51697E-03
          max. resid. norm for Fia-block=  9.474D-06 for orbital     34a         
          max. resid. fock norm         =  1.388D-05 for orbital   2344a         

 ITERATION  ENERGY          1e-ENERGY        2e-ENERGY     RMS[dD(SAO)]   TOL
  14  -1814.2687955186    -7730.0870251     3273.2455428    0.126D-06 0.113D-13
                            Exc = -192.957935972     Coul =  3466.20347881    
                              N = 204.00032038    
                            current damping = 0.350
 
          Norm of current diis error: 0.14477E-03
          max. resid. norm for Fia-block=  3.736D-06 for orbital     97a         
          max. resid. fock norm         =  6.189D-06 for orbital   1362a         

 DENSITY CONVERGED !


 ITERATION  ENERGY          1e-ENERGY        2e-ENERGY     RMS[dD(SAO)]   TOL
  15  -1814.2687955191    -7730.0870708     3273.2455886    0.513D-07 0.113D-13
                            Exc = -192.957955242     Coul =  3466.20354386    
                              N = 204.00032038    
                            current damping = 0.400
 
          Norm of current diis error: 0.35598E-04
          max. resid. norm for Fia-block=  7.326D-07 for orbital     98a         
          max. resid. fock norm         =  2.047D-06 for orbital   2375a         
          mo-orthogonalization: Cholesky decomposition

 DENSITY CONVERGED !


 ITERATION  ENERGY          1e-ENERGY        2e-ENERGY     RMS[dD(SAO)]   TOL
  16  -1814.2687955192    -7730.0871929     3273.2457107    0.191D-07 0.113D-13
                            Exc = -192.957955380     Coul =  3466.20366606    
                              N = 204.00032038    
                            current damping = 0.250
 
          Norm of current diis error: 0.13083E-04
          max. resid. norm for Fia-block=  2.092D-07 for orbital     88a         
          max. resid. fock norm         =  7.802D-07 for orbital   2378a         
          irrep a   : virtual orbitals shifted by    0.00066

 DENSITY CONVERGED !


 ITERATION  ENERGY          1e-ENERGY        2e-ENERGY     RMS[dD(SAO)]   TOL
  17  -1814.2687955192    -7730.0871575     3273.2456753    0.643D-08 0.113D-13
                            Exc = -192.957955315     Coul =  3466.20363061    
                              N = 204.00032038    
                            current damping = 0.300
 
          Norm of current diis error: 0.50974E-05
          max. resid. norm for Fia-block=  1.067D-07 for orbital     97a         
          max. resid. fock norm         =  2.371D-07 for orbital   2379a         

 ENERGY & DENSITY CONVERGED !


 ITERATION  ENERGY          1e-ENERGY        2e-ENERGY     RMS[dD(SAO)]   TOL
  18  -1814.2682312733    -7730.0871617     3273.2462437    0.232D-08 0.113D-13
                            Exc = -192.957391599     Coul =  3466.20363530    
                              N = 203.99987358    
                            current damping = 0.350
 
          Norm of current diis error: 0.20771E-05
          max. resid. norm for Fia-block=  3.694D-08 for orbital     88a         
          max. resid. fock norm         =  1.048D-07 for orbital   2353a         

 End of SCF iterations

   convergence criteria satisfied after   18 iterations


                  ------------------------------------------ 
                 |  total energy      =  -1814.26823127330  |
                  ------------------------------------------ 
                 :  kinetic energy    =   1807.20217606068  :
                 :  potential energy  =  -3621.47040733398  :
                 :  virial theorem    =      1.99610528637  :
                 :  wavefunction norm =      1.00000000000  :
                  .......................................... 


 <geterg> : there is no data group $energy 


 <skperg> : $end is missing 


 orbitals $scfmo  will be written to file mos

    irrep                 98a         99a        100a        101a        102a   
 eigenvalues H         -0.15390    -0.14793    -0.14793    -0.14792    -0.14791
            eV          -4.1878     -4.0255     -4.0254     -4.0250     -4.0250
 occupation              2.0000      2.0000      2.0000      2.0000      2.0000 

    irrep                103a        104a        105a        106a        107a   
 eigenvalues H         -0.06844    -0.03603    -0.03422    -0.03420    -0.01975
            eV          -1.8623     -0.9804     -0.9311     -0.9307     -0.5373
 
 
 ! grave: sending quit signal to master process
 
 
 
 
 ==============================================================================
                           electrostatic moments
 ==============================================================================

 reference point for electrostatic moments:    0.00000   0.00000   0.00000

 
              nuc           elec       ->  total
 ------------------------------------------------------------------------------
                          charge      
 ------------------------------------------------------------------------------
         204.000000    -204.000000      -0.000000
 
 ------------------------------------------------------------------------------
                       dipole moment  
 ------------------------------------------------------------------------------
   x       0.023774      -0.025042      -0.001268
   y      -0.012008       0.012852       0.000843
   z       0.010558      -0.011255      -0.000697
 
   | dipole moment | =     0.0017 a.u. =     0.0043 debye 
 
 ------------------------------------------------------------------------------
                     quadrupole moment
 ------------------------------------------------------------------------------
  xx    3421.795366   -3592.916817    -171.121451
  yy    8912.728745   -9197.150506    -284.421760
  zz    2048.535902   -2191.314232    -142.778331
  xy    4756.142614   -4854.298515     -98.155901
  xz   -1941.804705    1981.882283      40.077578
  yz   -3362.936708    3432.337527      69.400818
 
     1/3  trace=    -199.440514
     anisotropy=     254.996818
 
 ==============================================================================
 

    ridft profiling
  --------------------------------------------------------------------
             module   cpu total (s)       %  wall total (s)       %

               RIDFT          4120.3  100.00          4120.1  100.00
         Ridft_b_scf            83.5    2.03            83.4    2.03
        b_scf_prelim             0.0    0.00             0.0    0.00
        b_scf_molinp             0.0    0.00             0.0    0.00
         b_scf_init0             0.0    0.00             0.0    0.00
        b_scf_auxbas             0.0    0.00             0.0    0.00
      b_scf_symmetry             0.0    0.00             0.0    0.00
         b_scf_cosmo             0.0    0.00             0.0    0.00
        b_scf_params             7.1    0.17             7.1    0.17
          b_scf_ri-j            39.9    0.97            39.9    0.97
    b_scf_ri-j_auxpq            39.9    0.97            39.9    0.97
     ri-j_auxpq_chol             0.6    0.01             0.6    0.01
         b_scf_1elec             3.6    0.09             3.6    0.09
       b_scf_moinput            32.8    0.80            32.7    0.79
     moinput_orthmos            32.4    0.79            32.4    0.79
    b_scf_dft-dstmax             0.0    0.00             0.0    0.00
           Ridft_scf          4035.8   97.95          4035.4   97.94
          Scf_b_loop             0.0    0.00             0.0    0.00
                noga             0.0    0.00             0.0    0.00
            Scf_loop          4031.6   97.85          4030.4   97.82
     scf_loop_mkdmat             9.5    0.23             9.5    0.23
       scf_loop_ri-j           322.2    7.82           322.1    7.82
      parlp1.bc.dens             1.5    0.04             1.5    0.04
        parlp1.gs.gp             4.5    0.11             4.5    0.11
        parlp2.bc.gq             0.0    0.00             0.0    0.00
        scf_loop_dft          3307.9   80.28          3306.1   80.24
      pardft.bc.dens             0.0    0.00             0.0    0.00
        dft_grid_con             2.1    0.05             2.2    0.05
          dft_xcmrhf          3291.7   79.89          3289.8   79.85
          dft_getval            32.9    0.80            32.9    0.80
          funct2 dst             0.3    0.01             0.3    0.01
      funct2 f2loop1             7.0    0.17             7.0    0.17
      funct2 f2loop2            12.6    0.31            12.6    0.31
          funct2 s+c            12.5    0.30            12.5    0.30
        funct2 cmf_2            11.4    0.28            11.4    0.28
          dft_mkdens          1600.9   38.85          1600.0   38.83
        dft_mgga-fun             0.9    0.02             0.9    0.02
          dft_mkfock          1656.5   40.20          1655.4   40.18
     pardft.red.fock           263.5    6.39           263.4    6.39
     scf_loop_energy             0.1    0.00             0.1    0.00
     scf_loop_mkfock             0.2    0.00             0.2    0.00
       scf_loop_diis           190.3    4.62           190.2    4.62
       scf_loop_diag           106.9    2.59           107.0    2.60
         diag_tritrn            35.5    0.86            35.6    0.86
          diag_rdiag            71.0    1.72            71.0    1.72
     scf_loop_modump            62.3    1.51            62.9    1.53
      scf_loop_ortho            29.6    0.72            29.6    0.72
          Scf_a_loop             4.1    0.10             5.0    0.12
         Ridft_a_scf             1.0    0.03             1.2    0.03
         a_scf_fanal             0.9    0.02             1.0    0.02
 


    ------------------------------------------------------------------------
         total  cpu-time :  1 hours  8 minutes and 46 seconds
         total wall-time :  1 hours  8 minutes and 46 seconds
    ------------------------------------------------------------------------


   ****  ridft : all done  ****


    2017-10-30 02:10:19.295 

