Using Slurm to start processes with PMI2
STARTING ridft ON 8 PROCESSORS!
RUNNING PROGRAM /beegfs/modfac/apps/TURBOMOLE/7.0_intel_GA/bin/em64t-unknown-linux-gnu_mpi/ridft_mpi.
PLEASE WAIT UNTIL ridft HAS FINISHED.
Look for the output in slave1.output.
  this is node-proc. number 1 running on node c-5-11.local
  the total number of node-proc. spawned is            8
  parallel platform: MPP, or cluster with fast interconnect

 ridft (c-5-11.local) : TURBOMOLE V7.0.2( ) 15 Jan 2016 at 17:47:42
 Copyright (C) 2016 TURBOMOLE GmbH, Karlsruhe


    2017-11-07 20:49:07.310 



                                  r i d f t

                        DFT program with RI approximation 
                                for coulomb part 




                                                 
                                 References:     
                                                 
          TURBOMOLE:                             
              R. Ahlrichs, M. Baer, M. Haeser, H. Horn, and
              C. Koelmel
              Electronic structure calculations on workstation
              computers: the program system TURBOMOLE
              Chem. Phys. Lett. 162: 165 (1989)
          Density Functional:                              
              O. Treutler and R. Ahlrichs                      
              Efficient Molecular Numerical Integration Schemes
              J. Chem. Phys. 102: 346 (1995)                   
          Parallel Version:                                
              Performance of parallel TURBOMOLE for Density    
              Functional Calculations                          
              M. v. Arnim and R. Ahlrichs                      
              J. Comp. Chem. 19: 1746 (1998)                   
          RI-J Method:                                     
              Auxiliary Basis Sets to approximate Coulomb      
              Potentials                                       
              Chem. Phys. Lett. 240: 283 (1995)                
              K. Eichkorn, O. Treutler, H. Oehm, M. Haeser     
              and R. Ahlrichs                                  
              Chem. Phys. Lett. 242: 652 (1995)                
                                                           
              Auxiliary Basis Sets for Main Row Atoms and their
              Use to approximate Coulomb Potentials            
              K. Eichkorn, F. Weigend, O. Treutler and         
              R. Ahlrichs                                      
              Theo. Chem. Acc. 97: 119 (1997)                   
                                                           
              Accurate Coulomb-fitting basis sets for H to Rn 
              F. Weigend                                        
              Phys. Chem. Chem. Phys. 8: 1057 (2006)            
                                                           
          Multipole accelerated RI-J (MARI-J):             
              Fast evaluation of the Coulomb potential for     
              electron densities using multipole accelerated   
              resolution of identity approximation             
              M. Sierka, A. Hogekamp and R. Ahlrichs           
              J. Chem. Phys. 118: 9136 (2003)                  
          RI-JK Method:                                     
              A fully direct RI-HF algorithm: Implementation,
              optimised auxiliary basis sets, demonstration of
              accuracy and efficiency                         
              F. Weigend                                      
              Phys. Chem. Chem. Phys. 4: 4285 (2002)           
          Two-component HF and DFT with spin-orbit coupling:  
              Self-consistent treatment of spin-orbit         
              interactions with efficient Hartree-Fock and    
              density functional methods                      
              M. K. Armbruster, F. Weigend, C. van Wüllen and 
              W. Klopper                                      
              Phys. Chem. Chem. Phys. 10: 1748 (2008)         
          Relativistic all-electron 2c calculations           
              An efficient implementation of two-component    
              relativistic exact-decoupling methods for large 
              molecules                                       
              D. Peng, N. Middendorf, F. Weigend, M. Reiher   
              J. Chem. Phys. 138, 184105 (2013)               
                                         


 


              +--------------------------------------------------+
              |      general information about current run       |
              +--------------------------------------------------+

 

 SCF run will be profiled !


 DENSITY CONVERGENCE CHECK SWITCHED ON !
 SCF CONVERGENCE IF RMS(delta[D]) <     0.1000000000E-06

 TPSS meta-GGA functional
 exchange:    LDA + TPSS
 correlation: LDA (PW) + TPSS
 A DFT calculation using the RI-J approximation will be carried out.
 Allocatable memory for RI due to $ricore (MB):       12000


              +--------------------------------------------------+
              | Atomic coordinate, charge and isotop information |
              +--------------------------------------------------+

                    atomic coordinates            atom    charge  isotop
          0.41762680    0.94097172   -3.47075615    c      6.000     0
         -0.38115719   -0.94193257    3.43201590    c      6.000     0
         -0.69331975    0.58671567   -0.99239775    c      6.000     0
          0.73023825   -0.58754151    0.95372772    c      6.000     0
          2.94185546    0.10085069   -3.91927675    c      6.000     0
         -2.90529028   -0.10101985    3.88035189    c      6.000     0
          4.04926869    0.43815509   -6.33093317    c      6.000     0
         -4.01279637   -0.43716306    6.29196394    c      6.000     0
          0.92422366   -2.09667831    5.46266008    c      6.000     0
         -0.88857707    2.09470090   -5.50138177    c      6.000     0
         -3.20832493    1.39735654   -0.45224206    c      6.000     0
          3.24579843   -1.39682503    0.41349113    c      6.000     0
         -4.27076249    1.06930894    1.87797054    c      6.000     0
          4.30813404   -1.06867138   -1.91692406    c      6.000     0
          0.23170404    2.40280920   -7.84029746    c      6.000     0
         -0.19677597   -2.40462339    7.80142071    c      6.000     0
          2.72369888    1.57093869   -8.26894026    c      6.000     0
         -2.68779127   -1.57073571    8.23003627    c      6.000     0
         -4.31889928    2.29834901   -1.91882446    h      1.000     0
          4.35657888   -2.29762129    1.88009713    h      1.000     0
         -2.80911488    2.75823662   -5.23977913    h      1.000     0
          2.84463917   -2.76087410    5.20174938    h      1.000     0
         -6.19114228    1.70668972    2.23324461    h      1.000     0
          6.22915747   -1.70442052   -2.27153997    h      1.000     0
         -5.93777388    0.21999428    6.58552551    h      1.000     0
          5.97470309   -0.21756100   -6.62488792    h      1.000     0
          0.85850225   -3.29934505    9.31874425    h      1.000     0
         -0.82403301    3.29616516   -9.35803065    h      1.000     0
          3.58810965    1.82255328  -10.11510007    h      1.000     0
         -3.55449247   -1.82059259   10.07539000    h      1.000     0
 
       center of nuclear mass  :    0.01819849   -0.00017106   -0.01941907
       center of nuclear charge:    0.01818960   -0.00015606   -0.01942066

              +--------------------------------------------------+
              |               basis set information              |
              +--------------------------------------------------+

              we will work with the 1s 3p 5d 7f 9g ... basis set
              ...i.e. with spherical basis functions...

   type   atoms  prim   cont   basis
   ---------------------------------------------------------------------------
    c       18     50     30   cc-pVTZ   [4s3p2d1f|18s5p2d1f]
    h       12     16     14   cc-pVTZ   [3s2p1d|5s2p1d]
   ---------------------------------------------------------------------------
   total:   30   1092    708
   ---------------------------------------------------------------------------

   total number of primitive shells          :   34
   total number of contracted shells         :  252
   total number of cartesian basis functions :  810
   total number of SCF-basis functions       :  708


 integral neglect threshold       :  0.41E-13
 integral storage threshold THIZE :  0.10E-04
 integral storage threshold THIME :         5

 RI-J AUXILIARY BASIS SET information:

              we will work with the 1s 3p 5d 7f 9g ... basis set
              ...i.e. with spherical basis functions...

   type   atoms  prim   cont   basis
   ---------------------------------------------------------------------------
    c       18     70     49   cc-pVTZ   [6s4p3d1f1g|12s5p4d2f1g]
    h       12     16     11   cc-pVTZ   [3s1p1d|5s2p1d]
   ---------------------------------------------------------------------------
   total:   30   1452   1014
   ---------------------------------------------------------------------------

   total number of primitive shells          :   32
   total number of contracted shells         :  330
   total number of cartesian basis functions : 1242
   total number of SCF-basis functions       : 1014


 symmetry group of the molecule :   c1 

 the group has the following generators :
   c1(z)

    1 symmetry operations found

 there are 1 real representations :   a   

 maximum number of shells which are related by symmetry :  1


    mo occupation :
   irrep   mo's   occupied
    a      708       60
 
 number of basis functions   :          708
 number of occupied orbitals :           60
 
  
           ------------------
           density functional
           ------------------
 TPSS meta-GGA functional
 exchange:    LDA + TPSS
 correlation: LDA (PW) + TPSS
 grinp -> nfun, dfgga, dfhybrid 
           5 F F
 iterations will be done with small grid
  
 spherical integration : Lebedev's spherical grid
 spherical gridsize    :           5
    i.e. gridpoints    :         590
 value for diffuse not defined
 radial integration    : Chebyshev 2nd kind (scaling 3)
 radial gridsize       :           8
 integration cells     :          30
 partition function    : becke
 partition sharpness   :           3
  

 <rddim> : input of entry tasksize
           from data group '$pardft' failed !

               Default values taken

 <rddim> : input of entry memdiv
           from data group '$pardft' failed !

               Default values taken
  RIDFT: memory allocation for DFT gridpoints
  MEMORY is divided by 1 as DEFAULT
 Each node can hold at most  the            1 -th part
 of the gridpoints    

 biggest AO integral is expected to be     3.593180334
  
           ------------------------
               RI-J - INFORMATION
           ------------------------
 
 
 **************************************************
 *      MEMORY ALLOCATION FOR PARALLEL RI-DFT     *
 **************************************************
 
 
MEMORY FOR (MU NU/ ALPHA), SEQUENTIAL RUN              11992 MByte
 
            DIFFERENCE IN MEMORY NEED:       DIAG./SLAVE  
 
      TOTAL DIFFERENCE :                     29 MByte
 
      difference in xcore:                    9 MByte
      difference in fatmat:                   8 MByte
      getcor calls skipped by slaves:        13 MByte
 
 
           Integral memory available for diagonal.     11992 MByte
 
           Integral memory available for slave             0 MByte
 
         MEMORY FOR (MU NU/ ALPHA) ON DIAGONALIZER     11992 MByte
 
         MEMORY FOR (MU NU/ ALPHA) ON ONE SLAVE            0 MByte
 
         TOTAL MEMORY FOR (MU NU/ ALPHA),ALL NODES     11992 MByte
 
 Contributions to RI integral batches: 
  neglected integral batches:        8737
  direct contribution:                  0
  memory contribution:       23141
 Memory core needed for (P|Q) and Cholesky      8 MByte
 Memory core minimum needed except of (P|Q)     3 MByte
 Total minimum memory core needed (sum)        10 MByte
  
 ****************************************
 Memory allocated for RI-J 12002 MByte
 ****************************************
                                            

          ------------------------
          nuclear repulsion energy  :   1136.97699216    
          ------------------------

 
          -----------------
          -S integrals
          -----------------

 1e-integrals will be neglected if expon. factor < 0.412588E-14
 
          -----------------
          -T+V integrals
          -----------------

 1e-integrals will be neglected if expon. factor < 0.412588E-14
 Difference densities >>NOT<< switched on in parallel ridft!

 automatic virtual orbital shift switched on 
      shift if e(lumo)-e(homo) < 0.10000000    


 DIIS switched on: error vector is FDS-SDF
 Max. Iterations for DIIS is     :   4
 DIIS matrix (see manual) 
    Scaling factor of diagonals  :  1.200
    threshold for scaling factor :  0.000

 scf convergence criterion : increment of total energy < .1000000D-08
                  and increment of one-electron energy < .1000000D-05


 <geterg> : there is no data group $energy 

  MOs are in ASCII format !


 reading orbital data $scfmo  from file mos . 

 orbital characterization : expanded
 
 mo provided and orthogonalized by Cholesky decomposition

 DSCF restart information will be dumped onto file mos


 Starting SCF iterations


 ITERATION  ENERGY          1e-ENERGY        2e-ENERGY     RMS[dD(SAO)]   TOL
   1  -691.52552405152    -3163.0622127     1334.5596965    0.000D+00 0.412D-13
                            Exc = -99.8383665711     Coul =  1434.39806305    
                              N = 119.99992423    
                            current damping = 0.700
 
          max. resid. norm for Fia-block=  2.575D-01 for orbital     11a         
          max. resid. fock norm         =  4.962D+00 for orbital    659a         

 ITERATION  ENERGY          1e-ENERGY        2e-ENERGY     RMS[dD(SAO)]   TOL
   2  -693.08932876363    -3182.4024931     1352.3361722    0.526D-02 0.412D-13
                            Exc = -101.471185443     Coul =  1453.80735762    
                              N = 119.99993680    
                            current damping = 0.650
 
          Norm of current diis error:  3.4718    
          max. resid. norm for Fia-block=  1.184D-01 for orbital     21a         
          max. resid. fock norm         =  1.355D-01 for orbital     20a         

 ITERATION  ENERGY          1e-ENERGY        2e-ENERGY     RMS[dD(SAO)]   TOL
   3  -693.42109757033    -3186.7908287     1356.3927390    0.184D-02 0.412D-13
                            Exc = -101.966401146     Coul =  1458.35914014    
                              N = 119.99994257    
                            current damping = 0.550
 
          Norm of current diis error:  1.6862    
          max. resid. norm for Fia-block=  5.851D-02 for orbital     20a         
          max. resid. fock norm         =  6.509D-02 for orbital     20a         

 ITERATION  ENERGY          1e-ENERGY        2e-ENERGY     RMS[dD(SAO)]   TOL
   4  -693.51571989845    -3190.6931605     1360.2004484    0.926D-03 0.412D-13
                            Exc = -102.291859586     Coul =  1462.49230800    
                              N = 119.99994902    
                            current damping = 0.450
 
          Norm of current diis error: 0.63900    
          max. resid. norm for Fia-block=  2.281D-02 for orbital     20a         
          max. resid. fock norm         =  2.579D-02 for orbital     20a         

 ITERATION  ENERGY          1e-ENERGY        2e-ENERGY     RMS[dD(SAO)]   TOL
   5  -693.53093766754    -3191.4724764     1360.9645466    0.440D-03 0.412D-13
                            Exc = -102.412626761     Coul =  1463.37717337    
                              N = 119.99995121    
                            current damping = 0.350
 
          Norm of current diis error: 0.25410    
          max. resid. norm for Fia-block=  7.964D-03 for orbital     20a         
          max. resid. fock norm         =  1.008D-02 for orbital     20a         
          mo-orthogonalization: Cholesky decomposition

 ITERATION  ENERGY          1e-ENERGY        2e-ENERGY     RMS[dD(SAO)]   TOL
   6  -693.53282612834    -3192.5857496     1362.0759313    0.200D-03 0.412D-13
                            Exc = -102.472596527     Coul =  1464.54852787    
                              N = 119.99995289    
                            current damping = 0.250
 
          Norm of current diis error: 0.14218    
          max. resid. norm for Fia-block=  3.248D-03 for orbital     59a         
          max. resid. fock norm         =  5.398D-03 for orbital    696a         

 ITERATION  ENERGY          1e-ENERGY        2e-ENERGY     RMS[dD(SAO)]   TOL
   7  -693.53350713494    -3192.2647309     1361.7542316    0.838D-04 0.412D-13
                            Exc = -102.478338615     Coul =  1464.23257022    
                              N = 119.99995317    
                            current damping = 0.300
 
          Norm of current diis error: 0.50623E-01
          max. resid. norm for Fia-block=  1.584D-03 for orbital     57a         
          max. resid. fock norm         =  2.348D-03 for orbital    698a         

 ITERATION  ENERGY          1e-ENERGY        2e-ENERGY     RMS[dD(SAO)]   TOL
   8  -693.53355213518    -3192.4018023     1361.8912580    0.308D-04 0.412D-13
                            Exc = -102.479073178     Coul =  1464.37033118    
                              N = 119.99995312    
                            current damping = 0.350
 
          Norm of current diis error: 0.37417E-01
          max. resid. norm for Fia-block=  6.684D-04 for orbital     57a         
          max. resid. fock norm         =  1.269D-03 for orbital    703a         

 ITERATION  ENERGY          1e-ENERGY        2e-ENERGY     RMS[dD(SAO)]   TOL
   9  -693.53360805560    -3192.3673883     1361.8567881    0.154D-04 0.412D-13
                            Exc = -102.480039393     Coul =  1464.33682752    
                              N = 119.99995323    
                            current damping = 0.400
 
          Norm of current diis error: 0.69270E-02
          max. resid. norm for Fia-block=  2.816D-04 for orbital     60a         
          max. resid. fock norm         =  4.423D-04 for orbital     17a         

 ITERATION  ENERGY          1e-ENERGY        2e-ENERGY     RMS[dD(SAO)]   TOL
  10  -693.53360767114    -3192.3963960     1361.8857962    0.552D-05 0.412D-13
                            Exc = -102.481034653     Coul =  1464.36683081    
                              N = 119.99995325    
                            current damping = 0.450
 
          Norm of current diis error: 0.76037E-02
          max. resid. norm for Fia-block=  1.066D-04 for orbital     60a         
          max. resid. fock norm         =  1.789D-04 for orbital    701a         
          mo-orthogonalization: Cholesky decomposition

 ITERATION  ENERGY          1e-ENERGY        2e-ENERGY     RMS[dD(SAO)]   TOL
  11  -693.53360970421    -3192.3856564     1361.8750546    0.213D-05 0.412D-13
                            Exc = -102.480851674     Coul =  1464.35590624    
                              N = 119.99995326    
                            current damping = 0.500
 
          Norm of current diis error: 0.27117E-02
          max. resid. norm for Fia-block=  4.828D-05 for orbital     54a         
          max. resid. fock norm         =  1.239D-04 for orbital     12a         

 ITERATION  ENERGY          1e-ENERGY        2e-ENERGY     RMS[dD(SAO)]   TOL
  12  -693.53360998050    -3192.3796264     1361.8690243    0.938D-06 0.412D-13
                            Exc = -102.480621210     Coul =  1464.34964552    
                              N = 119.99995325    
                            current damping = 0.350
 
          Norm of current diis error: 0.81389E-03
          max. resid. norm for Fia-block=  2.054D-05 for orbital     58a         
          max. resid. fock norm         =  4.050D-05 for orbital      9a         

 ITERATION  ENERGY          1e-ENERGY        2e-ENERGY     RMS[dD(SAO)]   TOL
  13  -693.53360999998    -3192.3800065     1361.8694043    0.446D-06 0.412D-13
                            Exc = -102.480614744     Coul =  1464.35001908    
                              N = 119.99995325    
                            current damping = 0.400
 
          Norm of current diis error: 0.42416E-03
          max. resid. norm for Fia-block=  8.170D-06 for orbital     59a         
          max. resid. fock norm         =  1.300D-05 for orbital    705a         

 ITERATION  ENERGY          1e-ENERGY        2e-ENERGY     RMS[dD(SAO)]   TOL
  14  -693.53361000705    -3192.3792204     1361.8686183    0.167D-06 0.412D-13
                            Exc = -102.480596619     Coul =  1464.34921487    
                              N = 119.99995325    
                            current damping = 0.450
 
          Norm of current diis error: 0.52749E-04
          max. resid. norm for Fia-block=  1.568D-06 for orbital     60a         
          max. resid. fock norm         =  3.164D-06 for orbital    697a         

 DENSITY CONVERGED !


 ITERATION  ENERGY          1e-ENERGY        2e-ENERGY     RMS[dD(SAO)]   TOL
  15  -693.53361000711    -3192.3792520     1361.8686498    0.305D-07 0.412D-13
                            Exc = -102.480596234     Coul =  1464.34924606    
                              N = 119.99995325    
                            current damping = 0.500
 
          Norm of current diis error: 0.38524E-04
          max. resid. norm for Fia-block=  7.013D-07 for orbital     58a         
          max. resid. fock norm         =  1.678D-06 for orbital     10a         
          mo-orthogonalization: Cholesky decomposition

 DENSITY CONVERGED !


 ITERATION  ENERGY          1e-ENERGY        2e-ENERGY     RMS[dD(SAO)]   TOL
  16  -693.53361000716    -3192.3792739     1361.8686717    0.121D-07 0.412D-13
                            Exc = -102.480597771     Coul =  1464.34926951    
                              N = 119.99995325    
                            current damping = 0.350
 
          Norm of current diis error: 0.88019E-05
          max. resid. norm for Fia-block=  1.784D-07 for orbital     60a         
          max. resid. fock norm         =  3.835D-07 for orbital     13a         

 ENERGY & DENSITY CONVERGED !


 ITERATION  ENERGY          1e-ENERGY        2e-ENERGY     RMS[dD(SAO)]   TOL
  17  -693.53321408478    -3192.3792646     1361.8690584    0.404D-08 0.412D-13
                            Exc = -102.480201857     Coul =  1464.34926024    
                              N = 120.00001870    
                            current damping = 0.400
 
          Norm of current diis error: 0.26127E-05
          max. resid. norm for Fia-block=  6.025D-08 for orbital     60a         
          max. resid. fock norm         =  1.337D-07 for orbital     12a         

 End of SCF iterations

   convergence criteria satisfied after   17 iterations


                  ------------------------------------------ 
                 |  total energy      =   -693.53321408478  |
                  ------------------------------------------ 
                 :  kinetic energy    =    689.49245136973  :
                 :  potential energy  =  -1383.02566545451  :
                 :  virial theorem    =      1.99417365653  :
                 :  wavefunction norm =      1.00000000000  :
                  .......................................... 


 <geterg> : there is no data group $energy 


 <skperg> : $end is missing 


 orbitals $scfmo  will be written to file mos

    irrep                 56a         57a         58a         59a         60a   
 eigenvalues H         -0.25764    -0.25111    -0.22027    -0.20710    -0.18930
            eV          -7.0108     -6.8331     -5.9939     -5.6355     -5.1512
 occupation              2.0000      2.0000      2.0000      2.0000      2.0000 

    irrep                 61a         62a         63a         64a         65a   
 eigenvalues H         -0.07673    -0.06297    -0.05234    -0.01264    -0.01222
            eV          -2.0880     -1.7135     -1.4243     -0.3439     -0.3324
 
 
 ! grave: sending quit signal to master process
 
 
 
 
 ==============================================================================
                           electrostatic moments
 ==============================================================================

 reference point for electrostatic moments:    0.00000   0.00000   0.00000

 
              nuc           elec       ->  total
 ------------------------------------------------------------------------------
                          charge      
 ------------------------------------------------------------------------------
         120.000000    -120.000000      -0.000000
 
 ------------------------------------------------------------------------------
                       dipole moment  
 ------------------------------------------------------------------------------
   x       2.182752      -2.182839      -0.000087
   y      -0.018727       0.019005       0.000278
   z      -2.330479       2.330497       0.000018
 
   | dipole moment | =     0.0003 a.u. =     0.0007 debye 
 
 ------------------------------------------------------------------------------
                     quadrupole moment
 ------------------------------------------------------------------------------
  xx     978.236940   -1047.700178     -69.463237
  yy     266.068224    -345.363179     -79.294955
  zz    3308.960616   -3377.376452     -68.415836
  xy    -102.394683      97.888353      -4.506330
  xz    -876.684553     875.163167      -1.521387
  yz    -710.931234     707.115468      -3.815765
 
     1/3  trace=     -72.391343
     anisotropy=      14.818993
 
 ==============================================================================
 

    ridft profiling
  --------------------------------------------------------------------
             module   cpu total (s)       %  wall total (s)       %

               RIDFT           303.2  100.00           303.0  100.00
         Ridft_b_scf            11.5    3.79            11.5    3.79
        b_scf_prelim             0.0    0.00             0.0    0.00
        b_scf_molinp             0.0    0.00             0.0    0.00
         b_scf_init0             0.0    0.00             0.0    0.00
        b_scf_auxbas             0.0    0.00             0.0    0.00
      b_scf_symmetry             0.0    0.00             0.0    0.00
         b_scf_cosmo             0.0    0.00             0.0    0.00
        b_scf_params             0.3    0.11             0.3    0.11
          b_scf_ri-j            10.0    3.29            10.0    3.29
    b_scf_ri-j_auxpq            10.0    3.29            10.0    3.29
     ri-j_auxpq_chol             0.2    0.06             0.2    0.06
         b_scf_1elec             0.2    0.07             0.2    0.07
       b_scf_moinput             1.0    0.31             1.0    0.31
     moinput_orthmos             0.9    0.30             0.9    0.30
    b_scf_dft-dstmax             0.0    0.00             0.0    0.00
           Ridft_scf           291.6   96.18           291.4   96.17
          Scf_b_loop             0.0    0.00             0.0    0.00
                noga             0.0    0.00             0.0    0.00
            Scf_loop           291.2   96.05           291.0   96.05
     scf_loop_mkdmat             0.4    0.14             0.4    0.14
       scf_loop_ri-j             9.1    3.01             9.1    3.01
      parlp1.bc.dens             0.9    0.29             0.9    0.29
        parlp1.gs.gp             0.0    0.00             0.0    0.00
        parlp2.bc.gq             0.0    0.00             0.0    0.00
        scf_loop_dft           266.4   87.88           266.2   87.87
      pardft.bc.dens             0.0    0.00             0.0    0.00
        dft_grid_con             0.5    0.16             0.5    0.16
          dft_xcmrhf           260.5   85.92           260.3   85.92
          dft_getval             7.4    2.45             7.4    2.44
          funct2 dst             0.1    0.04             0.1    0.04
      funct2 f2loop1             2.0    0.65             2.0    0.65
      funct2 f2loop2             3.4    1.11             3.4    1.12
          funct2 s+c             1.7    0.56             1.7    0.55
        funct2 cmf_2             1.4    0.46             1.4    0.46
          dft_mkdens           131.3   43.31           131.2   43.31
        dft_mgga-fun             0.6    0.18             0.5    0.18
          dft_mkfock           120.9   39.89           120.9   39.90
     pardft.red.fock            26.9    8.86            26.8    8.86
     scf_loop_energy             0.0    0.00             0.0    0.00
     scf_loop_mkfock             0.0    0.00             0.0    0.00
       scf_loop_diis             4.7    1.56             4.7    1.56
       scf_loop_diag             4.6    1.51             4.6    1.52
         diag_tritrn             1.0    0.33             1.0    0.33
          diag_rdiag             3.6    1.18             3.6    1.18
     scf_loop_modump             5.0    1.64             5.0    1.64
      scf_loop_ortho             0.8    0.27             0.8    0.26
          Scf_a_loop             0.4    0.12             0.4    0.12
         Ridft_a_scf             0.1    0.03             0.1    0.04
         a_scf_fanal             0.1    0.03             0.1    0.03
 


    ------------------------------------------------------------------------
         total  cpu-time :  5 minutes and  4 seconds
         total wall-time :  5 minutes and  3 seconds
    ------------------------------------------------------------------------


   ****  ridft : all done  ****


    2017-11-07 20:54:10.763 

