Using Slurm to start processes with PMI2
STARTING ridft ON 8 PROCESSORS!
RUNNING PROGRAM /beegfs/modfac/apps/TURBOMOLE/7.0_intel_GA/bin/em64t-unknown-linux-gnu_mpi/ridft_mpi.
PLEASE WAIT UNTIL ridft HAS FINISHED.
Look for the output in slave1.output.
  this is node-proc. number 1 running on node c-5-35.local
  the total number of node-proc. spawned is            8
  parallel platform: MPP, or cluster with fast interconnect

 ridft (c-5-35.local) : TURBOMOLE V7.0.2( ) 15 Jan 2016 at 17:47:42
 Copyright (C) 2016 TURBOMOLE GmbH, Karlsruhe


    2017-11-07 04:33:59.916 



                                  r i d f t

                        DFT program with RI approximation 
                                for coulomb part 




                                                 
                                 References:     
                                                 
          TURBOMOLE:                             
              R. Ahlrichs, M. Baer, M. Haeser, H. Horn, and
              C. Koelmel
              Electronic structure calculations on workstation
              computers: the program system TURBOMOLE
              Chem. Phys. Lett. 162: 165 (1989)
          Density Functional:                              
              O. Treutler and R. Ahlrichs                      
              Efficient Molecular Numerical Integration Schemes
              J. Chem. Phys. 102: 346 (1995)                   
          Parallel Version:                                
              Performance of parallel TURBOMOLE for Density    
              Functional Calculations                          
              M. v. Arnim and R. Ahlrichs                      
              J. Comp. Chem. 19: 1746 (1998)                   
          RI-J Method:                                     
              Auxiliary Basis Sets to approximate Coulomb      
              Potentials                                       
              Chem. Phys. Lett. 240: 283 (1995)                
              K. Eichkorn, O. Treutler, H. Oehm, M. Haeser     
              and R. Ahlrichs                                  
              Chem. Phys. Lett. 242: 652 (1995)                
                                                           
              Auxiliary Basis Sets for Main Row Atoms and their
              Use to approximate Coulomb Potentials            
              K. Eichkorn, F. Weigend, O. Treutler and         
              R. Ahlrichs                                      
              Theo. Chem. Acc. 97: 119 (1997)                   
                                                           
              Accurate Coulomb-fitting basis sets for H to Rn 
              F. Weigend                                        
              Phys. Chem. Chem. Phys. 8: 1057 (2006)            
                                                           
          Multipole accelerated RI-J (MARI-J):             
              Fast evaluation of the Coulomb potential for     
              electron densities using multipole accelerated   
              resolution of identity approximation             
              M. Sierka, A. Hogekamp and R. Ahlrichs           
              J. Chem. Phys. 118: 9136 (2003)                  
          RI-JK Method:                                     
              A fully direct RI-HF algorithm: Implementation,
              optimised auxiliary basis sets, demonstration of
              accuracy and efficiency                         
              F. Weigend                                      
              Phys. Chem. Chem. Phys. 4: 4285 (2002)           
          Two-component HF and DFT with spin-orbit coupling:  
              Self-consistent treatment of spin-orbit         
              interactions with efficient Hartree-Fock and    
              density functional methods                      
              M. K. Armbruster, F. Weigend, C. van Wüllen and 
              W. Klopper                                      
              Phys. Chem. Chem. Phys. 10: 1748 (2008)         
          Relativistic all-electron 2c calculations           
              An efficient implementation of two-component    
              relativistic exact-decoupling methods for large 
              molecules                                       
              D. Peng, N. Middendorf, F. Weigend, M. Reiher   
              J. Chem. Phys. 138, 184105 (2013)               
                                         


 


              +--------------------------------------------------+
              |      general information about current run       |
              +--------------------------------------------------+

 

 SCF run will be profiled !


 DENSITY CONVERGENCE CHECK SWITCHED ON !
 SCF CONVERGENCE IF RMS(delta[D]) <     0.1000000000E-06

 PBE functional
 exchange:    LDA + PBE
 correlation: LDA (PW) + PBE
 A DFT calculation using the RI-J approximation will be carried out.
 Allocatable memory for RI due to $ricore (MB):       14000


              +--------------------------------------------------+
              | Atomic coordinate, charge and isotop information |
              +--------------------------------------------------+

                    atomic coordinates            atom    charge  isotop
         -1.54034638   -0.35658509    9.55484877    c      6.000     0
         -2.13653041   -2.70703174    8.27018611    n      7.000     0
         -0.01213374   -4.11582446    7.70341964    c      6.000     0
          2.07617955   -2.69586629    8.37160771    n      7.000     0
          1.40743458   -0.29642717    9.50856012    c      6.000     0
         -2.24382472    1.92347097    8.19817677    n      7.000     0
         -0.18242169    3.23173971    7.30258321    c      6.000     0
          1.96218390    1.92420097    7.97465959    n      7.000     0
          4.62936718   -3.68072088    8.21785940    c      6.000     0
          6.07248186   -2.77500802    6.07378105    n      7.000     0
          7.47391882   -0.42526000    6.03720785    c      6.000     0
          9.00020394   -0.57478817    3.51916592    c      6.000     0
          8.01925996   -2.85569574    2.33360542    n      7.000     0
          6.44782323   -4.20964199    3.92427748    c      6.000     0
          5.95796276    1.84948404    5.70939782    n      7.000     0
          6.64278023    3.20343218    3.58154125    c      6.000     0
          8.37817413    1.77683087    2.25879550    n      7.000     0
         -4.66860091   -3.71105514    8.00027256    c      6.000     0
         -6.07300739   -2.65437395    5.89567852    n      7.000     0
         -6.46388288   -3.98796389    3.68309343    c      6.000     0
         -8.15682031   -2.63181497    2.22639124    n      7.000     0
         -9.11372660   -0.40668172    3.51274520    c      6.000     0
         -7.65377407   -0.42083899    6.07792333    c      6.000     0
         -6.31179980    1.97713730    6.04904075    n      7.000     0
         -6.81797958    3.39284378    3.92495305    c      6.000     0
         -8.39541845    1.99874065    2.39481591    n      7.000     0
         -9.25160876   -3.66223652   -0.06623055    c      6.000     0
         -8.19324119   -2.63126865   -2.37077690    n      7.000     0
         -9.00391952   -0.27155837   -3.51451039    c      6.000     0
         -7.47558462   -0.18885337   -6.03441900    c      6.000     0
         -6.16671494   -2.59348792   -6.06555639    n      7.000     0
         -6.64114921   -4.03105777   -3.93674003    c      6.000     0
         -8.18974330    1.99738988   -2.20247146    n      7.000     0
         -6.36575621    3.31046665   -3.51105295    c      6.000     0
         -5.86211074    2.02157006   -5.71245880    n      7.000     0
         -9.40034344    2.98759031    0.05122859    c      6.000     0
         -4.79268052    2.93480421    8.11136993    c      6.000     0
         -4.35507286    3.10123995   -7.73455647    c      6.000     0
         -1.88832849    1.95273508   -8.01520404    n      7.000     0
         -1.41357127   -0.30583706   -9.51612715    c      6.000     0
          1.53008064   -0.46851092   -9.55868057    c      6.000     0
          2.31215211    1.86417231   -8.35343667    n      7.000     0
          0.29940556    3.28873896   -7.50781805    c      6.000     0
         -2.16540694   -2.66700980   -8.35553899    n      7.000     0
         -0.12818182   -4.12288013   -7.61385777    c      6.000     0
          2.04549248   -2.77054789   -8.14238620    n      7.000     0
          4.90999755    2.70842674   -8.13591275    c      6.000     0
          6.26394438    1.65369726   -5.99988595    n      7.000     0
          6.83796834    3.08175801   -3.88647672    c      6.000     0
          8.36824778    1.62818369   -2.34407696    n      7.000     0
          9.08216401   -0.75585965   -3.50243051    c      6.000     0
          7.62078758   -0.73266591   -6.06575614    c      6.000     0
          8.13308610   -3.00800332   -2.25661023    n      7.000     0
          6.42632628   -4.33376847   -3.71925145    c      6.000     0
          6.06281138   -2.98498872   -5.92320238    n      7.000     0
          4.52841366   -3.92657841   -7.98091968    c      6.000     0
         -4.74964390   -3.56066147   -8.20309554    c      6.000     0
          9.12140625   -3.99424553    0.09430811    c      6.000     0
          9.52352391    2.64184904   -0.07591672    c      6.000     0
          4.47621640    2.98914140    7.70663142    c      6.000     0
          5.59374620   -6.32584406    3.52666946    o      8.000     0
          5.87239539    5.31231685    3.00277539    o      8.000     0
         -0.24735173    5.25090188    6.13802153    o      8.000     0
          6.15859385    5.25612792   -3.48009640    o      8.000     0
          5.46231461   -6.37358100   -3.18805699    o      8.000     0
         -5.88064272   -6.18283128   -3.54127685    o      8.000     0
         -5.38620684    5.31892352   -2.84461136    o      8.000     0
          0.01415348   -6.26171412    6.83212323    o      8.000     0
         -0.22758463   -6.25284053   -6.70900720    o      8.000     0
         -6.04120066    5.54104420    3.49460912    o      8.000     0
         -5.52587064   -6.03427349    3.13827858    o      8.000     0
          0.41765499    5.38354100   -6.52090499    o      8.000     0
         -1.25632300    5.85944264    0.75884164    n      7.000     0
          0.47580961    3.85683750   -0.24618218    c      6.000     0
         -0.53938226    1.21547997    0.31260265    c      6.000     0
          1.23030677   -0.83033357   -0.71727012    c      6.000     0
          0.49290256   -2.71844436   -0.31321115    h      1.000     0
          0.65545208    4.19508052   -2.27218100    h      1.000     0
          4.47790997   -5.72810630    8.03216433    h      1.000     0
        -11.16875936   -0.51648577    3.71614474    h      1.000     0
         -8.87879717   -0.53585811    7.74010886    h      1.000     0
         -4.64931758    4.97549603    7.85891783    h      1.000     0
         -5.72514850    2.49851671    9.90393221    h      1.000     0
         -4.47882063   -5.73652767    7.66533882    h      1.000     0
         -5.72857192   -3.36480308    9.74308061    h      1.000     0
         11.13780564   -0.86310501   -3.71144953    h      1.000     0
          8.84798272   -0.81269675   -7.72967606    h      1.000     0
          5.91091368    2.22138894   -9.87879904    h      1.000     0
          4.86756224    4.75346927   -7.87814409    h      1.000     0
          5.53476275   -3.61699213   -9.76266932    h      1.000     0
          4.23902705   -5.94257264   -7.65978208    h      1.000     0
          8.65696751   -0.26329233    7.72682805    h      1.000     0
         11.04617755   -0.72622931    3.78610165    h      1.000     0
          9.29879844    4.69005705   -0.14336880    h      1.000     0
         11.52863351    2.13637186   -0.05482681    h      1.000     0
          8.67369385   -6.00606838    0.15368141    h      1.000     0
         11.17138438   -3.71003733    0.13163039    h      1.000     0
         -8.64787207    0.02351953   -7.72470778    h      1.000     0
        -11.05575033   -0.25042670   -3.77045320    h      1.000     0
        -11.42039812    2.56182311   -0.05674885    h      1.000     0
         -9.10091425    5.02682685    0.07860108    h      1.000     0
        -11.29168359   -3.31695351   -0.03908766    h      1.000     0
         -8.86632403   -5.68765520   -0.08143057    h      1.000     0
          2.33539461   -0.59902032  -11.45976698    h      1.000     0
         -2.27078355   -0.11670457  -11.38976169    h      1.000     0
         -4.05151954    5.09023340   -7.28450477    h      1.000     0
         -5.40537017    2.91571817   -9.50906467    h      1.000     0
         -4.67642608   -5.61100110   -8.00312869    h      1.000     0
         -5.73504613   -3.04089665   -9.94516206    h      1.000     0
          5.63978598   -3.18687346    9.95310969    h      1.000     0
          4.25517268    4.98423960    7.23595752    h      1.000     0
          5.47446045    2.77970154    9.50824737    h      1.000     0
          2.27616946   -0.10882612   11.37592455    h      1.000     0
         -2.35539377   -0.33574708   11.45517154    h      1.000     0
         -1.44115825    5.69734080    2.69619945    h      1.000     0
         -0.56008440    7.69630293    0.37484759    h      1.000     0
         -3.02049951    5.71837439   -0.06652762    h      1.000     0
          3.11006781   -0.68524720    0.13447782    h      1.000     0
          1.45079113   -0.65897547   -2.76737032    h      1.000     0
         -0.76924647    0.97327359    2.35913297    h      1.000     0
         -2.42164889    0.99739632   -0.52915488    h      1.000     0
          2.31411554    4.17236677    0.63273795    h      1.000     0
          0.40672065   11.37480602   -0.15064254    cl    17.000     0
 
       center of nuclear mass  :    0.01021963    0.11578172   -0.00470320
       center of nuclear charge:    0.00902227    0.10563136   -0.00412578

              +--------------------------------------------------+
              |               basis set information              |
              +--------------------------------------------------+

              we will work with the 1s 3p 5d 7f 9g ... basis set
              ...i.e. with spherical basis functions...

   type   atoms  prim   cont   basis
   ---------------------------------------------------------------------------
    c       39     50     30   cc-pVTZ   [4s3p2d1f|18s5p2d1f]
    n       25     50     30   cc-pVTZ   [4s3p2d1f|18s5p2d1f]
    o       12     50     30   cc-pVTZ   [4s3p2d1f|18s5p2d1f]
    h       46     16     14   cc-pVTZ   [3s2p1d|5s2p1d]
    cl       1    106     34   cc-pVTZ   [5s4p2d1f|41s16p2d1f]
   ---------------------------------------------------------------------------
   total:  123   4642   2958
   ---------------------------------------------------------------------------

   total number of primitive shells          :  146
   total number of contracted shells         : 1048
   total number of cartesian basis functions : 3389
   total number of SCF-basis functions       : 2958


 integral neglect threshold       :  0.98E-14
 integral storage threshold THIZE :  0.10E-04
 integral storage threshold THIME :         5

 RI-J AUXILIARY BASIS SET information:

              we will work with the 1s 3p 5d 7f 9g ... basis set
              ...i.e. with spherical basis functions...

   type   atoms  prim   cont   basis
   ---------------------------------------------------------------------------
    c       39     70     49   cc-pVTZ   [6s4p3d1f1g|12s5p4d2f1g]
    n       25     70     49   cc-pVTZ   [6s4p3d1f1g|12s5p4d2f1g]
    o       12     70     49   cc-pVTZ   [6s4p3d1f1g|12s5p4d2f1g]
    h       46     16     11   cc-pVTZ   [3s1p1d|5s2p1d]
    cl       1     77     51   cc-pVTZ   [8s4p3d1f1g|14s5p5d2f1g]
   ---------------------------------------------------------------------------
   total:  123   6133   4281
   ---------------------------------------------------------------------------

   total number of primitive shells          :  107
   total number of contracted shells         : 1387
   total number of cartesian basis functions : 5251
   total number of SCF-basis functions       : 4281


 symmetry group of the molecule :   c1 

 the group has the following generators :
   c1(z)

    1 symmetry operations found

 there are 1 real representations :   a   

 maximum number of shells which are related by symmetry :  1


    mo occupation :
   irrep   mo's   occupied
    a     2958      284
 
 number of basis functions   :         2958
 number of occupied orbitals :          284
 
  
           ------------------
           density functional
           ------------------
 PBE functional
 exchange:    LDA + PBE
 correlation: LDA (PW) + PBE
 grinp -> nfun, dfgga, dfhybrid 
           6 T F
 iterations will be done with small grid
  
 spherical integration : Lebedev's spherical grid
 spherical gridsize    :           5
    i.e. gridpoints    :         590
 value for diffuse not defined
 radial integration    : Chebyshev 2nd kind (scaling 3)
 radial gridsize       :           8
 integration cells     :         123
 partition function    : becke
 partition sharpness   :           3
  

 <rddim> : input of entry tasksize
           from data group '$pardft' failed !

               Default values taken

 <rddim> : input of entry memdiv
           from data group '$pardft' failed !

               Default values taken
  RIDFT: memory allocation for DFT gridpoints
  MEMORY is divided by 1 as DEFAULT
 Each node can hold at most  the            1 -th part
 of the gridpoints    

 biggest AO integral is expected to be    10.299856942
  
           ------------------------
               RI-J - INFORMATION
           ------------------------
 
 
 **************************************************
 *      MEMORY ALLOCATION FOR PARALLEL RI-DFT     *
 **************************************************
 
 
MEMORY FOR (MU NU/ ALPHA), SEQUENTIAL RUN              13853 MByte
 
            DIFFERENCE IN MEMORY NEED:       DIAG./SLAVE  
 
      TOTAL DIFFERENCE :                    496 MByte
 
      difference in xcore:                  148 MByte
      difference in fatmat:                 128 MByte
      getcor calls skipped by slaves:       222 MByte
 
 
           Integral memory available for diagonal.     13853 MByte
 
           Integral memory available for slave             0 MByte
 
         MEMORY FOR (MU NU/ ALPHA) ON DIAGONALIZER     13853 MByte
 
         MEMORY FOR (MU NU/ ALPHA) ON ONE SLAVE            0 MByte
 
         TOTAL MEMORY FOR (MU NU/ ALPHA),ALL NODES     13853 MByte
 
 Contributions to RI integral batches: 
  neglected integral batches:      331449
  direct contribution:             128873
  memory contribution:       89354
 Memory core needed for (P|Q) and Cholesky    140 MByte
 Memory core minimum needed except of (P|Q)    10 MByte
 Total minimum memory core needed (sum)       150 MByte
     number of direct tasks:         160
  
 ****************************************
 Memory allocated for RI-J 14003 MByte
 ****************************************
                                            

          ------------------------
          nuclear repulsion energy  :   16178.1335675    
          ------------------------

 
          -----------------
          -S integrals
          -----------------

 1e-integrals will be neglected if expon. factor < 0.986120E-15
 
          -----------------
          -T+V integrals
          -----------------

 1e-integrals will be neglected if expon. factor < 0.986120E-15
 Difference densities >>NOT<< switched on in parallel ridft!

 automatic virtual orbital shift switched on 
      shift if e(lumo)-e(homo) < 0.10000000    


 DIIS switched on: error vector is FDS-SDF
 Max. Iterations for DIIS is     :   4
 DIIS matrix (see manual) 
    Scaling factor of diagonals  :  1.200
    threshold for scaling factor :  0.000

 scf convergence criterion : increment of total energy < .1000000D-08
                  and increment of one-electron energy < .1000000D-05


 <geterg> : there is no data group $energy 

  MOs are in ASCII format !


 reading orbital data $scfmo  from file mos . 

 orbital characterization : expanded
 
 mo provided and orthogonalized by Cholesky decomposition

 DSCF restart information will be dumped onto file mos


 Starting SCF iterations


 ITERATION  ENERGY          1e-ENERGY        2e-ENERGY     RMS[dD(SAO)]   TOL
   1  -4227.1575394296    -37953.887189     17548.596082    0.000D+00 0.984D-14
                            Exc = -527.135414258     Coul =  18075.7314966    
                              N = 568.00097612    
                            current damping = 0.700
 
          max. resid. norm for Fia-block=  4.260D-01 for orbital    203a         
          max. resid. fock norm         =  4.058D+00 for orbital   2814a         

 ITERATION  ENERGY          1e-ENERGY        2e-ENERGY     RMS[dD(SAO)]   TOL
   2  -4240.2203196612    -38029.682828     17611.328940    0.175D-02 0.984D-14
                            Exc = -527.117618889     Coul =  18138.4465592    
                              N = 568.00083499    
                            current damping = 0.650
 
          Norm of current diis error:  6.9534    
          max. resid. norm for Fia-block=  1.553D-01 for orbital     13a         
          max. resid. fock norm         =  4.025D-01 for orbital   2952a         

 ITERATION  ENERGY          1e-ENERGY        2e-ENERGY     RMS[dD(SAO)]   TOL
   3  -4242.0545530318    -38052.015690     17631.827570    0.923D-03 0.984D-14
                            Exc = -529.363407230     Coul =  18161.1909768    
                              N = 568.00076980    
                            current damping = 0.550
 
          Norm of current diis error:  3.3701    
          max. resid. norm for Fia-block=  6.323D-02 for orbital     13a         
          max. resid. fock norm         =  9.690D-02 for orbital   1296a         

 ITERATION  ENERGY          1e-ENERGY        2e-ENERGY     RMS[dD(SAO)]   TOL
   4  -4242.5738733455    -38062.293484     17641.586043    0.705D-03 0.984D-14
                            Exc = -528.895648376     Coul =  18170.4816915    
                              N = 568.00077042    
                            current damping = 0.450
 
          Norm of current diis error:  1.6147    
          max. resid. norm for Fia-block=  3.372D-02 for orbital     97a         
          max. resid. fock norm         =  7.066D-02 for orbital   2913a         

 ITERATION  ENERGY          1e-ENERGY        2e-ENERGY     RMS[dD(SAO)]   TOL
   5  -4242.6484907931    -38059.391371     17638.609313    0.375D-03 0.984D-14
                            Exc = -529.555254958     Coul =  18168.1645677    
                              N = 568.00077371    
                            current damping = 0.500
 
          Norm of current diis error:  1.1621    
          max. resid. norm for Fia-block=  1.304D-02 for orbital    251a         
          max. resid. fock norm         =  1.562D-02 for orbital    252a         
          irrep a   : virtual orbitals shifted by    0.02414
          mo-orthogonalization: Cholesky decomposition

 ITERATION  ENERGY          1e-ENERGY        2e-ENERGY     RMS[dD(SAO)]   TOL
   6  -4242.7108418482    -38065.844195     17644.999785    0.178D-03 0.984D-14
                            Exc = -529.605506558     Coul =  18174.6052920    
                              N = 568.00078824    
                            current damping = 0.550
 
          Norm of current diis error: 0.21989    
          max. resid. norm for Fia-block=  3.553D-03 for orbital    247a         
          max. resid. fock norm         =  6.595D-03 for orbital   1340a         
          irrep a   : virtual orbitals shifted by    0.02644

 ITERATION  ENERGY          1e-ENERGY        2e-ENERGY     RMS[dD(SAO)]   TOL
   7  -4242.7130692778    -38064.684200     17643.837563    0.640D-04 0.984D-14
                            Exc = -529.491579267     Coul =  18173.3291424    
                              N = 568.00078803    
                            current damping = 0.600
 
          Norm of current diis error: 0.93429E-01
          max. resid. norm for Fia-block=  1.477D-03 for orbital     89a         
          max. resid. fock norm         =  2.693D-03 for orbital   2917a         
          irrep a   : virtual orbitals shifted by    0.02573

 ITERATION  ENERGY          1e-ENERGY        2e-ENERGY     RMS[dD(SAO)]   TOL
   8  -4242.7134175934    -38064.996380     17644.149394    0.192D-04 0.984D-14
                            Exc = -529.510414918     Coul =  18173.6598093    
                              N = 568.00079067    
                            current damping = 0.650
 
          Norm of current diis error: 0.32836E-01
          max. resid. norm for Fia-block=  1.180D-03 for orbital    270a         
          max. resid. fock norm         =  2.116D-03 for orbital   2813a         
          irrep a   : virtual orbitals shifted by    0.02449

 ITERATION  ENERGY          1e-ENERGY        2e-ENERGY     RMS[dD(SAO)]   TOL
   9  -4242.7134291087    -38065.151363     17644.304366    0.850D-05 0.984D-14
                            Exc = -529.531883467     Coul =  18173.8362495    
                              N = 568.00079144    
                            current damping = 0.500
 
          Norm of current diis error: 0.32036E-01
          max. resid. norm for Fia-block=  5.147D-04 for orbital    267a         
          max. resid. fock norm         =  1.058D-03 for orbital   2813a         
          irrep a   : virtual orbitals shifted by    0.03154

 ITERATION  ENERGY          1e-ENERGY        2e-ENERGY     RMS[dD(SAO)]   TOL
  10  -4242.7134747081    -38065.181685     17644.334643    0.473D-05 0.984D-14
                            Exc = -529.532413927     Coul =  18173.8670565    
                              N = 568.00079176    
                            current damping = 0.350
 
          Norm of current diis error: 0.69488E-02
          max. resid. norm for Fia-block=  2.167D-04 for orbital    256a         
          max. resid. fock norm         =  2.582D-04 for orbital   2937a         
          irrep a   : virtual orbitals shifted by    0.03840
          mo-orthogonalization: Cholesky decomposition

 ITERATION  ENERGY          1e-ENERGY        2e-ENERGY     RMS[dD(SAO)]   TOL
  11  -4242.7134751380    -38065.158639     17644.311596    0.262D-05 0.984D-14
                            Exc = -529.525482270     Coul =  18173.8370786    
                              N = 568.00079183    
                            current damping = 0.400
 
          Norm of current diis error: 0.70248E-02
          max. resid. norm for Fia-block=  1.286D-04 for orbital    256a         
          max. resid. fock norm         =  2.129D-04 for orbital   2900a         
          irrep a   : virtual orbitals shifted by    0.03604

 ITERATION  ENERGY          1e-ENERGY        2e-ENERGY     RMS[dD(SAO)]   TOL
  12  -4242.7134771035    -38065.131921     17644.284877    0.906D-06 0.984D-14
                            Exc = -529.526680972     Coul =  18173.8115577    
                              N = 568.00079196    
                            current damping = 0.250
 
          Norm of current diis error: 0.22351E-02
          max. resid. norm for Fia-block=  2.672D-05 for orbital    249a         
          max. resid. fock norm         =  6.925D-05 for orbital   2956a         
          irrep a   : virtual orbitals shifted by    0.04293

 ITERATION  ENERGY          1e-ENERGY        2e-ENERGY     RMS[dD(SAO)]   TOL
  13  -4242.7134773083    -38065.154529     17644.307484    0.318D-06 0.984D-14
                            Exc = -529.527622074     Coul =  18173.8351063    
                              N = 568.00079201    
                            current damping = 0.300
 
          Norm of current diis error: 0.70144E-03
          max. resid. norm for Fia-block=  1.265D-05 for orbital    270a         
          max. resid. fock norm         =  2.141D-05 for orbital   2837a         
          irrep a   : virtual orbitals shifted by    0.04065

 ITERATION  ENERGY          1e-ENERGY        2e-ENERGY     RMS[dD(SAO)]   TOL
  14  -4242.7134773192    -38065.150573     17644.303528    0.137D-06 0.984D-14
                            Exc = -529.527736057     Coul =  18173.8312640    
                              N = 568.00079198    
                            current damping = 0.350
 
          Norm of current diis error: 0.45089E-03
          max. resid. norm for Fia-block=  7.267D-06 for orbital    270a         
          max. resid. fock norm         =  1.678D-05 for orbital   2837a         
          irrep a   : virtual orbitals shifted by    0.03837

 DENSITY CONVERGED !


 ITERATION  ENERGY          1e-ENERGY        2e-ENERGY     RMS[dD(SAO)]   TOL
  15  -4242.7134773270    -38065.151055     17644.304010    0.568D-07 0.984D-14
                            Exc = -529.527697176     Coul =  18173.8317073    
                              N = 568.00079199    
                            current damping = 0.400
 
          Norm of current diis error: 0.15065E-03
          max. resid. norm for Fia-block=  2.712D-06 for orbital    270a         
          max. resid. fock norm         =  5.008D-06 for orbital   2837a         
          irrep a   : virtual orbitals shifted by    0.03608
          mo-orthogonalization: Cholesky decomposition

 DENSITY CONVERGED !


 ITERATION  ENERGY          1e-ENERGY        2e-ENERGY     RMS[dD(SAO)]   TOL
  16  -4242.7134773277    -38065.151255     17644.304210    0.232D-07 0.984D-14
                            Exc = -529.527695112     Coul =  18173.8319049    
                              N = 568.00079200    
                            current damping = 0.250
 
          Norm of current diis error: 0.80741E-04
          max. resid. norm for Fia-block=  1.545D-06 for orbital    252a         
          max. resid. fock norm         =  2.746D-06 for orbital   2813a         
          irrep a   : virtual orbitals shifted by    0.04293

 DENSITY CONVERGED !


 ITERATION  ENERGY          1e-ENERGY        2e-ENERGY     RMS[dD(SAO)]   TOL
  17  -4242.7134773279    -38065.151159     17644.304114    0.136D-07 0.984D-14
                            Exc = -529.527658870     Coul =  18173.8317727    
                              N = 568.00079200    
                            current damping = 0.300
 
          Norm of current diis error: 0.41359E-04
          max. resid. norm for Fia-block=  6.184D-07 for orbital    256a         
          max. resid. fock norm         =  1.065D-06 for orbital   2813a         
          irrep a   : virtual orbitals shifted by    0.04065

 DENSITY CONVERGED !


 ITERATION  ENERGY          1e-ENERGY        2e-ENERGY     RMS[dD(SAO)]   TOL
  18  -4242.7134773279    -38065.151201     17644.304156    0.509D-08 0.984D-14
                            Exc = -529.527670714     Coul =  18173.8318265    
                              N = 568.00079200    
                            current damping = 0.350
 
          Norm of current diis error: 0.13081E-04
          max. resid. norm for Fia-block=  3.202D-07 for orbital    270a         
          max. resid. fock norm         =  5.046D-07 for orbital   2912a         
          irrep a   : virtual orbitals shifted by    0.03836

 ENERGY & DENSITY CONVERGED !


 ITERATION  ENERGY          1e-ENERGY        2e-ENERGY     RMS[dD(SAO)]   TOL
  19  -4242.7135325826    -38065.151193     17644.304093    0.234D-08 0.984D-14
                            Exc = -529.527731996     Coul =  18173.8318250    
                              N = 568.00006860    
                            current damping = 0.400
 
          Norm of current diis error: 0.90943E-05
          max. resid. norm for Fia-block=  1.370D-07 for orbital    270a         
          max. resid. fock norm         =  2.394D-07 for orbital   2912a         

 End of SCF iterations

   convergence criteria satisfied after   19 iterations


                  ------------------------------------------ 
                 |  total energy      =  -4242.71353258263  |
                  ------------------------------------------ 
                 :  kinetic energy    =   4217.26083117256  :
                 :  potential energy  =  -8459.97436375518  :
                 :  virial theorem    =      1.99400084375  :
                 :  wavefunction norm =      1.00000000000  :
                  .......................................... 


 <geterg> : there is no data group $energy 


 <skperg> : $end is missing 


 orbitals $scfmo  will be written to file mos

    irrep                280a        281a        282a        283a        284a   
 eigenvalues H         -0.21806    -0.20844    -0.10043    -0.08573    -0.08559
            eV          -5.9337     -5.6721     -2.7330     -2.3327     -2.3291
 occupation              2.0000      2.0000      2.0000      2.0000      2.0000 

    irrep                285a        286a        287a        288a        289a   
 eigenvalues H         -0.03994    -0.03342    -0.03008    -0.02158    -0.02058
            eV          -1.0867     -0.9094     -0.8187     -0.5872     -0.5601
 
 
 ! grave: sending quit signal to master process
 
 
 
 
 ==============================================================================
                           electrostatic moments
 ==============================================================================

 reference point for electrostatic moments:    0.00000   0.00000   0.00000

 
              nuc           elec       ->  total
 ------------------------------------------------------------------------------
                          charge      
 ------------------------------------------------------------------------------
         568.000000    -568.000000      -0.000000
 
 ------------------------------------------------------------------------------
                       dipole moment  
 ------------------------------------------------------------------------------
   x       5.124651      -6.240286      -1.115635
   y      59.998614     -64.887477      -4.888864
   z      -2.343442       2.944088       0.600646
 
   | dipole moment | =     5.0504 a.u. =    12.8368 debye 
 
 ------------------------------------------------------------------------------
                     quadrupole moment
 ------------------------------------------------------------------------------
  xx   18967.116021  -19197.114646    -229.998625
  yy    9165.584275   -9653.846295    -488.262019
  zz   18685.604786  -18915.453731    -229.848945
  xy    -222.708711     213.764288      -8.944423
  xz    -292.764599     292.767437       0.002838
  yz      56.739788     -53.454327       3.285461
 
     1/3  trace=    -316.036530
     anisotropy=     258.864928
 
 ==============================================================================
 

    ridft profiling
  --------------------------------------------------------------------
             module   cpu total (s)       %  wall total (s)       %

               RIDFT          3475.3  100.00          3480.6  100.00
         Ridft_b_scf           218.9    6.30           218.9    6.29
        b_scf_prelim             0.0    0.00             0.0    0.00
        b_scf_molinp             0.0    0.00             0.0    0.00
         b_scf_init0             0.0    0.00             0.0    0.00
        b_scf_auxbas             0.0    0.00             0.0    0.00
      b_scf_symmetry             0.0    0.00             0.0    0.00
         b_scf_cosmo             0.0    0.00             0.0    0.00
        b_scf_params             4.0    0.11             4.1    0.12
          b_scf_ri-j           150.3    4.32           150.2    4.32
    b_scf_ri-j_auxpq           150.2    4.32           150.2    4.31
     ri-j_auxpq_chol            10.8    0.31            10.9    0.31
         b_scf_1elec             4.4    0.13             4.4    0.13
       b_scf_moinput            60.2    1.73            60.1    1.73
     moinput_orthmos            59.0    1.70            59.0    1.69
    b_scf_dft-dstmax             0.0    0.00             0.0    0.00
           Ridft_scf          3254.5   93.65          3259.7   93.66
          Scf_b_loop             0.0    0.00             0.0    0.00
                noga             0.0    0.00             0.0    0.00
            Scf_loop          3248.6   93.48          3253.4   93.47
     scf_loop_mkdmat            23.0    0.66            23.0    0.66
       scf_loop_ri-j           809.4   23.29           808.8   23.24
      parlp1.bc.dens             1.4    0.04             1.4    0.04
        parlp1.gs.gp            11.7    0.34            11.7    0.34
        parlp2.bc.gq             0.0    0.00             0.0    0.00
        scf_loop_dft          1692.0   48.69          1690.9   48.58
      pardft.bc.dens             0.0    0.00             0.0    0.00
        dft_grid_con            10.2    0.29            10.2    0.29
           dft_xcrhf          1643.5   47.29          1642.4   47.19
          dft_getval            82.1    2.36            82.0    2.35
          funct2 dst             1.8    0.05             1.8    0.05
      funct2 f2loop1            11.9    0.34            12.1    0.35
      funct2 f2loop2            44.0    1.27            43.8    1.26
          funct2 s+c            22.8    0.66            22.8    0.66
        funct2 cmf_2            20.5    0.59            20.4    0.59
          dft_mkdens           705.8   20.31           705.5   20.27
         dft_gga-fun             1.0    0.03             1.0    0.03
          dft_mkfock           853.2   24.55           852.7   24.50
     pardft.red.fock           158.4    4.56           158.3    4.55
     scf_loop_energy             0.1    0.00             0.1    0.00
     scf_loop_mkfock             0.2    0.01             0.2    0.01
       scf_loop_diis           374.0   10.76           373.8   10.74
       scf_loop_diag           197.0    5.67           196.9    5.66
         diag_tritrn            65.7    1.89            65.7    1.89
          diag_rdiag           130.6    3.76           130.5    3.75
     scf_loop_modump            96.1    2.77           103.1    2.96
      scf_loop_ortho            53.3    1.53            53.3    1.53
          Scf_a_loop             6.0    0.17             6.3    0.18
         Ridft_a_scf             1.9    0.06             1.9    0.06
         a_scf_fanal             1.8    0.05             1.8    0.05
 


    ------------------------------------------------------------------------
         total  cpu-time : 58 minutes and  2 seconds
         total wall-time : 58 minutes and  8 seconds
    ------------------------------------------------------------------------


   ****  ridft : all done  ****


    2017-11-07 05:32:07.527 

