STARTING dscf ON 60 PROCESSORS!
RUNNING PROGRAM /sopt/TURBOMOLE/7.2.1-official/bin/em64t-unknown-linux-gnu_mpi/dscf_mpi.
PLEASE WAIT UNTIL dscf HAS FINISHED.
Look for the output in slave1.output.
MACHINEFILE is ./hostlist
@@@@@@@@@@@@@@@@@@@@@@@@@@@@@@@@@@@@@@@@@@@@@@@@@@@@@@@@@@@
@    WARNING: REMOTE HOST IDENTIFICATION HAS CHANGED!     @
@@@@@@@@@@@@@@@@@@@@@@@@@@@@@@@@@@@@@@@@@@@@@@@@@@@@@@@@@@@
IT IS POSSIBLE THAT SOMEONE IS DOING SOMETHING NASTY!
Someone could be eavesdropping on you right now (man-in-the-middle attack)!
It is also possible that a host key has just been changed.
The fingerprint for the RSA key sent by the remote host is
SHA256:qxtCMJWsl6kWSKl0FkGcTYaF83wXaHxKoPuYxFB2h9I.
Please contact your system administrator.
Add correct host key in /export/home/bdnguye2/.ssh/known_hosts to get rid of this message.
Offending RSA key in /export/home/bdnguye2/.ssh/known_hosts:289
Password authentication is disabled to avoid man-in-the-middle attacks.
Keyboard-interactive authentication is disabled to avoid man-in-the-middle attacks.
 this is node-proc. number 1 running on node c-15-24.gp.local
 the total number of node-proc. spawned is  61
  parallel platform: MPP or cluster with fast interconnect

 dscf (c-15-24.gp.local) : TURBOMOLE V7.2 ( 21471 ) 7 Nov 2017 at 16:15:16
 Copyright (C) 2017 TURBOMOLE GmbH, Karlsruhe


    2018-02-20 20:34:54.130 


 SCF run will be profiled !



                             d s c f - program

                   idea & directorship : reinhart ahlrichs
                   program development : marco haeser
                                         michael baer
                           dft version : oliver treutler
           parallelized version : malte v. arnim, gina corongiu, GMD 


                          quantum chemistry group
                          universitaet  karlsruhe
                                  germany




                          References             
                                                 
          TURBOMOLE:                             
              R. Ahlrichs, M. Baer, M. Haeser, H. Horn, and
              C. Koelmel
              Electronic structure calculations on workstation
              computers: the program system TURBOMOLE
              Chem. Phys. Lett. 162: 165 (1989)
          Density Functional:                              
              O. Treutler and R. Ahlrichs                      
              Efficient Molecular Numerical Integration Schemes
              J. Chem. Phys. 102: 346 (1995)                   
          Parallel Version:                                
              Performance of parallel TURBOMOLE for Density    
              Functional Calculations                          
              M. v. Arnim and R. Ahlrichs                      
              J. Comp. Chem. 19: 1746 (1998)                   
                                         




              +--------------------------------------------------+
              | Atomic coordinate, charge and isotop information |
              +--------------------------------------------------+

                    atomic coordinates            atom    charge  isotop
          5.86996452   -0.78810254   -4.59530630    c      6.000     0
          7.20248184   -2.16823901   -6.37688640    c      6.000     0
          5.98856741   -4.55049025   -6.64348742    c      6.000     0
          3.94112508   -4.59330807   -5.01176180    c      6.000     0
          6.29749316    1.89636702   -3.66209586    c      6.000     0
          8.96057847    2.74243961   -4.56337073    c      6.000     0
          4.36827642    3.72189068   -4.75217594    c      6.000     0
          4.57209075    5.31103057   -6.82226676    c      6.000     0
          2.02585290   -6.66679486   -4.49609735    c      6.000     0
          2.15946136   -7.49993502   -1.68763425    c      6.000     0
          2.70692670   -8.97332811   -6.13283275    c      6.000     0
         -0.63200152   -5.82595866   -5.17165721    c      6.000     0
         -2.18946355   -6.59098894   -7.13295899    c      6.000     0
          3.89372151   -2.29167674   -3.78596449    n      7.000     0
          1.99611798    4.08040386   -3.73881470    n      7.000     0
         -1.95752617   -4.04736186   -3.79724206    n      7.000     0
         -3.88934083    4.63851548   -5.00129268    c      6.000     0
         -5.91655277    4.61016526   -6.65855596    c      6.000     0
         -7.13296347    2.22544997   -6.42853201    c      6.000     0
         -5.82189329    0.82984778   -4.64304708    c      6.000     0
         -1.98006398    6.70752328   -4.44654614    c      6.000     0
         -2.13941314    7.51253059   -1.63126705    c      6.000     0
         -2.64664291    9.03046599   -6.06599175    c      6.000     0
          0.68406046    5.87410079   -5.10627890    c      6.000     0
          2.26012976    6.65977074   -7.04443431    c      6.000     0
         -6.25980184   -1.86341403   -3.74009524    c      6.000     0
         -8.91395134   -2.69986271   -4.67609995    c      6.000     0
         -4.32008849   -3.67836241   -4.82929909    c      6.000     0
         -4.50374297   -5.24516385   -6.91821726    c      6.000     0
         -3.85582792    2.32586336   -3.79585483    n      7.000     0
          6.35509136    2.00987676   -0.79159774    c      6.000     0
          6.38393198    4.08213529    0.86217415    c      6.000     0
          6.84371750   -0.10058737    0.59846547    n      7.000     0
          6.93232982    3.14682126    3.31610643    c      6.000     0
          7.19371221    0.51967002    3.11306771    c      6.000     0
         -6.34652617   -2.00485465   -0.87169613    c      6.000     0
         -6.38973230   -4.09282910    0.76212349    c      6.000     0
         -6.85265460    0.09156322    0.53309720    n      7.000     0
         -6.96503741   -3.18148679    3.21880792    c      6.000     0
         -7.22828846   -0.55280643    3.03790760    c      6.000     0
          7.68599877   -1.36851565    5.01392803    c      6.000     0
         -7.74236889    1.31659318    4.95135086    c      6.000     0
          8.11603216   -1.00663997    7.25803698    o      8.000     0
         -8.19529203    0.93272071    7.18737116    o      8.000     0
          7.60789561   -3.76714504    3.97962708    o      8.000     0
         -7.65577469    3.72515327    3.94087855    o      8.000     0
         -8.03113817    5.75204028    5.73199356    c      6.000     0
          7.96242576   -5.81101951    5.75563576    c      6.000     0
         -7.30477860    8.19128579    4.41152112    c      6.000     0
          7.26184325   -8.23856142    4.40014961    c      6.000     0
         -7.19025594   -4.74458232    5.57157871    c      6.000     0
          7.13650369    4.68787794    5.68523712    c      6.000     0
          4.58600594    4.96070010    7.05613622    c      6.000     0
         -4.65394389   -5.02033524    6.96816596    c      6.000     0
         -5.92955308   -6.80699185    0.07893159    c      6.000     0
          5.93519977    6.80349282    0.20035783    c      6.000     0
          8.85164949   -1.53068757   -7.39867582    h      1.000     0
          6.55187314   -6.06026124   -7.89841260    h      1.000     0
          9.33024400    4.66681301   -3.91575986    h      1.000     0
          9.08001401    2.69659664   -6.62586834    h      1.000     0
         10.38969694    1.47242859   -3.78198419    h      1.000     0
          6.19978605    5.48822786   -8.04280279    h      1.000     0
          0.81560353   -9.04169106   -1.35719599    h      1.000     0
          1.71346587   -5.94894509   -0.40214217    h      1.000     0
          4.07120818   -8.17551841   -1.26458685    h      1.000     0
          2.67645418   -8.50587216   -8.14630039    h      1.000     0
          1.35288832  -10.49750305   -5.78774845    h      1.000     0
          4.60183273   -9.64301516   -5.64361998    h      1.000     0
         -1.71878451   -7.96606601   -8.56799749    h      1.000     0
          2.63838462   -1.84919387   -2.35954216    h      1.000     0
          1.29777653    3.19725815   -2.15368887    h      1.000     0
         -1.27563756   -3.18166148   -2.19525633    h      1.000     0
         -6.46427657    6.13091228   -7.90711540    h      1.000     0
         -8.76909980    1.59680151   -7.47645653    h      1.000     0
         -0.79918711    9.05132970   -1.27338991    h      1.000     0
         -1.70456878    5.94891166   -0.35731597    h      1.000     0
         -4.05515665    8.18337265   -1.21885510    h      1.000     0
         -2.59640498    8.58385089   -8.08380624    h      1.000     0
         -1.29680225   10.55162429   -5.69223925    h      1.000     0
         -4.54656696    9.69416258   -5.58824271    h      1.000     0
          1.80334213    8.05048751   -8.46884668    h      1.000     0
         -9.01288940   -2.63374126   -6.73913336    h      1.000     0
        -10.35040755   -1.43702280   -3.89654904    h      1.000     0
         -9.29055764   -4.63039482   -4.05120677    h      1.000     0
         -6.11969780   -5.40935952   -8.15603778    h      1.000     0
         -2.62015145    1.87042764   -2.35441224    h      1.000     0
          6.84377010   -1.88219370   -0.09515548    h      1.000     0
         -6.84897285    1.87950696   -0.14406925    h      1.000     0
         -6.86521845    5.38824141    7.40049927    h      1.000     0
        -10.01364555    5.75205802    6.33445922    h      1.000     0
          6.77101750   -5.46722414    7.41039772    h      1.000     0
          9.93573669   -5.81206673    6.38738499    h      1.000     0
         -5.31972216    8.14749809    3.83698402    h      1.000     0
         -7.58507625    9.79281031    5.69432847    h      1.000     0
         -8.46300115    8.49183526    2.72446370    h      1.000     0
          5.28546094   -8.19369293    3.79660748    h      1.000     0
          7.52704132   -9.85219789    5.67092503    h      1.000     0
          8.44584728   -8.51936469    2.72766080    h      1.000     0
         -7.90263773   -6.62539870    5.06055604    h      1.000     0
         -8.56688742   -3.87197527    6.84321450    h      1.000     0
          7.86134460    6.57057591    5.19899115    h      1.000     0
          8.49578883    3.79896247    6.96424046    h      1.000     0
          3.16091814    5.80012632    5.81408160    h      1.000     0
          4.77992924    6.15874131    8.73649835    h      1.000     0
          3.89335542    3.10974255    7.65139193    h      1.000     0
         -3.21203059   -5.84250685    5.73399798    h      1.000     0
         -4.86155366   -6.23481190    8.63502603    h      1.000     0
         -3.97505580   -3.17238356    7.58817529    h      1.000     0
         -6.03297554   -7.10472402   -1.96163377    h      1.000     0
         -7.31650740   -8.04446925    0.99699119    h      1.000     0
         -4.04745501   -7.42383875    0.69182890    h      1.000     0
          6.05165976    7.11906884   -1.83677978    h      1.000     0
          7.32003978    8.02906108    1.13752323    h      1.000     0
          4.05123182    7.41991947    0.80779657    h      1.000     0
          1.35323061   -1.83487764    8.35180463    c      0.000     0
          1.33432773   -1.84971329    5.72023982    c      0.000     0
         -0.05038535   -0.03022455    9.66981846    c      0.000     0
         -0.02339181   -0.01634270    4.38825803    c      0.000     0
         -1.44026825    1.78151055    8.34706624    c      0.000     0
         -1.39448303    1.81020133    5.71590596    c      0.000     0
         -0.01002541   -0.00957737    1.54688684    c      0.000     0
         -0.71244440    1.99678102    0.43861828    o      0.000     0
          0.70197594   -2.01005326    0.43554592    o      0.000     0
          2.45749504   -3.22647612    9.38068689    h      0.000     0
          2.37404005   -3.25582621    4.65113501    h      0.000     0
         -0.06095465   -0.03560796   11.72386454    h      0.000     0
         -2.55457623    3.16809886    9.37191360    h      0.000     0
         -2.42389050    3.22158305    4.64376839    h      0.000     0
 
       center of nuclear mass  :    0.00004784    0.00010488   -0.08608047
       center of nuclear charge:    0.00411081    0.00282273   -0.83473908

              +--------------------------------------------------+
              |               basis set information              |
              +--------------------------------------------------+

              we will work with the 1s 3p 5d 7f 9g ... basis set
              ...i.e. with spherical basis functions...

   type   atoms  prim   cont   basis
   ---------------------------------------------------------------------------
    c       53     77     55   cc-pVQZ   [5s4p3d2f1g|21s6p3d2f1g]
    n        6     77     55   cc-pVQZ   [5s4p3d2f1g|21s6p3d2f1g]
    o        6     77     55   cc-pVQZ   [5s4p3d2f1g|21s6p3d2f1g]
    h       63     32     30   cc-pVQZ   [4s3p2d1f|6s3p2d1f]
   ---------------------------------------------------------------------------
   total:  128   7021   5465
   ---------------------------------------------------------------------------

   total number of primitive shells          :  111
   total number of contracted shells         : 1605
   total number of cartesian basis functions : 6755
   total number of SCF-basis functions       : 5465


 integral neglect threshold       :  0.49E-12
 integral storage threshold THIZE :  0.10E-04
 integral storage threshold THIME :         5


 DENSITY CONVERGENCE CHECK SWITCHED ON !
 SCF CONVERGENCE IF RMS(delta[D]) <     0.1000000000E-06


 symmetry group of the molecule :   c1 

 the group has the following generators :
   c1(z)

    1 symmetry operations found

 there are 1 real representations :   a   

 maximum number of shells which are related by symmetry :  1


    mo occupation :
   irrep   mo's   occupied
    a     5465      204
 
 number of basis functions   :                   5465
 number of occupied orbitals :                    204
 

 automatic virtual orbital shift switched on 
      shift if e(lumo)-e(homo) < 0.10000000    


 keyword $2e-ints_shell_statistics missing in file <control>

 ! One task per shell generated
  No pre-computed optimal task distribution found
  ... using automatic task generation

          ------------------------
          nuclear repulsion energy  :   8459.68653631    
          ------------------------


         -----------------
         -S,T+V- integrals
         -----------------

 1e-integrals will be neglected if expon. factor < 0.494739E-13
 
   Difference densities algorithm switched on.
   The maximal number of linear combinations of
   difference densities is                    20 .

 DIIS switched on: error vector is FDS-SDF
 Max. Iterations for DIIS is     :   5
 DIIS matrix (see manual) 
    Scaling factor of diagonals  :  1.200
    threshold for scaling factor :  0.000

 scf convergence criterion : increment of total energy < .1000000D-06
                  and increment of one-electron energy < .1000000D-03

  MOs are in ASCII format !


 reading orbital data $scfmo  from file mos
 orbital characterization : expanded
 mo provided and orthogonalized by Cholesky decomposition

 DSCF restart information will be dumped onto file mos

 
                                              current damping :  0.300
 ITERATION  ENERGY          1e-ENERGY        2e-ENERGY     RMS[dD(SAO)]   TOL
   1  -2394.3060734124    -20039.984626     9185.9920167    0.000D+00 0.493D-12
          max. resid. norm for Fia-block=  3.507D-01 for orbital      1a         
          max. resid. fock norm         =  1.483D+01 for orbital   5012a         
          Delta Eig. =  2518.9180442862 eV 
 
                                              current damping :  0.250
 ITERATION  ENERGY          1e-ENERGY        2e-ENERGY     RMS[dD(SAO)]   TOL
   2  -2401.6726148748    -20116.261688     9254.9025367    0.547D-02 0.482D-12
          Norm of current diis error:  6.8918    
          max. resid. norm for Fia-block=  1.364D-01 for orbital      3a         
          max. resid. fock norm         =  3.952D-01 for orbital   5367a         
          Delta Eig. =   607.3933885993 eV 
 
                                              current damping :  0.150
 ITERATION  ENERGY          1e-ENERGY        2e-ENERGY     RMS[dD(SAO)]   TOL
   3  -2402.5751291614    -20120.494202     9258.2325368    0.106D-02 0.281D-12
          Norm of current diis error:  2.4629    
          max. resid. norm for Fia-block=  4.468D-02 for orbital    191a         
          max. resid. fock norm         =  6.854D-02 for orbital   5360a         
          Delta Eig. =   131.3441785862 eV 
 
                                              current damping :  0.100
 ITERATION  ENERGY          1e-ENERGY        2e-ENERGY     RMS[dD(SAO)]   TOL
   4  -2402.7407153774    -20128.897435     9266.4701833    0.346D-03 0.233D-12
          Norm of current diis error: 0.75218    
          max. resid. norm for Fia-block=  2.145D-02 for orbital     64a         
          max. resid. fock norm         =  5.711D-02 for orbital   5158a         
          Delta Eig. =    18.5324542839 eV 
 
                                              current damping :  0.150
 ITERATION  ENERGY          1e-ENERGY        2e-ENERGY     RMS[dD(SAO)]   TOL
   5  -2402.7588249185    -20127.583602     9265.1382407    0.124D-03 0.213D-12
          Norm of current diis error: 0.28985    
          max. resid. norm for Fia-block=  6.903D-03 for orbital    201a         
          max. resid. fock norm         =  1.136D-02 for orbital   5268a         
 mo-orthogonalization: Cholesky decomposition
          Delta Eig. =     1.3809585102 eV 
 
                                              current damping :  0.200
 ITERATION  ENERGY          1e-ENERGY        2e-ENERGY     RMS[dD(SAO)]   TOL
   6  -2402.7618285901    -20128.852885     9266.4045201    0.437D-04 0.202D-12
          Norm of current diis error: 0.11255    
          max. resid. norm for Fia-block=  2.921D-03 for orbital    201a         
          max. resid. fock norm         =  3.427D-03 for orbital   5147a         
          Delta Eig. =     0.2905484853 eV 
 
                                              current damping :  0.250
 ITERATION  ENERGY          1e-ENERGY        2e-ENERGY     RMS[dD(SAO)]   TOL
   7  -2402.7623863698    -20128.526597     9266.0776746    0.229D-04 0.192D-12
          Norm of current diis error: 0.47315E-01
          max. resid. norm for Fia-block=  2.106D-03 for orbital    201a         
          max. resid. fock norm         =  2.175D-03 for orbital    208a         
          Delta Eig. =     0.1258193791 eV 
 
                                              current damping :  0.300
 ITERATION  ENERGY          1e-ENERGY        2e-ENERGY     RMS[dD(SAO)]   TOL
   8  -2402.7625316021    -20128.655403     9266.2063353    0.102D-04 0.183D-12
          Norm of current diis error: 0.23170E-01
          max. resid. norm for Fia-block=  1.209D-03 for orbital    201a         
          max. resid. fock norm         =  1.308D-03 for orbital    208a         
          Delta Eig. =     0.0326091499 eV 
 
                                              current damping :  0.350
 ITERATION  ENERGY          1e-ENERGY        2e-ENERGY     RMS[dD(SAO)]   TOL
   9  -2402.7625732016    -20128.635807     9266.1866972    0.514D-05 0.175D-12
          Norm of current diis error: 0.11696E-01
          max. resid. norm for Fia-block=  8.585D-04 for orbital    201a         
          max. resid. fock norm         =  8.852D-04 for orbital    208a         
          Delta Eig. =     0.0153593137 eV 
 
                                              current damping :  0.400
 ITERATION  ENERGY          1e-ENERGY        2e-ENERGY     RMS[dD(SAO)]   TOL
  10  -2402.7625863042    -20128.645184     9266.1960614    0.233D-05 0.168D-12
          Norm of current diis error: 0.72461E-02
          max. resid. norm for Fia-block=  5.262D-04 for orbital    201a         
          max. resid. fock norm         =  5.702D-04 for orbital    208a         
 mo-orthogonalization: Cholesky decomposition
          Delta Eig. =     0.0112248303 eV 
 
                                              current damping :  0.450
 ITERATION  ENERGY          1e-ENERGY        2e-ENERGY     RMS[dD(SAO)]   TOL
  11  -2402.7625912454    -20128.643597     9266.1944694    0.148D-05 0.160D-12
          Norm of current diis error: 0.37483E-02
          max. resid. norm for Fia-block=  3.441D-04 for orbital    201a         
          max. resid. fock norm         =  3.582D-04 for orbital    208a         
          Delta Eig. =     0.0034625431 eV 
 
                                              current damping :  0.500
 ITERATION  ENERGY          1e-ENERGY        2e-ENERGY     RMS[dD(SAO)]   TOL
  12  -2402.7625928049    -20128.647918     9266.1987890    0.783D-06 0.154D-12
          Norm of current diis error: 0.22042E-02
          max. resid. norm for Fia-block=  2.105D-04 for orbital    201a         
          max. resid. fock norm         =  2.221D-04 for orbital    208a         
          Delta Eig. =     0.0031241042 eV 
 
                                              current damping :  0.550
 ITERATION  ENERGY          1e-ENERGY        2e-ENERGY     RMS[dD(SAO)]   TOL
  13  -2402.7625933265    -20128.645498     9266.1963686    0.496D-06 0.148D-12
          Norm of current diis error: 0.10894E-02
          max. resid. norm for Fia-block=  1.080D-04 for orbital    201a         
          max. resid. fock norm         =  1.094D-04 for orbital    208a         
          Delta Eig. =     0.0011529350 eV 
 
                                              current damping :  0.600
 ITERATION  ENERGY          1e-ENERGY        2e-ENERGY     RMS[dD(SAO)]   TOL
  14  -2402.7625934485    -20128.647214     9266.1980841    0.242D-06 0.144D-12
          Norm of current diis error: 0.57648E-03
          max. resid. norm for Fia-block=  5.689D-05 for orbital    201a         
          max. resid. fock norm         =  5.832D-05 for orbital    208a         
          Delta Eig. =     0.0006588053 eV 
 
                                              current damping :  0.650
 ITERATION  ENERGY          1e-ENERGY        2e-ENERGY     RMS[dD(SAO)]   TOL
  15  -2402.7625934777    -20128.646672     9266.1975418    0.129D-06 0.140D-12
          Norm of current diis error: 0.28934E-03
          max. resid. norm for Fia-block=  2.724D-05 for orbital    201a         
          max. resid. fock norm         =  2.734D-05 for orbital    201a         
 mo-orthogonalization: Cholesky decomposition
          Delta Eig. =     0.0002624047 eV 

 DENSITY CONVERGED !

 
                                              current damping :  0.700
 ITERATION  ENERGY          1e-ENERGY        2e-ENERGY     RMS[dD(SAO)]   TOL
  16  -2402.7625934883    -20128.646843     9266.1977133    0.603D-07 0.141D-12
          Norm of current diis error: 0.15433E-03
          max. resid. norm for Fia-block=  1.367D-05 for orbital    197a         
          max. resid. fock norm         =  1.375D-05 for orbital    197a         
          Delta Eig. =     0.0001293030 eV 

 ENERGY & DENSITY CONVERGED !

 
                                              current damping :  0.750
 ITERATION  ENERGY          1e-ENERGY        2e-ENERGY     RMS[dD(SAO)]   TOL
  17  -2402.7625934914    -20128.646792     9266.1976620    0.295D-07 0.141D-12
          max. resid. norm for Fia-block=  2.989D-06 for orbital    197a         
          max. resid. fock norm         =  4.268D-06 for orbital   1089a         

 convergence criteria satisfied after    17 iterations


                  ------------------------------------------ 
                 |  total energy      =  -2402.76259349145  |
                  ------------------------------------------ 
                 :  kinetic energy    =   2399.08580091902  :
                 :  potential energy  =  -4801.84839441047  :
                 :  virial theorem    =      1.99846976452  :
                 :  wavefunction norm =      1.00000000000  :
                  .......................................... 


 <geterg> : there is no data group $energy 


 <skperg> : $end is missing 


 orbitals $scfmo  will be written to file mos

    irrep                200a        201a        202a        203a        204a   
 eigenvalues H         -0.30839    -0.29969    -0.29634    -0.28954    -0.27105
            eV          -8.3919     -8.1552     -8.0638     -7.8789     -7.3758
 occupation              2.0000      2.0000      2.0000      2.0000      2.0000 

    irrep                205a        206a        207a        208a        209a   
 eigenvalues H          0.04358     0.07555     0.08276     0.09903     0.09970
            eV           1.1858      2.0558      2.2522      2.6948      2.7130
 
 
 
 
 ==============================================================================
                           electrostatic moments
 ==============================================================================

 reference point for electrostatic moments:    0.00000   0.00000   0.00000

 
              nuc           elec       ->  total
 ------------------------------------------------------------------------------
                          charge      
 ------------------------------------------------------------------------------
         408.000000    -408.000000      -0.000000
 
 ------------------------------------------------------------------------------
                       dipole moment  
 ------------------------------------------------------------------------------
   x       1.677209      -1.673681       0.003528
   y       1.151673      -1.146341       0.005332
   z    -340.573543     339.441151      -1.132392
 
   | dipole moment | =     1.1324 a.u. =     2.8783 debye 
 
 ------------------------------------------------------------------------------
                     quadrupole moment
 ------------------------------------------------------------------------------
  xx   14572.383027  -14831.267056    -258.884028
  yy   10101.803978  -10332.570728    -230.766751
  zz    9868.771860  -10142.560468    -273.788608
  xy    -506.452697     498.801592      -7.651104
  xz      16.306475     -16.257340       0.049135
  yz       0.313371      -0.137208       0.176163
 
     1/3  trace=    -254.479796
     anisotropy=      40.093922
 
 ==============================================================================
 

    dscf profiling
  --------------------------------------------------------------------
             module   cpu total (s)       %  wall total (s)       %

          dscf.total         65792.9  100.00         48870.7  100.00
        dscf.prepare           188.6    0.29           189.0    0.39
      prepare.oneint             2.0    0.00             2.0    0.00
     prepare.moinput             1.8    0.00             1.8    0.00
     moinput_orthmos           183.7    0.28           183.7    0.38
            dscf.scf         65590.0   99.69         48667.3   99.58
             scf.pre             0.0    0.00             0.2    0.00
        scf.makedmat           115.4    0.18           118.6    0.24
          scf.shloop         45196.6   68.70         45191.2   92.47
          shloop_omp         45181.6   68.67         45176.2   92.44
          scf.symcar            13.7    0.02            13.7    0.03
        scf.makefock            25.5    0.04            28.6    0.06
          scf.newerg             1.0    0.00             1.0    0.00
          scf.newcnv          5372.8    8.17           198.2    0.41
           scf.fdiag         11528.8   17.52           394.8    0.81
         diag_tritrn          3288.5    5.00           110.6    0.23
          diag_rdiag          8201.7   12.47           281.2    0.58
          scf.modump          2386.6    3.63          2388.9    4.89
           ortho_all           791.8    1.20           180.5    0.37
            scf.post           153.1    0.23           151.5    0.31
        dscf.postscf            14.3    0.02            14.4    0.03
 


    ------------------------------------------------------------------------
         total  cpu-time : 18 hours 16 minutes and 39 seconds
         total wall-time : 13 hours 34 minutes and 37 seconds
    ------------------------------------------------------------------------

   ****  dscf : all done  ****


    2018-02-21 10:09:25.000 

