STARTING ridft ON 32 PROCESSORS!
RUNNING PROGRAM /sopt/TURBOMOLE/7.3-official/bin/em64t-unknown-linux-gnu_smp/ridft_mpi.
           SMPCPUS    set: Shared-memory Parallelization with  32 CPUs.

           SMP Parallelization Reference:
           C. van Wullen, J. Comput. Chem. 32 (2011) 1195--1201
 operating system is UNIX !

 ridft (c-13-42) : TURBOMOLE V7.3 ( 22118 ) 1 Jul 2018 at 20:38:15
 Copyright (C) 2018 TURBOMOLE GmbH, Karlsruhe


    2019-03-12 12:51:49.270 



                                  r i d f t

                        DFT program with RI approximation 
                                for coulomb part 




                                                 
                                 References:     
                                                 
          TURBOMOLE:                             
              R. Ahlrichs, M. Baer, M. Haeser, H. Horn, and
              C. Koelmel
              Electronic structure calculations on workstation
              computers: the program system TURBOMOLE
              Chem. Phys. Lett. 162: 165 (1989)
          Density Functional:                              
              O. Treutler and R. Ahlrichs                      
              Efficient Molecular Numerical Integration Schemes
              J. Chem. Phys. 102: 346 (1995)                   
          Parallel Version:                                
              Performance of parallel TURBOMOLE for Density    
              Functional Calculations                          
              M. v. Arnim and R. Ahlrichs                      
              J. Comp. Chem. 19: 1746 (1998)                   
          RI-J Method:                                     
              Auxiliary Basis Sets to approximate Coulomb      
              Potentials                                       
              Chem. Phys. Lett. 240: 283 (1995)                
              K. Eichkorn, O. Treutler, H. Oehm, M. Haeser     
              and R. Ahlrichs                                  
              Chem. Phys. Lett. 242: 652 (1995)                
                                                           
              Auxiliary Basis Sets for Main Row Atoms and their
              Use to approximate Coulomb Potentials            
              K. Eichkorn, F. Weigend, O. Treutler and         
              R. Ahlrichs                                      
              Theo. Chem. Acc. 97: 119 (1997)                   
                                                           
              Accurate Coulomb-fitting basis sets for H to Rn 
              F. Weigend                                        
              Phys. Chem. Chem. Phys. 8: 1057 (2006)            
                                                           
          Multipole accelerated RI-J (MARI-J):             
              Fast evaluation of the Coulomb potential for     
              electron densities using multipole accelerated   
              resolution of identity approximation             
              M. Sierka, A. Hogekamp and R. Ahlrichs           
              J. Chem. Phys. 118: 9136 (2003)                  
          RI-JK Method:                                     
              A fully direct RI-HF algorithm: Implementation,
              optimised auxiliary basis sets, demonstration of
              accuracy and efficiency                         
              F. Weigend                                      
              Phys. Chem. Chem. Phys. 4: 4285 (2002)           
          Two-component HF and DFT with spin-orbit coupling:  
              Self-consistent treatment of spin-orbit         
              interactions with efficient Hartree-Fock and    
              density functional methods                      
              M. K. Armbruster, F. Weigend, C. van Wüllen and 
              W. Klopper                                      
              Phys. Chem. Chem. Phys. 10: 1748 (2008)         
          Two-component difference density and DIIS algorithm 
              Efficient two-component self-consistent field   
              procedures and gradients: implementation in     
              TURBOMOLE and application to Au20-              
              A. Baldes, F. Weigend                           
              Mol. Phys. 111: 2617 (2013)                     
          Relativistic all-electron 2c calculations           
              An efficient implementation of two-component    
              relativistic exact-decoupling methods for large 
              molecules                                       
              D. Peng, N. Middendorf, F. Weigend, M. Reiher   
              J. Chem. Phys. 138: 184105 (2013)               
          Finite nucleus model and SNSO approximation         
              Efficient implementation of one- and two-       
              component analytical energy gradients in exact  
              two-component theory                            
              Y. J. Franzke, N. Middendorf, F. Weigend        
              J. Chem. Phys. 148: 104110 (2018)               
                                         




              +--------------------------------------------------+
              |      general information about current run       |
              +--------------------------------------------------+

 
 PBE functional
 exchange:    LDA + PBE
 correlation: LDA (PW) + PBE
 A DFT calculation using the RI-J approximation will be carried out.
 Allocatable memory for RI due to $ricore (MB):                  8000


              +--------------------------------------------------+
              | Atomic coordinate, charge and isotop information |
              +--------------------------------------------------+

                    atomic coordinates            atom    charge  isotop
         -4.78725956   -0.55724068    1.34765584    c      6.000     0
         -4.84455260   -1.84641703   -0.25780143    h      1.000     0
         -4.85088607   -1.69296010    3.06462890    h      1.000     0
         -6.49012477    0.59707245    1.29277010    h      1.000     0
         -2.40351407    1.05381611    1.27434566    c      6.000     0
         -2.40189162    2.37456507    2.86164895    h      1.000     0
         -2.39358863    2.20700324   -0.43808865    h      1.000     0
         -0.00025519   -0.52613418    1.35985287    c      6.000     0
         -0.00030118   -1.67662080    3.07767806    h      1.000     0
         -0.00069055   -1.85328122   -0.22564160    h      1.000     0
          2.40353277    1.05329968    1.27379084    c      6.000     0
          2.40178854    2.37469281    2.86048867    h      1.000     0
          2.39359608    2.20565528   -0.43914765    h      1.000     0
          4.78743929   -0.55735915    1.34790414    c      6.000     0
          4.84510509   -1.84772527   -0.25658392    h      1.000     0
          6.48990451    0.59763405    1.29181575    h      1.000     0
          4.85198184   -1.69169959    3.06575684    h      1.000     0
          4.78772944    0.55750952    8.52852274    c      6.000     0
          4.85308465    1.69097991    6.81014649    h      1.000     0
          4.84537235    1.84858284   10.13241801    h      1.000     0
          6.48976928   -0.59805292    8.58560936    h      1.000     0
          2.40322350   -1.05232412    8.60279701    c      6.000     0
          2.39293637   -2.20454251   10.31582801    h      1.000     0
          2.40108714   -2.37391117    7.01621874    h      1.000     0
         -0.00008294    0.52767420    8.51659443    c      6.000     0
         -0.00037571    1.85484772   10.10204532    h      1.000     0
          0.00006237    1.67809491    6.79870179    h      1.000     0
         -2.40336263   -1.05240515    8.60214524    c      6.000     0
         -2.39319167   -2.20534492   10.31470974    h      1.000     0
         -2.40127195   -2.37336698    7.01503295    h      1.000     0
         -4.78766643    0.55772903    8.52848805    c      6.000     0
         -4.85228241    1.69257319    6.81095989    h      1.000     0
         -6.48993547   -0.59745745    8.58425988    h      1.000     0
         -4.84537779    1.84763008   10.13335949    h      1.000     0
 
       center of nuclear mass  :   -0.00001644    0.00043554    4.93820816
       center of nuclear charge:   -0.00001282    0.00042075    4.93820708

              +--------------------------------------------------+
              |               basis set information              |
              +--------------------------------------------------+

              we will work with the 1s 3p 5d 7f 9g ... basis set
              ...i.e. with spherical basis functions...

   type   atoms  prim   cont   basis
   ---------------------------------------------------------------------------
    c       10     77     57   def2-QZVP   [7s4p3d2f1g|15s8p3d2f1g]
    h       24     33     30   def2-QZVP   [4s3p2d1f|7s3p2d1f]
   ---------------------------------------------------------------------------
   total:   34   1562   1290
   ---------------------------------------------------------------------------

   total number of primitive shells          :   42
   total number of contracted shells         :  410
   total number of cartesian basis functions : 1560
   total number of SCF-basis functions       : 1290


 integral neglect threshold       :  0.21E-11
 integral storage threshold THIZE :  0.10E-04
 integral storage threshold THIME :         5

 RI-J AUXILIARY BASIS SET information:

              we will work with the 1s 3p 5d 7f 9g ... basis set
              ...i.e. with spherical basis functions...

   type   atoms  prim   cont   basis
   ---------------------------------------------------------------------------
    c       10     70     49   def2-QZVP   [6s4p3d1f1g|12s5p4d2f1g]
    h       24     16     11   def2-QZVP   [3s1p1d|5s2p1d]
   ---------------------------------------------------------------------------
   total:   34   1084    754
   ---------------------------------------------------------------------------

   total number of primitive shells          :   32
   total number of contracted shells         :  270
   total number of cartesian basis functions :  898
   total number of SCF-basis functions       :  754


 symmetry group of the molecule :   c1 

 the group has the following generators :
   c1(z)

    1 symmetry operations found

 there are 1 real representations :   a   

 maximum number of shells which are related by symmetry :  1


    mo occupation :
   irrep   mo's   occupied
    a     1290       42
 
 number of basis functions   :                   1290
 number of occupied orbitals :                     42
 
  
           ------------------
           density functional
           ------------------
 PBE functional
 exchange:    LDA + PBE
 correlation: LDA (PW) + PBE

 iterations will be done with small grid
  
 spherical integration : Lebedev's spherical grid
 spherical gridsize    :                     4
    i.e. gridpoints    :                   434
 value for diffuse not defined
 radial integration    : Chebyshev 2nd kind (scaling 3)
 radial gridsize       :                     6
 integration cells     :                    34
 partition function    : becke
 partition sharpness   :                     3
  

 biggest AO integral is expected to be     5.262544080
  
           ------------------------
               RI-J - INFORMATION
           ------------------------
 Contributions to RI integral batches: 
  neglected integral batches:                 25176
  direct contribution:                            0
  memory contribution:                 59079
 Memory core needed for (P|Q) and Cholesky      5 MByte
 Memory core minimum needed except of (P|Q)     7 MByte
 Total minimum memory core needed (sum)        11 MByte
  
 ****************************************
 Memory allocated for RI-J  5469 MByte
 ****************************************
                                            

          ------------------------
          nuclear repulsion energy  :   577.943300740    
          ------------------------

   .------------------------------.
   |            DFT-D4            |
   |          ==========          |
   |  E. Caldeweyher,  S. Grimme  |
   |   University of Bonn, MCTC   |
   |     02/2018, Version 1.0     |
   '------------------------------'
  This code comes without any warranty

 Cite this work as:
   E. Caldeweyher, C. Bannwarth, and S. Grimme,
   J. Chem. Phys., 2017, 147, 034112.
   E. Caldeweyher, S. Ehlert, and S. Grimme,
   J. Chem. Phys., in preparation.

 Contributions:
   P. Shushkov - GBSA(H2O)
   S. Ehlert   - MBD, DFA fit

number of atoms            :    34
number of electrons        :    64
charge                     :  0
spin                       : 0.0
 Found param_gfn2.xtb file !
========================================================================
    G F N  parametrization, version 3
   Geometries Frequencies Non-covalent interactions
 /sopt/TURBOMOLE/7.3-official/parameter/param_gfn2.xtb
========================================================================
 method parameters:
------------------------------------------------------------------------
k(s)        :               1.8500
k(p)        :               2.2300
k(d)        :               2.2300
k(f)        :               2.0000
kEN (H0ij)  :              -2.0000
D3 a1       :               0.5200
D3 a2       :               5.0000
D3 s8       :               2.7000
D3atm       :               5.0000
alphaj      :               2.0000
AESdamp     :               4.0000
AESrad      :               3.0000
expscalexp  :               5.0000
------------------------------------------------------------------------
------------------------------------------------------------------------
 xTB basis
------------------------------------------------------------------------
  Z AO/shell   Hii/eV     exponent
  1     Wed Apr 25 08:07:45 CEST 2018   EN: 2.200 GM2: 0.406  GM3: 0.0800  RAES: 1.40
     1s    -10.707211    1.230000
  6     Wed Apr 25 08:07:45 CEST 2018   EN: 2.550 GM2: 0.538  GM3: 0.1500  RAES: 3.00
     2s    -13.970922    2.096432
     2p    -10.063292    1.800000
------------------------------------------------------------------------
 DFT-D4 reference setup
------------------------------------------------------------------------
 C      q(ref)        CN(ref)   cov. CN(ref)  alpha(AIM,ref)
     0.0000000      0.0000000      0.0000000     12.3555336
    -0.1299310      0.9367838      0.9179641     12.6203061
    -0.0788263      1.9884028      1.9096951      9.3103249
    -0.0767301      2.9881158      2.8401678      8.8356702
    -0.0945886      3.9165802      3.7567914      6.6924619
    -0.0285648      3.3673832      3.0308559      8.9184424
     0.0506204      0.9979550      0.8555886      7.7402501
 H      q(ref)        CN(ref)   cov. CN(ref)  alpha(AIM,ref)
     0.0000000      0.0000000      0.0000000      5.0540161
     0.0000000      0.8115055      0.8943405      2.7207580
 no old-style atom pair restraing (fixing) potential
------------------------------------------------------------------------
 SCC calculation
------------------------------------------------------------------------

------------------------------------------------------------------------
 Dispersion Energy Calculation
 * damping parameters for pbe-D4
 s6       :    1.0000
 s8       :    0.9516
 a1       :    0.4044
 a2       :    4.6501
========================================================================
 Edisp  /kcal,au:   -18.4351  -0.02937825
------------------------------------------------------------------------
 E(2)   /kcal,au:   -18.7160  -0.02982592
 Emany  /kcal,au:     0.2809   0.00044767
 Eresp  /kcal,au:     0.0000   0.00000000
========================================================================
 nuclear repulsion energy                  =     577.943300740
 empirical dispersive energy correction    =      -0.029378254
 nuclear repulsion + dispersion correction =     577.913922486


         -----------------
         -S,T+V- integrals
         -----------------

 1e-integrals will be neglected if expon. factor < 0.214228E-12
 Difference densities >>NOT<< switched on in parallel ridft!

 DIIS switched on: error vector is FDS-SDF
 Max. Iterations for DIIS is     :   4
 DIIS matrix (see manual) 
    Scaling factor of diagonals  :  1.200
    threshold for scaling factor :  0.000

 scf convergence criterion : increment of total energy < .1000000D-06
                  and increment of one-electron energy < .1000000D-03

  MOs are in ASCII format !


 automatic virtual orbital shift switched on 
      shift if e(lumo)-e(homo) < 0.10000000    


 reading orbital data $scfmo  from file mos
 orbital characterization : expanded
 mo provided and orthogonalized by Cholesky decomposition

 DSCF restart information will be dumped onto file mos


 Starting SCF iterations

          Overall gridpoints after grid construction =         76387

 ITERATION  ENERGY          1e-ENERGY        2e-ENERGY     NORM[dD(SAO)]  TOL
   1  -393.77353803873    -1660.0327236     688.34526307    0.000D+00 0.214D-11
                            Exc = -60.6455426385     Coul =  748.990805706    
                              N = 84.000728103    
                            current damping = 0.700
 
          max. resid. norm for Fia-block=  4.491D-01 for orbital     12a         
          max. resid. fock norm         =  4.018D+01 for orbital   1123a         

 ITERATION  ENERGY          1e-ENERGY        2e-ENERGY     NORM[dD(SAO)]  TOL
   2  -394.86243601469    -1671.4528921     698.67653358    0.000D+00 0.214D-11
                            Exc = -61.9223191729     Coul =  760.598852750    
                              N = 84.000534918    
                            current damping = 0.650
 
          Norm of current diis error:  3.7174    
          max. resid. norm for Fia-block=  1.031D-01 for orbital      5a         
          max. resid. fock norm         =  1.176D-01 for orbital     11a         

 ITERATION  ENERGY          1e-ENERGY        2e-ENERGY     NORM[dD(SAO)]  TOL
   3  -395.07449625367    -1673.5291460     700.54072730    0.000D+00 0.214D-11
                            Exc = -62.3047034384     Coul =  762.845430740    
                              N = 84.000385478    
                            current damping = 0.550
 
          Norm of current diis error:  1.7660    
          max. resid. norm for Fia-block=  4.612D-02 for orbital     19a         
          max. resid. fock norm         =  4.999D-02 for orbital     11a         

 ITERATION  ENERGY          1e-ENERGY        2e-ENERGY     NORM[dD(SAO)]  TOL
   4  -395.13499593990    -1676.0395213     702.99060291    0.000D+00 0.214D-11
                            Exc = -62.6152319416     Coul =  765.605834854    
                              N = 84.000295411    
                            current damping = 0.450
 
          Norm of current diis error: 0.63033    
          max. resid. norm for Fia-block=  1.698D-02 for orbital     11a         
          max. resid. fock norm         =  1.946D-02 for orbital     11a         

 ITERATION  ENERGY          1e-ENERGY        2e-ENERGY     NORM[dD(SAO)]  TOL
   5  -395.14391016306    -1676.1710762     703.11324359    0.000D+00 0.214D-11
                            Exc = -62.6879528384     Coul =  765.801196428    
                              N = 84.000237431    
                            current damping = 0.300
 
          Norm of current diis error: 0.24789    
          max. resid. norm for Fia-block=  7.221D-03 for orbital     19a         
          max. resid. fock norm         =  7.391D-03 for orbital     19a         
          mo-orthogonalization: Cholesky decomposition

 ITERATION  ENERGY          1e-ENERGY        2e-ENERGY     NORM[dD(SAO)]  TOL
   6  -395.14526711215    -1676.8748173     703.81562771    0.000D+00 0.214D-11
                            Exc = -62.7546400124     Coul =  766.570267725    
                              N = 84.000220453    
                            current damping = 0.200
 
          Norm of current diis error: 0.85184E-01
          max. resid. norm for Fia-block=  2.023D-03 for orbital     42a         
          max. resid. fock norm         =  3.393D-03 for orbital   1287a         

 ITERATION  ENERGY          1e-ENERGY        2e-ENERGY     NORM[dD(SAO)]  TOL
   7  -395.14539635841    -1676.6285608     703.56924194    0.000D+00 0.214D-11
                            Exc = -62.7462462621     Coul =  766.315488207    
                              N = 84.000210470    
                            current damping = 0.250
 
          Norm of current diis error: 0.37778E-01
          max. resid. norm for Fia-block=  6.046D-04 for orbital     28a         
          max. resid. fock norm         =  1.734D-03 for orbital   1287a         

 ITERATION  ENERGY          1e-ENERGY        2e-ENERGY     NORM[dD(SAO)]  TOL
   8  -395.14542029304    -1676.6949146     703.63557180    0.000D+00 0.214D-11
                            Exc = -62.7500655163     Coul =  766.385637320    
                              N = 84.000209711    
                            current damping = 0.300
 
          Norm of current diis error: 0.95541E-02
          max. resid. norm for Fia-block=  2.054D-04 for orbital     29a         
          max. resid. fock norm         =  5.246D-04 for orbital   1287a         

 ITERATION  ENERGY          1e-ENERGY        2e-ENERGY     NORM[dD(SAO)]  TOL
   9  -395.14542178252    -1676.7203498     703.66100550    0.000D+00 0.214D-11
                            Exc = -62.7523507852     Coul =  766.413356287    
                              N = 84.000209849    
                            current damping = 0.150
 
          Norm of current diis error: 0.34269E-02
          max. resid. norm for Fia-block=  4.901D-05 for orbital     29a         
          max. resid. fock norm         =  1.424D-04 for orbital   1287a         

 ITERATION  ENERGY          1e-ENERGY        2e-ENERGY     NORM[dD(SAO)]  TOL
  10  -395.14542199633    -1676.7145080     703.65516356    0.000D+00 0.214D-11
                            Exc = -62.7518772895     Coul =  766.407040849    
                              N = 84.000209590    
                            current damping = 0.200
 
          Norm of current diis error: 0.22094E-03
          max. resid. norm for Fia-block=  5.951D-06 for orbital     42a         
          max. resid. fock norm         =  9.747D-06 for orbital   1287a         
          mo-orthogonalization: Cholesky decomposition

 ENERGY CONVERGED !

          Overall gridpoints after grid construction =        294205

 ITERATION  ENERGY          1e-ENERGY        2e-ENERGY     NORM[dD(SAO)]  TOL
  11  -395.14528396365    -1676.7144325     703.65522609    0.000D+00 0.214D-11
                            Exc = -62.7517260405     Coul =  766.406952133    
                              N = 83.999937718    
                            current damping = 0.250
 
          Norm of current diis error: 0.16982E-03
          max. resid. norm for Fia-block=  2.100D-06 for orbital     38a         
          max. resid. fock norm         =  3.261D-06 for orbital     21a         

 End of SCF iterations

   convergence criteria satisfied after    11 iterations


                  ------------------------------------------ 
                 |  total energy      =   -395.14528396365  |
                  ------------------------------------------ 
                 :  kinetic energy    =    393.36155108364  :
                 :  potential energy  =   -788.50683504728  :
                 :  virial theorem    =      1.99548588088  :
                 :  wavefunction norm =      1.00000000000  :
                  .......................................... 


 <geterg> : there is no data group $energy 


 <skperg> : $end is missing 


 orbitals $scfmo  will be written to file mos

    irrep                 38a         39a         40a         41a         42a   
 eigenvalues H         -0.28726    -0.28268    -0.27708    -0.27586    -0.27079
            eV          -7.8169     -7.6921     -7.5399     -7.5065     -7.3687
 occupation              2.0000      2.0000      2.0000      2.0000      2.0000 

    irrep                 43a         44a         45a         46a         47a   
 eigenvalues H          0.00038     0.00561     0.01201     0.01631     0.02760
            eV           0.0104      0.1527      0.3267      0.4439      0.7509
 
 
 
 
 ==============================================================================
                           electrostatic moments
 ==============================================================================

 reference point for electrostatic moments:    0.00000   0.00000   0.00000

 
              nuc           elec       ->  total
 ------------------------------------------------------------------------------
                          charge      
 ------------------------------------------------------------------------------
          84.000000     -84.000000      -0.000000
 
 ------------------------------------------------------------------------------
                       dipole moment  
 ------------------------------------------------------------------------------
   x      -0.001077       0.001089       0.000012
   y       0.035343      -0.035355      -0.000012
   z     414.809395    -414.809405      -0.000010
 
   | dipole moment | =     0.0000 a.u. =     0.0001 debye 
 
 ------------------------------------------------------------------------------
                     quadrupole moment
 ------------------------------------------------------------------------------
  xx    1091.250079   -1145.285749     -54.035671
  yy     118.441638    -171.822727     -53.381090
  zz    3202.005522   -3253.578097     -51.572575
  xy      -0.020296       0.020257      -0.000039
  xz       0.005016      -0.005051      -0.000035
  yz     -21.185884      20.996896      -0.188989
 
     1/3  trace=     -52.996445
     anisotropy=       2.233869
 
 ==============================================================================
 


    ------------------------------------------------------------------------
         total  cpu-time : 11 minutes and  4 seconds
         total wall-time :  2 minutes and 56 seconds
    ------------------------------------------------------------------------

   ****  ridft : all done  ****


    2019-03-12 12:54:44.957 

