STARTING ridft ON 32 PROCESSORS!
RUNNING PROGRAM /sopt/TURBOMOLE/7.3-official/bin/em64t-unknown-linux-gnu_smp/ridft_mpi.
           SMPCPUS    set: Shared-memory Parallelization with  32 CPUs.

           SMP Parallelization Reference:
           C. van Wullen, J. Comput. Chem. 32 (2011) 1195--1201
 operating system is UNIX !

 ridft (c-13-38) : TURBOMOLE V7.3 ( 22118 ) 1 Jul 2018 at 20:38:15
 Copyright (C) 2018 TURBOMOLE GmbH, Karlsruhe


    2019-03-12 22:38:27.368 



                                  r i d f t

                        DFT program with RI approximation 
                                for coulomb part 




                                                 
                                 References:     
                                                 
          TURBOMOLE:                             
              R. Ahlrichs, M. Baer, M. Haeser, H. Horn, and
              C. Koelmel
              Electronic structure calculations on workstation
              computers: the program system TURBOMOLE
              Chem. Phys. Lett. 162: 165 (1989)
          Density Functional:                              
              O. Treutler and R. Ahlrichs                      
              Efficient Molecular Numerical Integration Schemes
              J. Chem. Phys. 102: 346 (1995)                   
          Parallel Version:                                
              Performance of parallel TURBOMOLE for Density    
              Functional Calculations                          
              M. v. Arnim and R. Ahlrichs                      
              J. Comp. Chem. 19: 1746 (1998)                   
          RI-J Method:                                     
              Auxiliary Basis Sets to approximate Coulomb      
              Potentials                                       
              Chem. Phys. Lett. 240: 283 (1995)                
              K. Eichkorn, O. Treutler, H. Oehm, M. Haeser     
              and R. Ahlrichs                                  
              Chem. Phys. Lett. 242: 652 (1995)                
                                                           
              Auxiliary Basis Sets for Main Row Atoms and their
              Use to approximate Coulomb Potentials            
              K. Eichkorn, F. Weigend, O. Treutler and         
              R. Ahlrichs                                      
              Theo. Chem. Acc. 97: 119 (1997)                   
                                                           
              Accurate Coulomb-fitting basis sets for H to Rn 
              F. Weigend                                        
              Phys. Chem. Chem. Phys. 8: 1057 (2006)            
                                                           
          Multipole accelerated RI-J (MARI-J):             
              Fast evaluation of the Coulomb potential for     
              electron densities using multipole accelerated   
              resolution of identity approximation             
              M. Sierka, A. Hogekamp and R. Ahlrichs           
              J. Chem. Phys. 118: 9136 (2003)                  
          RI-JK Method:                                     
              A fully direct RI-HF algorithm: Implementation,
              optimised auxiliary basis sets, demonstration of
              accuracy and efficiency                         
              F. Weigend                                      
              Phys. Chem. Chem. Phys. 4: 4285 (2002)           
          Two-component HF and DFT with spin-orbit coupling:  
              Self-consistent treatment of spin-orbit         
              interactions with efficient Hartree-Fock and    
              density functional methods                      
              M. K. Armbruster, F. Weigend, C. van Wüllen and 
              W. Klopper                                      
              Phys. Chem. Chem. Phys. 10: 1748 (2008)         
          Two-component difference density and DIIS algorithm 
              Efficient two-component self-consistent field   
              procedures and gradients: implementation in     
              TURBOMOLE and application to Au20-              
              A. Baldes, F. Weigend                           
              Mol. Phys. 111: 2617 (2013)                     
          Relativistic all-electron 2c calculations           
              An efficient implementation of two-component    
              relativistic exact-decoupling methods for large 
              molecules                                       
              D. Peng, N. Middendorf, F. Weigend, M. Reiher   
              J. Chem. Phys. 138: 184105 (2013)               
          Finite nucleus model and SNSO approximation         
              Efficient implementation of one- and two-       
              component analytical energy gradients in exact  
              two-component theory                            
              Y. J. Franzke, N. Middendorf, F. Weigend        
              J. Chem. Phys. 148: 104110 (2018)               
                                         




              +--------------------------------------------------+
              |      general information about current run       |
              +--------------------------------------------------+

 
 PBE functional
 exchange:    LDA + PBE
 correlation: LDA (PW) + PBE
 A DFT calculation using the RI-J approximation will be carried out.
 Allocatable memory for RI due to $ricore (MB):                  8000


              +--------------------------------------------------+
              | Atomic coordinate, charge and isotop information |
              +--------------------------------------------------+

                    atomic coordinates            atom    charge  isotop
         -4.78725956   -0.55724068    1.34765584    c      6.000     0
         -4.84455260   -1.84641703   -0.25780143    h      1.000     0
         -4.85088607   -1.69296010    3.06462890    h      1.000     0
         -6.49012477    0.59707245    1.29277010    h      1.000     0
         -2.40351407    1.05381611    1.27434566    c      6.000     0
         -2.40189162    2.37456507    2.86164895    h      1.000     0
         -2.39358863    2.20700324   -0.43808865    h      1.000     0
         -0.00025519   -0.52613418    1.35985287    c      6.000     0
         -0.00030118   -1.67662080    3.07767806    h      1.000     0
         -0.00069055   -1.85328122   -0.22564160    h      1.000     0
          2.40353277    1.05329968    1.27379084    c      6.000     0
          2.40178854    2.37469281    2.86048867    h      1.000     0
          2.39359608    2.20565528   -0.43914765    h      1.000     0
          4.78743929   -0.55735915    1.34790414    c      6.000     0
          4.84510509   -1.84772527   -0.25658392    h      1.000     0
          6.48990451    0.59763405    1.29181575    h      1.000     0
          4.85198184   -1.69169959    3.06575684    h      1.000     0
          4.78772944    0.55750952    8.52852274    c      6.000     0
          4.85308465    1.69097991    6.81014649    h      1.000     0
          4.84537235    1.84858284   10.13241801    h      1.000     0
          6.48976928   -0.59805292    8.58560936    h      1.000     0
          2.40322350   -1.05232412    8.60279701    c      6.000     0
          2.39293637   -2.20454251   10.31582801    h      1.000     0
          2.40108714   -2.37391117    7.01621874    h      1.000     0
         -0.00008294    0.52767420    8.51659443    c      6.000     0
         -0.00037571    1.85484772   10.10204532    h      1.000     0
          0.00006237    1.67809491    6.79870179    h      1.000     0
         -2.40336263   -1.05240515    8.60214524    c      6.000     0
         -2.39319167   -2.20534492   10.31470974    h      1.000     0
         -2.40127195   -2.37336698    7.01503295    h      1.000     0
         -4.78766643    0.55772903    8.52848805    c      6.000     0
         -4.85228241    1.69257319    6.81095989    h      1.000     0
         -6.48993547   -0.59745745    8.58425988    h      1.000     0
         -4.84537779    1.84763008   10.13335949    h      1.000     0
 
       center of nuclear mass  :   -0.00001644    0.00043554    4.93820816
       center of nuclear charge:   -0.00001282    0.00042075    4.93820708

              +--------------------------------------------------+
              |               basis set information              |
              +--------------------------------------------------+

              we will work with the 1s 3p 5d 7f 9g ... basis set
              ...i.e. with spherical basis functions...

   type   atoms  prim   cont   basis
   ---------------------------------------------------------------------------
    c       10     68     48   def2-QZVP   [7s4p3d2f|15s8p3d2f]
    h       24     26     23   def2-QZVP   [4s3p2d|7s3p2d]
   ---------------------------------------------------------------------------
   total:   34   1304   1032
   ---------------------------------------------------------------------------

   total number of primitive shells          :   40
   total number of contracted shells         :  376
   total number of cartesian basis functions : 1170
   total number of SCF-basis functions       : 1032


 integral neglect threshold       :  0.28E-11
 integral storage threshold THIZE :  0.10E-04
 integral storage threshold THIME :         5

 RI-J AUXILIARY BASIS SET information:

              we will work with the 1s 3p 5d 7f 9g ... basis set
              ...i.e. with spherical basis functions...

   type   atoms  prim   cont   basis
   ---------------------------------------------------------------------------
    c       10     70     49   def2-QZVP   [6s4p3d1f1g|12s5p4d2f1g]
    h       24     16     11   def2-QZVP   [3s1p1d|5s2p1d]
   ---------------------------------------------------------------------------
   total:   34   1084    754
   ---------------------------------------------------------------------------

   total number of primitive shells          :   32
   total number of contracted shells         :  270
   total number of cartesian basis functions :  898
   total number of SCF-basis functions       :  754


 symmetry group of the molecule :   c1 

 the group has the following generators :
   c1(z)

    1 symmetry operations found

 there are 1 real representations :   a   

 maximum number of shells which are related by symmetry :  1


    mo occupation :
   irrep   mo's   occupied
    a     1032       42
 
 number of basis functions   :                   1032
 number of occupied orbitals :                     42
 
  
           ------------------
           density functional
           ------------------
 PBE functional
 exchange:    LDA + PBE
 correlation: LDA (PW) + PBE

 iterations will be done with small grid
  
 spherical integration : Lebedev's spherical grid
 spherical gridsize    :                     4
    i.e. gridpoints    :                   434
 value for diffuse not defined
 radial integration    : Chebyshev 2nd kind (scaling 3)
 radial gridsize       :                     6
 integration cells     :                    34
 partition function    : becke
 partition sharpness   :                     3
  

 biggest AO integral is expected to be     5.262544080
  
           ------------------------
               RI-J - INFORMATION
           ------------------------
 Contributions to RI integral batches: 
  neglected integral batches:                 20005
  direct contribution:                            0
  memory contribution:                 50871
 Memory core needed for (P|Q) and Cholesky      5 MByte
 Memory core minimum needed except of (P|Q)     5 MByte
 Total minimum memory core needed (sum)         9 MByte
  
 ****************************************
 Memory allocated for RI-J  3293 MByte
 ****************************************
                                            

          ------------------------
          nuclear repulsion energy  :   577.943300740    
          ------------------------

  _________________________________
 |                                 |
 |         DFTD3 V3.1 Rev 0        |
 | S.Grimme, University Bonn       |
 |            June  2014           |
 |   see standalone version        |
 |       dftd3 -h for options      |
 |_________________________________|
 
 Please cite DFT-D3 work done with this code as:
 S. Grimme, J. Antony, S. Ehrlich and H. Krieg,
 J. Chem. Phys, 132 (2010), 154104.
 If used with BJ-damping cite also
 S. Grimme, S. Ehrlich and L. Goerigk,
 J. Comput. Chem. 32 (2011), 1456-1465
 For DFT-D2 the reference is
 S. Grimme, J. Comput. Chem., 27 (2006), 1787-1799
 
C6 coefficients used:
                     2  C6 for element                      1
Z=  1 CN= 0.912     C6(AA)=    3.03
Z=  1 CN= 0.000     C6(AA)=    7.59
                     5  C6 for element                      6
Z=  6 CN= 0.000     C6(AA)=   49.11
Z=  6 CN= 0.987     C6(AA)=   43.25
Z=  6 CN= 1.998     C6(AA)=   29.36
Z=  6 CN= 2.999     C6(AA)=   25.78
Z=  6 CN= 3.984     C6(AA)=   18.21

#           XYZ [au]              R0(AA) [Ang.]  CN          C6(AA)     C8(AA)   C10(AA) [au]
  1  -4.78726  -0.55724   1.34766   c   0.610  4.017        18.3       529.6     18762.5
  2  -4.84455  -1.84642  -0.25780   h   0.395  0.998         3.1        37.4       553.4
  3  -4.85089  -1.69296   3.06463   h   0.395  0.999         3.1        37.4       553.3
  4  -6.49012   0.59707   1.29277   h   0.395  0.998         3.1        37.4       553.4
  5  -2.40351   1.05382   1.27435   c   0.610  4.028        18.3       529.3     18753.8
  6  -2.40189   2.37457   2.86165   h   0.395  1.003         3.1        37.3       553.0
  7  -2.39359   2.20700  -0.43809   h   0.395  1.003         3.1        37.3       553.0
  8  -0.00026  -0.52613   1.35985   c   0.610  4.060        18.3       528.7     18732.1
  9  -0.00030  -1.67662   3.07768   h   0.395  1.003         3.1        37.3       552.9
 10  -0.00069  -1.85328  -0.22564   h   0.395  1.003         3.1        37.3       553.0
 11   2.40353   1.05330   1.27379   c   0.610  4.028        18.3       529.3     18753.8
 12   2.40179   2.37469   2.86049   h   0.395  1.003         3.1        37.3       553.0
 13   2.39360   2.20566  -0.43915   h   0.395  1.003         3.1        37.3       553.0
 14   4.78744  -0.55736   1.34790   c   0.610  4.017        18.3       529.6     18762.5
 15   4.84511  -1.84773  -0.25658   h   0.395  0.998         3.1        37.4       553.4
 16   6.48990   0.59763   1.29182   h   0.395  0.998         3.1        37.4       553.4
 17   4.85198  -1.69170   3.06576   h   0.395  0.999         3.1        37.4       553.3
 18   4.78773   0.55751   8.52852   c   0.610  4.017        18.3       529.6     18762.5
 19   4.85308   1.69098   6.81015   h   0.395  0.999         3.1        37.4       553.3
 20   4.84537   1.84858  10.13242   h   0.395  0.998         3.1        37.4       553.4
 21   6.48977  -0.59805   8.58561   h   0.395  0.998         3.1        37.4       553.4
 22   2.40322  -1.05232   8.60280   c   0.610  4.028        18.3       529.3     18753.8
 23   2.39294  -2.20454  10.31583   h   0.395  1.003         3.1        37.3       553.0
 24   2.40109  -2.37391   7.01622   h   0.395  1.003         3.1        37.3       553.0
 25  -0.00008   0.52767   8.51659   c   0.610  4.060        18.3       528.7     18732.1
 26  -0.00038   1.85485  10.10205   h   0.395  1.003         3.1        37.3       553.0
 27   0.00006   1.67809   6.79870   h   0.395  1.003         3.1        37.3       552.9
 28  -2.40336  -1.05241   8.60215   c   0.610  4.028        18.3       529.3     18753.8
 29  -2.39319  -2.20534  10.31471   h   0.395  1.003         3.1        37.3       553.0
 30  -2.40127  -2.37337   7.01503   h   0.395  1.003         3.1        37.3       553.0
 31  -4.78767   0.55773   8.52849   c   0.610  4.017        18.3       529.6     18762.5
 32  -4.85228   1.69257   6.81096   h   0.395  0.999         3.1        37.4       553.3
 33  -6.48994  -0.59746   8.58426   h   0.395  0.998         3.1        37.4       553.4
 34  -4.84538   1.84763  10.13336   h   0.395  0.998         3.1        37.4       553.4

molecular C6(AA) [au] =      7191.10

           DFT-D V3(BJ)
 DF pbe                                               
 parameters
 s6       :    1.0000
 s8       :    0.7875
 a1       :    0.4289
 a2       :    4.4407
 k1-k3    :   16.0000    1.3333   -4.0000
 
 Edisp /kcal,au:   -19.2050 -0.03060511

 E6    /kcal :   -14.1665
 E8    /kcal :    -5.0385
 % E8        : 26.24
 nuclear repulsion energy                  =     577.943300740
 empirical dispersive energy correction    =      -0.030605110
 nuclear repulsion + dispersion correction =     577.912695630


         -----------------
         -S,T+V- integrals
         -----------------

 1e-integrals will be neglected if expon. factor < 0.285638E-12
 Difference densities >>NOT<< switched on in parallel ridft!

 DIIS switched on: error vector is FDS-SDF
 Max. Iterations for DIIS is     :   4
 DIIS matrix (see manual) 
    Scaling factor of diagonals  :  1.200
    threshold for scaling factor :  0.000

 scf convergence criterion : increment of total energy < .1000000D-06
                  and increment of one-electron energy < .1000000D-03

  MOs are in ASCII format !


 automatic virtual orbital shift switched on 
      shift if e(lumo)-e(homo) < 0.10000000    


 reading orbital data $scfmo  from file mos
 orbital characterization : expanded
 mo provided and orthogonalized by Cholesky decomposition

 DSCF restart information will be dumped onto file mos


 Starting SCF iterations

          Overall gridpoints after grid construction =         76387

 ITERATION  ENERGY          1e-ENERGY        2e-ENERGY     NORM[dD(SAO)]  TOL
   1  -393.77484311741    -1660.0273139     688.33977515    0.000D+00 0.285D-11
                            Exc = -60.6438354292     Coul =  748.983610578    
                              N = 84.000731279    
                            current damping = 0.700
 
          max. resid. norm for Fia-block=  4.489D-01 for orbital     12a         
          max. resid. fock norm         =  3.946D+01 for orbital    914a         

 ITERATION  ENERGY          1e-ENERGY        2e-ENERGY     NORM[dD(SAO)]  TOL
   2  -394.86271978688    -1671.4480307     698.67261532    0.000D+00 0.285D-11
                            Exc = -61.9211660081     Coul =  760.593781326    
                              N = 84.000532076    
                            current damping = 0.650
 
          Norm of current diis error:  3.5994    
          max. resid. norm for Fia-block=  1.029D-01 for orbital      5a         
          max. resid. fock norm         =  1.177D-01 for orbital     11a         

 ITERATION  ENERGY          1e-ENERGY        2e-ENERGY     NORM[dD(SAO)]  TOL
   3  -395.07442342549    -1673.4919907     700.50487164    0.000D+00 0.285D-11
                            Exc = -62.3006814595     Coul =  762.805553097    
                              N = 84.000379771    
                            current damping = 0.550
 
          Norm of current diis error:  1.7307    
          max. resid. norm for Fia-block=  4.611D-02 for orbital     19a         
          max. resid. fock norm         =  5.000D-02 for orbital     11a         

 ITERATION  ENERGY          1e-ENERGY        2e-ENERGY     NORM[dD(SAO)]  TOL
   4  -395.13522537782    -1676.0073644     702.95944343    0.000D+00 0.285D-11
                            Exc = -62.6112811798     Coul =  765.570724613    
                              N = 84.000289245    
                            current damping = 0.450
 
          Norm of current diis error: 0.62038    
          max. resid. norm for Fia-block=  1.697D-02 for orbital     11a         
          max. resid. fock norm         =  1.943D-02 for orbital     11a         

 ITERATION  ENERGY          1e-ENERGY        2e-ENERGY     NORM[dD(SAO)]  TOL
   5  -395.14423456624    -1676.1680359     703.11110567    0.000D+00 0.285D-11
                            Exc = -62.6866323125     Coul =  765.797737981    
                              N = 84.000231376    
                            current damping = 0.300
 
          Norm of current diis error: 0.24392    
          max. resid. norm for Fia-block=  7.217D-03 for orbital     19a         
          max. resid. fock norm         =  7.387D-03 for orbital     19a         
          mo-orthogonalization: Cholesky decomposition

 ITERATION  ENERGY          1e-ENERGY        2e-ENERGY     NORM[dD(SAO)]  TOL
   6  -395.14559792620    -1676.8661326     703.80783906    0.000D+00 0.285D-11
                            Exc = -62.7530809408     Coul =  766.560919999    
                              N = 84.000214388    
                            current damping = 0.200
 
          Norm of current diis error: 0.83011E-01
          max. resid. norm for Fia-block=  2.018D-03 for orbital     42a         
          max. resid. fock norm         =  3.383D-03 for orbital   1030a         

 ITERATION  ENERGY          1e-ENERGY        2e-ENERGY     NORM[dD(SAO)]  TOL
   7  -395.14572428177    -1676.6239830     703.56556314    0.000D+00 0.285D-11
                            Exc = -62.7451403655     Coul =  766.310703502    
                              N = 84.000204492    
                            current damping = 0.250
 
          Norm of current diis error: 0.37902E-01
          max. resid. norm for Fia-block=  6.106D-04 for orbital     28a         
          max. resid. fock norm         =  1.693D-03 for orbital   1030a         

 ITERATION  ENERGY          1e-ENERGY        2e-ENERGY     NORM[dD(SAO)]  TOL
   8  -395.14574919803    -1676.6912048     703.63275997    0.000D+00 0.285D-11
                            Exc = -62.7490069695     Coul =  766.381766941    
                              N = 84.000203754    
                            current damping = 0.300
 
          Norm of current diis error: 0.92516E-02
          max. resid. norm for Fia-block=  2.054D-04 for orbital     29a         
          max. resid. fock norm         =  5.009D-04 for orbital   1030a         

 ITERATION  ENERGY          1e-ENERGY        2e-ENERGY     NORM[dD(SAO)]  TOL
   9  -395.14575063063    -1676.7172123     703.65876600    0.000D+00 0.285D-11
                            Exc = -62.7513165519     Coul =  766.410082547    
                              N = 84.000203911    
                            current damping = 0.150
 
          Norm of current diis error: 0.34703E-02
          max. resid. norm for Fia-block=  5.065D-05 for orbital     29a         
          max. resid. fock norm         =  1.437D-04 for orbital   1030a         

 ITERATION  ENERGY          1e-ENERGY        2e-ENERGY     NORM[dD(SAO)]  TOL
  10  -395.14575085948    -1676.7112370     703.65279048    0.000D+00 0.285D-11
                            Exc = -62.7508311706     Coul =  766.403621647    
                              N = 84.000203649    
                            current damping = 0.200
 
          Norm of current diis error: 0.21958E-03
          max. resid. norm for Fia-block=  5.903D-06 for orbital     42a         
          max. resid. fock norm         =  9.907D-06 for orbital   1030a         
          mo-orthogonalization: Cholesky decomposition

 ENERGY CONVERGED !

          Overall gridpoints after grid construction =        294205

 ITERATION  ENERGY          1e-ENERGY        2e-ENERGY     NORM[dD(SAO)]  TOL
  11  -395.14561304985    -1676.7111236     703.65281495    0.000D+00 0.285D-11
                            Exc = -62.7506781012     Coul =  766.403493047    
                              N = 83.999937990    
                            current damping = 0.250
 
          Norm of current diis error: 0.16462E-03
          max. resid. norm for Fia-block=  2.095D-06 for orbital     38a         
          max. resid. fock norm         =  3.320D-06 for orbital    900a         

 End of SCF iterations

   convergence criteria satisfied after    11 iterations


                  ------------------------------------------ 
                 |  total energy      =   -395.14561304985  |
                  ------------------------------------------ 
                 :  kinetic energy    =    393.36023372619  :
                 :  potential energy  =   -788.50584677603  :
                 :  virial theorem    =      1.99548171797  :
                 :  wavefunction norm =      1.00000000000  :
                  .......................................... 


 orbitals $scfmo  will be written to file mos

    irrep                 38a         39a         40a         41a         42a   
 eigenvalues H         -0.28727    -0.28270    -0.27712    -0.27589    -0.27080
            eV          -7.8171     -7.6928     -7.5409     -7.5075     -7.3689
 occupation              2.0000      2.0000      2.0000      2.0000      2.0000 

    irrep                 43a         44a         45a         46a         47a   
 eigenvalues H          0.00046     0.00569     0.01211     0.01642     0.02767
            eV           0.0125      0.1549      0.3294      0.4468      0.7531
 
 
 
 
 ==============================================================================
                           electrostatic moments
 ==============================================================================

 reference point for electrostatic moments:    0.00000   0.00000   0.00000

 
              nuc           elec       ->  total
 ------------------------------------------------------------------------------
                          charge      
 ------------------------------------------------------------------------------
          84.000000     -84.000000      -0.000000
 
 ------------------------------------------------------------------------------
                       dipole moment  
 ------------------------------------------------------------------------------
   x      -0.001077       0.001090       0.000012
   y       0.035343      -0.035354      -0.000011
   z     414.809395    -414.809405      -0.000010
 
   | dipole moment | =     0.0000 a.u. =     0.0000 debye 
 
 ------------------------------------------------------------------------------
                     quadrupole moment
 ------------------------------------------------------------------------------
  xx    1091.250079   -1145.290277     -54.040199
  yy     118.441638    -171.825916     -53.384278
  zz    3202.005522   -3253.574267     -51.568745
  xy      -0.020296       0.020257      -0.000040
  xz       0.005016      -0.005051      -0.000035
  yz     -21.185884      20.996299      -0.189586
 
     1/3  trace=     -52.997741
     anisotropy=       2.241666
 
 ==============================================================================
 


    ------------------------------------------------------------------------
         total  cpu-time :  7 minutes and 34 seconds
         total wall-time :  1 minutes and 56 seconds
    ------------------------------------------------------------------------

   ****  ridft : all done  ****


    2019-03-12 22:40:23.029 

