
 eiger (gplogin2.gp.local) : TURBOMOLE V7.3 ( 22118 ) 1 Jul 2018 at 20:38:15
 Copyright (C) 2018 TURBOMOLE GmbH, Karlsruhe


    2019-08-06 11:23:58.060 

                                                                                
  
 HOMO-LUMO Separation
   HOMO:   420.   420 a     -0.18618836 H =     -5.06645 eV
   LUMO:   421.   421 a     -0.14576272 H =     -3.96641 eV
   Gap :                    +0.04042564 H =     +1.10004 eV
 
Number of MOs=   7570, Electrons=    840.00, Symmetry: c1   
 
   Nr.   Orbital    Occupation       Energy
  437.   437 a                     -0.069713 H =        -1.897 eV
  436.   436 a                     -0.069985 H =        -1.904 eV
  435.   435 a                     -0.070318 H =        -1.913 eV
  434.   434 a                     -0.072313 H =        -1.968 eV
  433.   433 a                     -0.073091 H =        -1.989 eV
  432.   432 a                     -0.075008 H =        -2.041 eV
  431.   431 a                     -0.076005 H =        -2.068 eV
  430.   430 a                     -0.076670 H =        -2.086 eV
  429.   429 a                     -0.085598 H =        -2.329 eV
  428.   428 a                     -0.104401 H =        -2.841 eV
  427.   427 a                     -0.105640 H =        -2.875 eV
  426.   426 a                     -0.106244 H =        -2.891 eV
  425.   425 a                     -0.118374 H =        -3.221 eV
  424.   424 a                     -0.119229 H =        -3.244 eV
  423.   423 a                     -0.144900 H =        -3.943 eV
  422.   422 a                     -0.144993 H =        -3.945 eV
  421.   421 a                     -0.145763 H =        -3.966 eV
  420.   420 a        2.000        -0.186188 H =        -5.066 eV
  419.   419 a        2.000        -0.187036 H =        -5.090 eV
  418.   418 a        2.000        -0.194029 H =        -5.280 eV
  417.   417 a        2.000        -0.194266 H =        -5.286 eV
  416.   416 a        2.000        -0.204775 H =        -5.572 eV
  415.   415 a        2.000        -0.205175 H =        -5.583 eV
  414.   414 a        2.000        -0.205720 H =        -5.598 eV
  413.   413 a        2.000        -0.206483 H =        -5.619 eV
  412.   412 a        2.000        -0.206704 H =        -5.625 eV
  411.   411 a        2.000        -0.209928 H =        -5.712 eV
  410.   410 a        2.000        -0.217730 H =        -5.925 eV
  409.   409 a        2.000        -0.219361 H =        -5.969 eV
  408.   408 a        2.000        -0.219938 H =        -5.985 eV
  407.   407 a        2.000        -0.223439 H =        -6.080 eV
  406.   406 a        2.000        -0.224054 H =        -6.097 eV
  405.   405 a        2.000        -0.235700 H =        -6.414 eV


    ------------------------------------------------------------------------
         total  cpu-time :  24.73 seconds
         total wall-time :  24.97 seconds
    ------------------------------------------------------------------------

   ****  eiger : all done  ****


    2019-08-06 11:24:23.014 

