
 eiger (gplogin2.gp.local) : TURBOMOLE V7.3 ( 22118 ) 1 Jul 2018 at 20:38:15
 Copyright (C) 2018 TURBOMOLE GmbH, Karlsruhe


    2019-05-14 12:32:52.084 

                                                                                
  
Total energy =   -404.4879726288 H =    -11006.6840184 eV
 
 HOMO-LUMO Separation
   HOMO:    37.    37 a     -0.41604030 H =    -11.32104 eV
   LUMO:    38.    38 a     +0.09619626 H =     +2.61763 eV
   Gap :                    +0.51223656 H =    +13.93867 eV
 
Number of MOs=   1005, Electrons=     74.00, Symmetry: c1   
 
   Nr.   Orbital    Occupation       Energy
   54.    54 a                     +0.241044 H =        +6.559 eV
   53.    53 a                     +0.237858 H =        +6.472 eV
   52.    52 a                     +0.229967 H =        +6.258 eV
   51.    51 a                     +0.225822 H =        +6.145 eV
   50.    50 a                     +0.204213 H =        +5.557 eV
   49.    49 a                     +0.202365 H =        +5.507 eV
   48.    48 a                     +0.201234 H =        +5.476 eV
   47.    47 a                     +0.190175 H =        +5.175 eV
   46.    46 a                     +0.179148 H =        +4.875 eV
   45.    45 a                     +0.175790 H =        +4.783 eV
   44.    44 a                     +0.166780 H =        +4.538 eV
   43.    43 a                     +0.154604 H =        +4.207 eV
   42.    42 a                     +0.149919 H =        +4.079 eV
   41.    41 a                     +0.146724 H =        +3.993 eV
   40.    40 a                     +0.124971 H =        +3.401 eV
   39.    39 a                     +0.120985 H =        +3.292 eV
   38.    38 a                     +0.096196 H =        +2.618 eV
   37.    37 a        2.000        -0.416040 H =       -11.321 eV
   36.    36 a        2.000        -0.427447 H =       -11.631 eV
   35.    35 a        2.000        -0.442782 H =       -12.049 eV
   34.    34 a        2.000        -0.455437 H =       -12.393 eV
   33.    33 a        2.000        -0.457495 H =       -12.449 eV
   32.    32 a        2.000        -0.472162 H =       -12.848 eV
   31.    31 a        2.000        -0.491178 H =       -13.366 eV
   30.    30 a        2.000        -0.521999 H =       -14.204 eV
   29.    29 a        2.000        -0.529596 H =       -14.411 eV
   28.    28 a        2.000        -0.546354 H =       -14.867 eV
   27.    27 a        2.000        -0.550728 H =       -14.986 eV
   26.    26 a        2.000        -0.564047 H =       -15.349 eV
   25.    25 a        2.000        -0.588824 H =       -16.023 eV
   24.    24 a        2.000        -0.591143 H =       -16.086 eV
   23.    23 a        2.000        -0.595299 H =       -16.199 eV
   22.    22 a        2.000        -0.612431 H =       -16.665 eV


    ------------------------------------------------------------------------
         total  cpu-time :   0.46 seconds
         total wall-time :   0.47 seconds
    ------------------------------------------------------------------------

   ****  eiger : all done  ****


    2019-05-14 12:32:52.537 

