           Doing BLAS/Lapack in the master proc. with  8 CPUs.
           SMPCPUS    set: Shared-memory Parallelization with   8 CPUs.

           SMP Parallelization Reference:
           C. van Wullen, J. Comput. Chem. 32 (2011) 1195--1201
 operating system is UNIX !

 ridft (c-18-414.gp.local) : TURBOMOLE V7.2 ( 21454 ) 4 Oct 2017 at 12:48:15
 Copyright (C) 2017 TURBOMOLE GmbH, Karlsruhe


    2018-04-24 21:12:14.520 



                                  r i d f t

                        DFT program with RI approximation 
                                for coulomb part 




                                                 
                                 References:     
                                                 
          TURBOMOLE:                             
              R. Ahlrichs, M. Baer, M. Haeser, H. Horn, and
              C. Koelmel
              Electronic structure calculations on workstation
              computers: the program system TURBOMOLE
              Chem. Phys. Lett. 162: 165 (1989)
          Density Functional:                              
              O. Treutler and R. Ahlrichs                      
              Efficient Molecular Numerical Integration Schemes
              J. Chem. Phys. 102: 346 (1995)                   
          Parallel Version:                                
              Performance of parallel TURBOMOLE for Density    
              Functional Calculations                          
              M. v. Arnim and R. Ahlrichs                      
              J. Comp. Chem. 19: 1746 (1998)                   
          RI-J Method:                                     
              Auxiliary Basis Sets to approximate Coulomb      
              Potentials                                       
              Chem. Phys. Lett. 240: 283 (1995)                
              K. Eichkorn, O. Treutler, H. Oehm, M. Haeser     
              and R. Ahlrichs                                  
              Chem. Phys. Lett. 242: 652 (1995)                
                                                           
              Auxiliary Basis Sets for Main Row Atoms and their
              Use to approximate Coulomb Potentials            
              K. Eichkorn, F. Weigend, O. Treutler and         
              R. Ahlrichs                                      
              Theo. Chem. Acc. 97: 119 (1997)                   
                                                           
              Accurate Coulomb-fitting basis sets for H to Rn 
              F. Weigend                                        
              Phys. Chem. Chem. Phys. 8: 1057 (2006)            
                                                           
          Multipole accelerated RI-J (MARI-J):             
              Fast evaluation of the Coulomb potential for     
              electron densities using multipole accelerated   
              resolution of identity approximation             
              M. Sierka, A. Hogekamp and R. Ahlrichs           
              J. Chem. Phys. 118: 9136 (2003)                  
          RI-JK Method:                                     
              A fully direct RI-HF algorithm: Implementation,
              optimised auxiliary basis sets, demonstration of
              accuracy and efficiency                         
              F. Weigend                                      
              Phys. Chem. Chem. Phys. 4: 4285 (2002)           
          Two-component HF and DFT with spin-orbit coupling:  
              Self-consistent treatment of spin-orbit         
              interactions with efficient Hartree-Fock and    
              density functional methods                      
              M. K. Armbruster, F. Weigend, C. van Wüllen and 
              W. Klopper                                      
              Phys. Chem. Chem. Phys. 10: 1748 (2008)         
          Relativistic all-electron 2c calculations           
              An efficient implementation of two-component    
              relativistic exact-decoupling methods for large 
              molecules                                       
              D. Peng, N. Middendorf, F. Weigend, M. Reiher   
              J. Chem. Phys. 138, 184105 (2013)               
                                         




              +--------------------------------------------------+
              |      general information about current run       |
              +--------------------------------------------------+

 

 DENSITY CONVERGENCE CHECK SWITCHED ON !
 SCF CONVERGENCE IF RMS(delta[D]) <     0.1000000000E-06

 PBE functional
 exchange:    LDA + PBE
 correlation: LDA (PW) + PBE
 A DFT calculation using the RI-J approximation will be carried out.
 Allocatable memory for RI due to $ricore (MB):                   500


              +--------------------------------------------------+
              | Atomic coordinate, charge and isotop information |
              +--------------------------------------------------+

                    atomic coordinates            atom    charge  isotop
          1.51161854   -1.93139770    1.29963450    c      6.000     0
          1.61298684   -2.12036912   -0.75213813    h      1.000     0
          2.81834152   -3.29600242    2.11596491    h      1.000     0
          2.11061056    0.80304439    2.07806012    c      6.000     0
          3.47358555    1.68213035    0.81343746    h      1.000     0
          2.93960050    0.83114811    3.96291360    h      1.000     0
         -0.46214983    2.20283408    2.08432473    c      6.000     0
         -0.48769599    3.78108335    0.76595009    h      1.000     0
         -0.84811759    2.98009021    3.95138799    h      1.000     0
         -2.45421412    0.19617607    1.39709153    c      6.000     0
         -2.78462631    0.19888116   -0.63873773    h      1.000     0
         -4.26460974    0.52542168    2.31899335    h      1.000     0
         -1.22242591   -2.30559506    2.14730828    c      6.000     0
         -2.12488211   -3.94504334    1.29067023    h      1.000     0
         -1.29638736   -2.54221704    4.19560788    h      1.000     0
          0.09419557    0.17802657   10.61322607    c      6.000     0
         -0.08786858   -0.10937427   13.47737149    c      6.000     0
          1.78777223   -0.13860116   14.33220275    h      1.000     0
         -1.14408332    1.45510070   14.30589340    h      1.000     0
         -1.04627096   -1.86429883   13.97880954    h      1.000     0
          1.44356064    2.64771932    9.97898696    c      6.000     0
          1.59761026    2.89999611    7.93868391    h      1.000     0
          0.41654667    4.26284639   10.74527352    h      1.000     0
          3.34765728    2.66784568   10.76933279    h      1.000     0
         -2.56089197    0.21548972    9.48445576    c      6.000     0
         -2.49110139    0.43694661    7.43627804    h      1.000     0
         -3.66127862    1.77909365   10.25611771    h      1.000     0
         -3.56226363   -1.53777332    9.90270751    h      1.000     0
          1.58311044   -2.03953852    9.52221504    c      6.000     0
          0.64727966   -3.82909166    9.93841427    h      1.000     0
          1.76233806   -1.87478697    7.47538694    h      1.000     0
          3.48175245   -2.11022304   10.32298357    h      1.000     0
 
       center of nuclear mass  :   -0.00251892   -0.01032329    6.27092073
       center of nuclear charge:   -0.00112895   -0.00748189    6.31612415

              +--------------------------------------------------+
              |               basis set information              |
              +--------------------------------------------------+

              we will work with the 1s 3p 5d 7f 9g ... basis set
              ...i.e. with spherical basis functions...

   type   atoms  prim   cont   basis
   ---------------------------------------------------------------------------
    c       10     50     30   cc-pVTZ   [4s3p2d1f|18s5p2d1f]
    h       22     16     14   cc-pVTZ   [3s2p1d|5s2p1d]
   ---------------------------------------------------------------------------
   total:   32    852    608
   ---------------------------------------------------------------------------

   total number of primitive shells          :   34
   total number of contracted shells         :  232
   total number of cartesian basis functions :  680
   total number of SCF-basis functions       :  608


 integral neglect threshold       :  0.49E-13
 integral storage threshold THIZE :  0.10E-04
 integral storage threshold THIME :         5

 RI-J AUXILIARY BASIS SET information:

              we will work with the 1s 3p 5d 7f 9g ... basis set
              ...i.e. with spherical basis functions...

   type   atoms  prim   cont   basis
   ---------------------------------------------------------------------------
    c       10     70     49   cc-pVTZ   [6s4p3d1f1g|12s5p4d2f1g]
    h       22     16     11   cc-pVTZ   [3s1p1d|5s2p1d]
   ---------------------------------------------------------------------------
   total:   32   1052    732
   ---------------------------------------------------------------------------

   total number of primitive shells          :   32
   total number of contracted shells         :  260
   total number of cartesian basis functions :  874
   total number of SCF-basis functions       :  732


 symmetry group of the molecule :   c1 

 the group has the following generators :
   c1(z)

    1 symmetry operations found

 there are 1 real representations :   a   

 maximum number of shells which are related by symmetry :  1


    mo occupation :
   irrep   mo's   occupied
    a      608       41
 
 number of basis functions   :                    608
 number of occupied orbitals :                     41
 
  
           ------------------
           density functional
           ------------------
 PBE functional
 exchange:    LDA + PBE
 correlation: LDA (PW) + PBE

 iterations will be done with small grid
  
 spherical integration : Lebedev's spherical grid
 spherical gridsize    :                     5
    i.e. gridpoints    :                   590
 value for diffuse not defined
 radial integration    : Chebyshev 2nd kind (scaling 3)
 radial gridsize       :                     8
 integration cells     :                    32
 partition function    : becke
 partition sharpness   :                     3
  

 biggest AO integral is expected to be     3.593180334
  
           ------------------------
               RI-J - INFORMATION
           ------------------------
 Contributions to RI integral batches: 
  neglected integral batches:                  5574
  direct contribution:                         8638
  memory contribution:                 12816
 Memory core needed for (P|Q) and Cholesky      5 MByte
 Memory core minimum needed except of (P|Q)     1 MByte
 Total minimum memory core needed (sum)         5 MByte
  
 ****************************************
 Memory allocated for RI-J   447 MByte
 ****************************************
                                            

          ------------------------
          nuclear repulsion energy  :   569.428036208    
          ------------------------


         -----------------
         -S,T+V- integrals
         -----------------

 1e-integrals will be neglected if expon. factor < 0.491465E-14
 Difference densities >>NOT<< switched on in parallel ridft!

 DIIS switched on: error vector is FDS-SDF
 Max. Iterations for DIIS is     :   4
 DIIS matrix (see manual) 
    Scaling factor of diagonals  :  1.200
    threshold for scaling factor :  0.000

 scf convergence criterion : increment of total energy < .1000000D-08
                  and increment of one-electron energy < .1000000D-05

  MOs are in ASCII format !


 automatic virtual orbital shift switched on 
      shift if e(lumo)-e(homo) < 0.10000000    


 reading orbital data $scfmo  from file mos
 orbital characterization : expanded
 mo provided and orthogonalized by Cholesky decomposition

 DSCF restart information will be dumped onto file mos


 Starting SCF iterations

          Overall gridpoints after grid construction =        136092

 ITERATION  ENERGY          1e-ENERGY        2e-ENERGY     RMS[dD(SAO)]   TOL
   1  -392.59639117011    -1641.5658201     679.54139272    0.000D+00 0.490D-13
                            Exc = -60.0802969196     Coul =  739.621689640    
                              N = 82.000215321    
                            current damping = 0.700
 
          max. resid. norm for Fia-block=  2.353D-01 for orbital     16a         
          max. resid. fock norm         =  4.295D+00 for orbital    598a         

 ITERATION  ENERGY          1e-ENERGY        2e-ENERGY     RMS[dD(SAO)]   TOL
   2  -393.60417771463    -1653.3164853     690.28427134    0.199D-02 0.490D-13
                            Exc = -61.2472882273     Coul =  751.531559563    
                              N = 82.000181271    
                            current damping = 0.650
 
          Norm of current diis error:  2.4423    
          max. resid. norm for Fia-block=  1.029D-01 for orbital     11a         
          max. resid. fock norm         =  1.212D-01 for orbital     11a         

 ITERATION  ENERGY          1e-ENERGY        2e-ENERGY     RMS[dD(SAO)]   TOL
   3  -393.80756710781    -1655.1190923     691.88348894    0.121D-02 0.490D-13
                            Exc = -61.5941221303     Coul =  753.477611067    
                              N = 82.000158025    
                            current damping = 0.550
 
          Norm of current diis error:  1.2167    
          max. resid. norm for Fia-block=  4.669D-02 for orbital     11a         
          max. resid. fock norm         =  5.429D-02 for orbital     11a         

 ITERATION  ENERGY          1e-ENERGY        2e-ENERGY     RMS[dD(SAO)]   TOL
   4  -393.86794298710    -1657.8383940     694.54241485    0.598D-03 0.490D-13
                            Exc = -61.8848974639     Coul =  756.427312317    
                              N = 82.000144765    
                            current damping = 0.450
 
          Norm of current diis error: 0.43474    
          max. resid. norm for Fia-block=  1.867D-02 for orbital     12a         
          max. resid. fock norm         =  2.158D-02 for orbital     12a         

 ITERATION  ENERGY          1e-ENERGY        2e-ENERGY     RMS[dD(SAO)]   TOL
   5  -393.87696661525    -1657.9360253     694.63102244    0.316D-03 0.490D-13
                            Exc = -61.9574665084     Coul =  756.588488944    
                              N = 82.000137454    
                            current damping = 0.300
 
          Norm of current diis error: 0.18474    
          max. resid. norm for Fia-block=  6.492D-03 for orbital     22a         
          max. resid. fock norm         =  7.120D-03 for orbital     22a         
          mo-orthogonalization: Cholesky decomposition

 ITERATION  ENERGY          1e-ENERGY        2e-ENERGY     RMS[dD(SAO)]   TOL
   6  -393.87842220111    -1658.6536503     695.34719187    0.135D-03 0.490D-13
                            Exc = -62.0162492692     Coul =  757.363441135    
                              N = 82.000136013    
                            current damping = 0.200
 
          Norm of current diis error: 0.66839E-01
          max. resid. norm for Fia-block=  2.149D-03 for orbital     12a         
          max. resid. fock norm         =  3.470D-03 for orbital    599a         

 ITERATION  ENERGY          1e-ENERGY        2e-ENERGY     RMS[dD(SAO)]   TOL
   7  -393.87857966858    -1658.4659339     695.15931803    0.525D-04 0.490D-13
                            Exc = -62.0132814698     Coul =  757.172599498    
                              N = 82.000134722    
                            current damping = 0.250
 
          Norm of current diis error: 0.19788E-01
          max. resid. norm for Fia-block=  4.967D-04 for orbital     20a         
          max. resid. fock norm         =  8.173D-04 for orbital    599a         

 ITERATION  ENERGY          1e-ENERGY        2e-ENERGY     RMS[dD(SAO)]   TOL
   8  -393.87859255305    -1658.5082380     695.20160924    0.838D-05 0.490D-13
                            Exc = -62.0156413001     Coul =  757.217250542    
                              N = 82.000134853    
                            current damping = 0.300
 
          Norm of current diis error: 0.39706E-02
          max. resid. norm for Fia-block=  1.473D-04 for orbital     17a         
          max. resid. fock norm         =  1.592D-04 for orbital     17a         

 ITERATION  ENERGY          1e-ENERGY        2e-ENERGY     RMS[dD(SAO)]   TOL
   9  -393.87859299367    -1658.5265080     695.21987876    0.224D-05 0.490D-13
                            Exc = -62.0171252245     Coul =  757.237003983    
                              N = 82.000134755    
                            current damping = 0.150
 
          Norm of current diis error: 0.19869E-02
          max. resid. norm for Fia-block=  4.814D-05 for orbital     17a         
          max. resid. fock norm         =  6.047D-05 for orbital    605a         

 ITERATION  ENERGY          1e-ENERGY        2e-ENERGY     RMS[dD(SAO)]   TOL
  10  -393.87859313316    -1658.5209944     695.21436506    0.945D-06 0.490D-13
                            Exc = -62.0167138608     Coul =  757.231078924    
                              N = 82.000134777    
                            current damping = 0.200
 
          Norm of current diis error: 0.18633E-03
          max. resid. norm for Fia-block=  7.673D-06 for orbital     34a         
          max. resid. fock norm         =  1.797D-05 for orbital      5a         
          mo-orthogonalization: Cholesky decomposition

 ITERATION  ENERGY          1e-ENERGY        2e-ENERGY     RMS[dD(SAO)]   TOL
  11  -393.87859313337    -1658.5207897     695.21416035    0.153D-06 0.490D-13
                            Exc = -62.0167181803     Coul =  757.230878526    
                              N = 82.000134774    
                            current damping = 0.050
 
          Norm of current diis error: 0.16901E-03
          max. resid. norm for Fia-block=  3.243D-06 for orbital     35a         
          max. resid. fock norm         =  9.483D-06 for orbital      5a         

 DENSITY CONVERGED !


 ITERATION  ENERGY          1e-ENERGY        2e-ENERGY     RMS[dD(SAO)]   TOL
  12  -393.87859313429    -1658.5209819     695.21435259    0.742D-07 0.490D-13
                            Exc = -62.0167278711     Coul =  757.231080466    
                              N = 82.000134775    
                            current damping = 0.100
 
          Norm of current diis error: 0.33180E-04
          max. resid. norm for Fia-block=  1.003D-06 for orbital     34a         
          max. resid. fock norm         =  1.738D-06 for orbital      5a         

 DENSITY CONVERGED !


 ITERATION  ENERGY          1e-ENERGY        2e-ENERGY     RMS[dD(SAO)]   TOL
  13  -393.87859313432    -1658.5209667     695.21433733    0.175D-07 0.490D-13
                            Exc = -62.0167239270     Coul =  757.231061254    
                              N = 82.000134775    
                            current damping = 0.150
 
          Norm of current diis error: 0.14105E-04
          max. resid. norm for Fia-block=  3.582D-07 for orbital     34a         
          max. resid. fock norm         =  5.290D-07 for orbital    599a         

 DENSITY CONVERGED !


 ITERATION  ENERGY          1e-ENERGY        2e-ENERGY     RMS[dD(SAO)]   TOL
  14  -393.87859313433    -1658.5209323     695.21430292    0.688D-08 0.490D-13
                            Exc = -62.0167227141     Coul =  757.231025637    
                              N = 82.000134774    
                            current damping = 0.050
 
          Norm of current diis error: 0.55955E-05
          max. resid. norm for Fia-block=  1.301D-07 for orbital     33a         
          max. resid. fock norm         =  1.641D-07 for orbital     99a         

 ENERGY & DENSITY CONVERGED !

          Overall gridpoints after grid construction =        454570

 ITERATION  ENERGY          1e-ENERGY        2e-ENERGY     RMS[dD(SAO)]   TOL
  15  -393.87857461287    -1658.5209630     695.21435219    0.351D-08 0.490D-13
                            Exc = -62.0167061693     Coul =  757.231058364    
                              N = 82.000000117    
                            current damping = 0.100
 
          Norm of current diis error: 0.22518E-05
          max. resid. norm for Fia-block=  3.581D-08 for orbital     27a         
          max. resid. fock norm         =  4.307D-08 for orbital     99a         

 End of SCF iterations

   convergence criteria satisfied after    15 iterations


                  ------------------------------------------ 
                 |  total energy      =   -393.87857461287  |
                  ------------------------------------------ 
                 :  kinetic energy    =    391.32428606702  :
                 :  potential energy  =   -785.20286067990  :
                 :  virial theorem    =      1.99351503557  :
                 :  wavefunction norm =      1.00000000000  :
                  .......................................... 


 <geterg> : there is no data group $energy 


 <skperg> : $end is missing 


 orbitals $scfmo  will be written to file mos

    irrep                 37a         38a         39a         40a         41a   
 eigenvalues H         -0.28591    -0.28090    -0.28060    -0.27348    -0.27003
            eV          -7.7802     -7.6436     -7.6357     -7.4418     -7.3479
 occupation              2.0000      2.0000      2.0000      2.0000      2.0000 

    irrep                 42a         43a         44a         45a         46a   
 eigenvalues H          0.00106     0.02209     0.04306     0.04566     0.04591
            eV           0.0288      0.6011      1.1718      1.2425      1.2494
 
 
 
 
 ==============================================================================
                           electrostatic moments
 ==============================================================================

 reference point for electrostatic moments:    0.00000   0.00000   0.00000

 
              nuc           elec       ->  total
 ------------------------------------------------------------------------------
                          charge      
 ------------------------------------------------------------------------------
          82.000000     -82.000000       0.000000
 
 ------------------------------------------------------------------------------
                       dipole moment  
 ------------------------------------------------------------------------------
   x      -0.092574       0.087814      -0.004760
   y      -0.613515       0.603338      -0.010177
   z     517.922180    -517.930553      -0.008373
 
   | dipole moment | =     0.0140 a.u. =     0.0356 debye 
 
 ------------------------------------------------------------------------------
                     quadrupole moment
 ------------------------------------------------------------------------------
  xx     285.639509    -337.552176     -51.912667
  yy     287.114197    -339.005933     -51.891735
  zz    5030.785519   -5081.769628     -50.984109
  xy       1.186017      -1.170173       0.015844
  xz      37.289007     -37.335938      -0.046932
  yz      73.228555     -73.348257      -0.119701
 
     1/3  trace=     -51.596170
     anisotropy=       0.945287
 
 ==============================================================================
 


    ------------------------------------------------------------------------
         total  cpu-time :  6 minutes and 46 seconds
         total wall-time :  52.83 seconds
    ------------------------------------------------------------------------

   ****  ridft : all done  ****


    2018-04-24 21:13:07.334 

