Using Slurm to start processes with PMI2
STARTING ridft ON 8 PROCESSORS!
RUNNING PROGRAM /modfac/apps/TURBOMOLE/7.0_intel_GA/bin/em64t-unknown-linux-gnu_mpi/ridft_mpi.
PLEASE WAIT UNTIL ridft HAS FINISHED.
Look for the output in slave1.output.
  this is node-proc. number 1 running on node c-16-33.local
  the total number of node-proc. spawned is            8
  parallel platform: MPP, or cluster with fast interconnect

 ridft (c-16-33.local) : TURBOMOLE V7.0.2( ) 15 Jan 2016 at 17:47:42
 Copyright (C) 2016 TURBOMOLE GmbH, Karlsruhe


    2016-02-15 17:18:29.790 



                                  r i d f t

                        DFT program with RI approximation 
                                for coulomb part 




                                                 
                                 References:     
                                                 
          TURBOMOLE:                             
              R. Ahlrichs, M. Baer, M. Haeser, H. Horn, and
              C. Koelmel
              Electronic structure calculations on workstation
              computers: the program system TURBOMOLE
              Chem. Phys. Lett. 162: 165 (1989)
          Density Functional:                              
              O. Treutler and R. Ahlrichs                      
              Efficient Molecular Numerical Integration Schemes
              J. Chem. Phys. 102: 346 (1995)                   
          Parallel Version:                                
              Performance of parallel TURBOMOLE for Density    
              Functional Calculations                          
              M. v. Arnim and R. Ahlrichs                      
              J. Comp. Chem. 19: 1746 (1998)                   
          RI-J Method:                                     
              Auxiliary Basis Sets to approximate Coulomb      
              Potentials                                       
              Chem. Phys. Lett. 240: 283 (1995)                
              K. Eichkorn, O. Treutler, H. Oehm, M. Haeser     
              and R. Ahlrichs                                  
              Chem. Phys. Lett. 242: 652 (1995)                
                                                           
              Auxiliary Basis Sets for Main Row Atoms and their
              Use to approximate Coulomb Potentials            
              K. Eichkorn, F. Weigend, O. Treutler and         
              R. Ahlrichs                                      
              Theo. Chem. Acc. 97: 119 (1997)                   
                                                           
              Accurate Coulomb-fitting basis sets for H to Rn 
              F. Weigend                                        
              Phys. Chem. Chem. Phys. 8: 1057 (2006)            
                                                           
          Multipole accelerated RI-J (MARI-J):             
              Fast evaluation of the Coulomb potential for     
              electron densities using multipole accelerated   
              resolution of identity approximation             
              M. Sierka, A. Hogekamp and R. Ahlrichs           
              J. Chem. Phys. 118: 9136 (2003)                  
          RI-JK Method:                                     
              A fully direct RI-HF algorithm: Implementation,
              optimised auxiliary basis sets, demonstration of
              accuracy and efficiency                         
              F. Weigend                                      
              Phys. Chem. Chem. Phys. 4: 4285 (2002)           
          Two-component HF and DFT with spin-orbit coupling:  
              Self-consistent treatment of spin-orbit         
              interactions with efficient Hartree-Fock and    
              density functional methods                      
              M. K. Armbruster, F. Weigend, C. van Wüllen and 
              W. Klopper                                      
              Phys. Chem. Chem. Phys. 10: 1748 (2008)         
          Relativistic all-electron 2c calculations           
              An efficient implementation of two-component    
              relativistic exact-decoupling methods for large 
              molecules                                       
              D. Peng, N. Middendorf, F. Weigend, M. Reiher   
              J. Chem. Phys. 138, 184105 (2013)               
                                         


 


              +--------------------------------------------------+
              |      general information about current run       |
              +--------------------------------------------------+

 

 SCF run will be profiled !


 DENSITY CONVERGENCE CHECK SWITCHED ON !
 SCF CONVERGENCE IF RMS(delta[D]) <     0.1000000000E-06

 TPSS meta-GGA functional
 exchange:    LDA + TPSS
 correlation: LDA (PW) + TPSS
 A DFT calculation using the RI-J approximation will be carried out.
 Allocatable memory for RI due to $ricore (MB):        5000


              +--------------------------------------------------+
              | Atomic coordinate, charge and isotop information |
              +--------------------------------------------------+

                    atomic coordinates            atom    charge  isotop
         -0.27393470    6.18819168   -1.19322977    c      6.000     0
         -2.46344699    5.77825339   -2.60449615    c      6.000     0
         -4.69406082    5.39705784   -1.25235930    c      6.000     0
         -4.71896741    5.33938339    1.40380196    c      6.000     0
         -2.51326017    5.65638495    2.81229043    c      6.000     0
         -0.29785863    6.12649212    1.46128742    c      6.000     0
         -7.42369463    4.94664161   -2.11437678    c      6.000     0
         -8.01020893    2.21933216   -1.35181559    c      6.000     0
         -8.03725091    2.16388760    1.30729364    c      6.000     0
         -7.46489066    4.85601035    2.19433109    c      6.000     0
         -8.21278757    0.01810358   -2.78447366    c      6.000     0
         -8.41651894   -2.24308602   -1.44717117    c      6.000     0
         -8.44656559   -2.29788808    1.20944362    c      6.000     0
         -8.27108562   -0.09424064    2.64331112    c      6.000     0
         -8.82968866    6.36030794    0.05739098    c      6.000     0
          2.39027679    6.99321501   -1.97848657    c      6.000     0
          2.35234999    6.89052730    2.33048586    c      6.000     0
          4.24147141    4.87579578    1.47132187    c      6.000     0
          4.26509298    4.93957404   -1.18370555    c      6.000     0
          5.91295307    3.35513316    2.83024283    c      6.000     0
          7.66850865    1.97164576    1.43095732    c      6.000     0
          7.69269714    2.03631219   -1.22333311    c      6.000     0
          5.96134896    3.48626126   -2.58482410    c      6.000     0
          2.91214356    8.90127149    0.22748523    c      6.000     0
          9.87956381    0.34202153   -2.07607203    c      6.000     0
          9.16122222   -2.35520347   -1.32190122    c      6.000     0
          9.13548415   -2.42066359    1.33913553    c      6.000     0
          9.83927485    0.23553547    2.23913649    c      6.000     0
          8.55002809   -4.47912337   -2.72959602    c      6.000     0
          7.90073709   -6.70059092   -1.42800935    c      6.000     0
          7.87418644   -6.76523845    1.20657124    c      6.000     0
          8.49702128   -4.61078059    2.62830669    c      6.000     0
         11.77284263    0.92596581    0.11506542    c      6.000     0
         -8.31764847   -5.08264520    1.98096211    c      6.000     0
         -5.66577689   -5.91321763    1.16915466    c      6.000     0
         -5.63425626   -5.85826440   -1.48989788    c      6.000     0
         -8.26696602   -4.99384697   -2.32929533    c      6.000     0
         -3.49926257   -6.47956855    2.52781106    c      6.000     0
         -1.27490374   -7.03089615    1.18478270    c      6.000     0
         -1.24351538   -6.97650983   -1.44679322    c      6.000     0
         -3.43540873   -6.36901957   -2.81856432    c      6.000     0
         -9.87669143   -6.27071602   -0.21820668    c      6.000     0
         -2.45294011    5.84171039   -4.65828830    h      1.000     0
         -2.54030215    5.62747214    4.86674399    h      1.000     0
         -7.86022136    5.46728006   -4.05896166    h      1.000     0
         -7.93792690    5.29540947    4.15038661    h      1.000     0
         -8.11773434    0.05695635   -4.83605484    h      1.000     0
         -8.21892918   -0.14040665    4.69617731    h      1.000     0
         -8.40519948    8.38335425    0.10380266    h      1.000     0
        -10.87140547    6.03249714    0.03110489    h      1.000     0
          2.58575006    7.68646105   -3.90969219    h      1.000     0
          2.51428062    7.49055314    4.29570655    h      1.000     0
          5.92036080    3.32542667    4.88460190    h      1.000     0
          6.00539847    3.55672914   -4.63769029    h      1.000     0
          1.57809140   10.48166835    0.25358235    h      1.000     0
          4.86727311    9.57563916    0.26070662    h      1.000     0
         10.52462183    0.60197226   -4.01470427    h      1.000     0
         10.44833358    0.39867552    4.19987854    h      1.000     0
          8.55318394   -4.43267390   -4.78236772    h      1.000     0
          7.42214505   -8.39155566   -2.48982756    h      1.000     0
          7.37512867   -8.50599747    2.17420550    h      1.000     0
          8.46002044   -4.66543147    4.68064376    h      1.000     0
         12.34503281    2.91199238    0.16958402    h      1.000     0
         13.42257354   -0.32125344    0.09956967    h      1.000     0
         -8.86591471   -5.52843160    3.91606057    h      1.000     0
         -8.76902846   -5.35979244   -4.29349557    h      1.000     0
         -3.50574433   -6.49980752    4.58215124    h      1.000     0
          0.44499271   -7.48906025    2.20842845    h      1.000     0
          0.50075853   -7.39238186   -2.44683629    h      1.000     0
         -3.39254974   -6.30418307   -4.87158169    h      1.000     0
        -11.84561598   -5.64075692   -0.22848679    h      1.000     0
         -9.76051107   -8.33473160   -0.25925153    h      1.000     0
          0.45224926   -0.84580362   -2.67537977    c      6.000     0
          0.39459371   -0.96459181    2.64450165    c      6.000     0
          2.65068105   -1.59445642    1.27424233    c      6.000     0
          2.67838444   -1.53842604   -1.28667673    c      6.000     0
         -1.86313769   -0.39368665    1.25324747    c      6.000     0
         -1.83501856   -0.33633346   -1.30876763    c      6.000     0
          0.39835427   -0.91583687    5.28048063    c      6.000     0
          0.51181343   -0.67722115   -5.30584076    c      6.000     0
          2.77402348   -1.11680925   -6.67834885    c      6.000     0
         -1.67832247   -0.01780122   -6.70601444    c      6.000     0
          2.63210504   -1.41763475    6.67793311    c      6.000     0
         -1.82245188   -0.32546753    6.66298537    c      6.000     0
         -3.49875235    0.52904773   -7.81566162    n      7.000     0
          4.65792925   -1.46516136   -7.76197450    n      7.000     0
          4.49465692   -1.81661263    7.78079617    n      7.000     0
         -3.66775055    0.16586126    7.75745806    n      7.000     0
          4.38153791   -2.03474372   -2.30489896    h      1.000     0
          4.33176252   -2.13518266    2.30622177    h      1.000     0
         -3.59287960    0.00411960    2.26776585    h      1.000     0
         -3.54227274    0.10761990   -2.34208877    h      1.000     0
 
       center of nuclear mass  :   -0.02444991   -0.00205921   -0.00030076
       center of nuclear charge:   -0.02078855   -0.00241577   -0.00027107

              +--------------------------------------------------+
              |               basis set information              |
              +--------------------------------------------------+

              we will work with the 1s 3p 5d 7f 9g ... basis set
              ...i.e. with spherical basis functions...

   type   atoms  prim   cont   basis
   ---------------------------------------------------------------------------
    c       54     50     30   cc-pVTZ   [4s3p2d1f|18s5p2d1f]
    h       34     16     14   cc-pVTZ   [3s2p1d|5s2p1d]
    n        4     50     30   cc-pVTZ   [4s3p2d1f|18s5p2d1f]
   ---------------------------------------------------------------------------
   total:   92   3444   2216
   ---------------------------------------------------------------------------

   total number of primitive shells          :   60
   total number of contracted shells         :  784
   total number of cartesian basis functions : 2540
   total number of SCF-basis functions       : 2216


 integral neglect threshold       :  0.13E-13
 integral storage threshold THIZE :  0.10E-04
 integral storage threshold THIME :         5

 RI-J AUXILIARY BASIS SET information:

              we will work with the 1s 3p 5d 7f 9g ... basis set
              ...i.e. with spherical basis functions...

   type   atoms  prim   cont   basis
   ---------------------------------------------------------------------------
    c       54     70     49   cc-pVTZ   [6s4p3d1f1g|12s5p4d2f1g]
    h       34     16     11   cc-pVTZ   [3s1p1d|5s2p1d]
    n        4     70     49   cc-pVTZ   [6s4p3d1f1g|12s5p4d2f1g]
   ---------------------------------------------------------------------------
   total:   92   4604   3216
   ---------------------------------------------------------------------------

   total number of primitive shells          :   56
   total number of contracted shells         : 1040
   total number of cartesian basis functions : 3946
   total number of SCF-basis functions       : 3216


 symmetry group of the molecule :   c1 

 the group has the following generators :
   c1(z)

    1 symmetry operations found

 there are 1 real representations :   a   

 maximum number of shells which are related by symmetry :  1


    mo occupation :
   irrep   mo's   occupied
    a     2216      193
 
 number of basis functions   :         2216
 number of occupied orbitals :          193
 
  
           ------------------
           density functional
           ------------------
 TPSS meta-GGA functional
 exchange:    LDA + TPSS
 correlation: LDA (PW) + TPSS
 grinp -> nfun, dfgga, dfhybrid 
           5 F F
 iterations will be done with small grid
  
 spherical integration : Lebedev's spherical grid
 spherical gridsize    :           5
    i.e. gridpoints    :         590
 value for diffuse not defined
 radial integration    : Chebyshev 2nd kind (scaling 3)
 radial gridsize       :           8
 integration cells     :          92
 partition function    : becke
 partition sharpness   :           3
  

 <rddim> : input of entry tasksize
           from data group '$pardft' failed !

               Default values taken

 <rddim> : input of entry memdiv
           from data group '$pardft' failed !

               Default values taken
  RIDFT: memory allocation for DFT gridpoints
  MEMORY is divided by 1 as DEFAULT
 Each node can hold at most  the            1 -th part
 of the gridpoints    

 biggest AO integral is expected to be     4.229423036
  
           ------------------------
               RI-J - INFORMATION
           ------------------------
 
 
 **************************************************
 *      MEMORY ALLOCATION FOR PARALLEL RI-DFT     *
 **************************************************
 
 
MEMORY FOR (MU NU/ ALPHA), SEQUENTIAL RUN               4918 MByte
 
            DIFFERENCE IN MEMORY NEED:       DIAG./SLAVE  
 
      TOTAL DIFFERENCE :                    279 MByte
 
      difference in xcore:                   83 MByte
      difference in fatmat:                  72 MByte
      getcor calls skipped by slaves:       125 MByte
 
 
           Integral memory available for diagonal.      4918 MByte
 
           Integral memory available for slave             0 MByte
 
         MEMORY FOR (MU NU/ ALPHA) ON DIAGONALIZER      4918 MByte
 
         MEMORY FOR (MU NU/ ALPHA) ON ONE SLAVE            0 MByte
 
         TOTAL MEMORY FOR (MU NU/ ALPHA),ALL NODES      4918 MByte
 
 Contributions to RI integral batches: 
  neglected integral batches:      148680
  direct contribution:             113934
  memory contribution:       45106
 Memory core needed for (P|Q) and Cholesky     79 MByte
 Memory core minimum needed except of (P|Q)     5 MByte
 Total minimum memory core needed (sum)        84 MByte
     number of direct tasks:         160
  
 ****************************************
 Memory allocated for RI-J  5001 MByte
 ****************************************
                                            

          ------------------------
          nuclear repulsion energy  :   8253.98843193    
          ------------------------

 
          -----------------
          -S integrals
          -----------------

 1e-integrals will be neglected if expon. factor < 0.131573E-14
 
          -----------------
          -T+V integrals
          -----------------

 1e-integrals will be neglected if expon. factor < 0.131573E-14
 Difference densities >>NOT<< switched on in parallel ridft!

 automatic virtual orbital shift switched on 
      shift if e(lumo)-e(homo) < 0.10000000    


 DIIS switched on: error vector is FDS-SDF
 Max. Iterations for DIIS is     :   4
 DIIS matrix (see manual) 
    Scaling factor of diagonals  :  1.200
    threshold for scaling factor :  0.000

 scf convergence criterion : increment of total energy < .1000000D-08
                  and increment of one-electron energy < .1000000D-05


 <geterg> : there is no data group $energy 

  MOs are in ASCII format !


 reading orbital data $scfmo  from file mos . 

 orbital characterization : expanded
 
 mo provided and orthogonalized by Cholesky decomposition

 DSCF restart information will be dumped onto file mos


 Starting SCF iterations


 ITERATION  ENERGY          1e-ENERGY        2e-ENERGY     RMS[dD(SAO)]   TOL
   1  -2289.2027245871    -19434.708083     8891.5169262    0.000D+00 0.131D-13
                            Exc = -326.879957943     Coul =  9218.39688410    
                              N = 385.99809628    
                            current damping = 0.700
 
          max. resid. norm for Fia-block=  4.020D-01 for orbital    141a         
          max. resid. fock norm         =  4.552D+00 for orbital   2083a         

 ITERATION  ENERGY          1e-ENERGY        2e-ENERGY     RMS[dD(SAO)]   TOL
   2  -2296.2782449670    -19521.224909     8970.9582317    0.320D-02 0.131D-13
                            Exc = -331.266586926     Coul =  9302.22481866    
                              N = 385.99847531    
                            current damping = 0.650
 
          Norm of current diis error:  6.3486    
          max. resid. norm for Fia-block=  1.708D-01 for orbital      3a         
          max. resid. fock norm         =  3.594D-01 for orbital   2213a         

 ITERATION  ENERGY          1e-ENERGY        2e-ENERGY     RMS[dD(SAO)]   TOL
   3  -2297.4579066025    -19533.982543     8982.5362049    0.151D-02 0.131D-13
                            Exc = -333.075113134     Coul =  9315.61131804    
                              N = 385.99872003    
                            current damping = 0.550
 
          Norm of current diis error:  3.4072    
          max. resid. norm for Fia-block=  8.138D-02 for orbital    181a         
          max. resid. fock norm         =  8.403D-02 for orbital    192a         
          irrep a   : virtual orbitals shifted by    0.22311

 ITERATION  ENERGY          1e-ENERGY        2e-ENERGY     RMS[dD(SAO)]   TOL
   4  -2297.8951334699    -19549.151639     8997.2680737    0.114D-02 0.131D-13
                            Exc = -333.481181518     Coul =  9330.74925526    
                              N = 385.99880548    
                            current damping = 0.450
 
          Norm of current diis error:  1.5889    
          max. resid. norm for Fia-block=  5.262D-02 for orbital     76a         
          max. resid. fock norm         =  8.264D-02 for orbital   2215a         
          irrep a   : virtual orbitals shifted by    0.25149

 ITERATION  ENERGY          1e-ENERGY        2e-ENERGY     RMS[dD(SAO)]   TOL
   5  -2298.0083176615    -19551.578559     8999.5818089    0.577D-03 0.131D-13
                            Exc = -334.026145939     Coul =  9333.60795486    
                              N = 385.99886904    
                            current damping = 0.350
 
          Norm of current diis error: 0.79384    
          max. resid. norm for Fia-block=  2.882D-02 for orbital    192a         
          max. resid. fock norm         =  3.925D-02 for orbital    194a         
          irrep a   : virtual orbitals shifted by    0.23150
          mo-orthogonalization: Cholesky decomposition

 ITERATION  ENERGY          1e-ENERGY        2e-ENERGY     RMS[dD(SAO)]   TOL
   6  -2298.0664867298    -19553.711861     9001.6569423    0.395D-03 0.131D-13
                            Exc = -334.154882578     Coul =  9335.81182488    
                              N = 385.99889170    
                            current damping = 0.250
 
          Norm of current diis error: 0.38715    
          max. resid. norm for Fia-block=  2.969D-02 for orbital    192a         
          max. resid. fock norm         =  4.032D-02 for orbital    194a         
          irrep a   : virtual orbitals shifted by    0.20746

 ITERATION  ENERGY          1e-ENERGY        2e-ENERGY     RMS[dD(SAO)]   TOL
   7  -2298.1053630805    -19554.726130     9002.6323350    0.233D-03 0.131D-13
                            Exc = -334.229114615     Coul =  9336.86144957    
                              N = 385.99890006    
                            current damping = 0.150
 
          Norm of current diis error: 0.33431    
          max. resid. norm for Fia-block=  2.421D-02 for orbital    192a         
          max. resid. fock norm         =  3.640D-02 for orbital    194a         
          irrep a   : virtual orbitals shifted by    0.18669

 ITERATION  ENERGY          1e-ENERGY        2e-ENERGY     RMS[dD(SAO)]   TOL
   8  -2298.1387128675    -19554.500931     9002.3737858    0.274D-03 0.131D-13
                            Exc = -334.265599650     Coul =  9336.63938550    
                              N = 385.99889968    
                            current damping = 0.200
 
          Norm of current diis error: 0.29397    
          max. resid. norm for Fia-block=  2.610D-02 for orbital    193a         
          max. resid. fock norm         =  3.312D-02 for orbital    194a         
          irrep a   : virtual orbitals shifted by    0.15730

 ITERATION  ENERGY          1e-ENERGY        2e-ENERGY     RMS[dD(SAO)]   TOL
   9  -2298.1722860408    -19554.279817     9002.1190988    0.323D-03 0.131D-13
                            Exc = -334.263888726     Coul =  9336.38298748    
                              N = 385.99889482    
                            current damping = 0.050
 
          Norm of current diis error: 0.29900    
          max. resid. norm for Fia-block=  3.307D-02 for orbital    193a         
          max. resid. fock norm         =  3.660D-02 for orbital    194a         
          irrep a   : virtual orbitals shifted by    0.13745

 ITERATION  ENERGY          1e-ENERGY        2e-ENERGY     RMS[dD(SAO)]   TOL
  10  -2298.2105075360    -19554.116507     9001.9175676    0.396D-03 0.131D-13
                            Exc = -334.282779637     Coul =  9336.20034723    
                              N = 385.99888599    
                            current damping = 0.050
 
          Norm of current diis error: 0.35215    
          max. resid. norm for Fia-block=  3.457D-02 for orbital    193a         
          max. resid. fock norm         =  3.637D-02 for orbital    194a         
          irrep a   : virtual orbitals shifted by    0.09452
          mo-orthogonalization: Cholesky decomposition

 ITERATION  ENERGY          1e-ENERGY        2e-ENERGY     RMS[dD(SAO)]   TOL
  11  -2298.2233624306    -19553.549797     9001.3380026    0.363D-03 0.131D-13
                            Exc = -334.261508905     Coul =  9335.59951151    
                              N = 385.99887545    
                            current damping = 0.050
 
          Norm of current diis error: 0.58881    
          max. resid. norm for Fia-block=  2.315D-02 for orbital    193a         
          max. resid. fock norm         =  2.486D-02 for orbital    194a         
          irrep a   : virtual orbitals shifted by    0.05838

 ITERATION  ENERGY          1e-ENERGY        2e-ENERGY     RMS[dD(SAO)]   TOL
  12  -2298.2056918893    -19553.742339     9001.5482150    0.249D-03 0.131D-13
                            Exc = -334.266642422     Coul =  9335.81485739    
                              N = 385.99886962    
                            current damping = 0.100
 
          Norm of current diis error: 0.82227    
          max. resid. norm for Fia-block=  8.780D-03 for orbital    193a         
          max. resid. fock norm         =  1.153D-02 for orbital    193a         
          irrep a   : virtual orbitals shifted by    0.05292

 ITERATION  ENERGY          1e-ENERGY        2e-ENERGY     RMS[dD(SAO)]   TOL
  13  -2298.1937583552    -19553.684137     9001.5019467    0.142D-03 0.131D-13
                            Exc = -334.268376217     Coul =  9335.77032291    
                              N = 385.99886136    
                            current damping = 0.150
 
          Norm of current diis error: 0.89589    
          max. resid. norm for Fia-block=  6.847D-03 for orbital    191a         
          max. resid. fock norm         =  1.901D-02 for orbital   2198a         
          irrep a   : virtual orbitals shifted by    0.07339

 ITERATION  ENERGY          1e-ENERGY        2e-ENERGY     RMS[dD(SAO)]   TOL
  14  -2298.2143280010    -19553.576599     9001.3738387    0.146D-03 0.131D-13
                            Exc = -334.232703862     Coul =  9335.60654261    
                              N = 385.99885072    
                            current damping = 0.050
 
          Norm of current diis error: 0.66989    
          max. resid. norm for Fia-block=  1.952D-02 for orbital    190a         
          max. resid. fock norm         =  3.700D-02 for orbital   2197a         
          irrep a   : virtual orbitals shifted by    0.08960

 ITERATION  ENERGY          1e-ENERGY        2e-ENERGY     RMS[dD(SAO)]   TOL
  15  -2298.2352382668    -19553.616841     9001.3931711    0.249D-03 0.131D-13
                            Exc = -334.293782652     Coul =  9335.68695373    
                              N = 385.99884360    
                            current damping = 0.100
 
          Norm of current diis error: 0.55637    
          max. resid. norm for Fia-block=  1.394D-02 for orbital    171a         
          max. resid. fock norm         =  2.319D-02 for orbital    194a         
          irrep a   : virtual orbitals shifted by    0.08513
          mo-orthogonalization: Cholesky decomposition

 ITERATION  ENERGY          1e-ENERGY        2e-ENERGY     RMS[dD(SAO)]   TOL
  16  -2298.2287333107    -19553.711958     9001.4947928    0.197D-03 0.131D-13
                            Exc = -334.246014638     Coul =  9335.74080743    
                              N = 385.99884353    
                            current damping = 0.150
 
          Norm of current diis error: 0.58915    
          max. resid. norm for Fia-block=  7.431D-03 for orbital     67a         
          max. resid. fock norm         =  1.993D-02 for orbital   2215a         
          irrep a   : virtual orbitals shifted by    0.07910

 ITERATION  ENERGY          1e-ENERGY        2e-ENERGY     RMS[dD(SAO)]   TOL
  17  -2298.2401748758    -19553.424054     9001.1954473    0.968D-04 0.131D-13
                            Exc = -334.264055552     Coul =  9335.45950281    
                              N = 385.99884475    
                            current damping = 0.200
 
          Norm of current diis error: 0.31632    
          max. resid. norm for Fia-block=  4.921D-03 for orbital    187a         
          max. resid. fock norm         =  1.236D-02 for orbital     96a         
          irrep a   : virtual orbitals shifted by    0.07835

 ITERATION  ENERGY          1e-ENERGY        2e-ENERGY     RMS[dD(SAO)]   TOL
  18  -2298.2455950081    -19553.766776     9001.5327490    0.736D-04 0.131D-13
                            Exc = -334.274164537     Coul =  9335.80691355    
                              N = 385.99884360    
                            current damping = 0.250
 
          Norm of current diis error: 0.14135    
          max. resid. norm for Fia-block=  1.038D-02 for orbital    187a         
          max. resid. fock norm         =  1.544D-02 for orbital   2213a         
          irrep a   : virtual orbitals shifted by    0.07923

 ITERATION  ENERGY          1e-ENERGY        2e-ENERGY     RMS[dD(SAO)]   TOL
  19  -2298.2439782991    -19553.688243     9001.4558330    0.101D-03 0.131D-13
                            Exc = -334.245485696     Coul =  9335.70131867    
                              N = 385.99884281    
                            current damping = 0.300
 
          Norm of current diis error: 0.26064    
          max. resid. norm for Fia-block=  3.080D-03 for orbital     64a         
          max. resid. fock norm         =  7.741D-03 for orbital   2215a         
          irrep a   : virtual orbitals shifted by    0.07631

 ITERATION  ENERGY          1e-ENERGY        2e-ENERGY     RMS[dD(SAO)]   TOL
  20  -2298.2457849283    -19553.493510     9001.2592935    0.311D-04 0.131D-13
                            Exc = -334.255842094     Coul =  9335.51513560    
                              N = 385.99884310    
                            current damping = 0.150
 
          Norm of current diis error: 0.15045    
          max. resid. norm for Fia-block=  1.785D-03 for orbital    187a         
          max. resid. fock norm         =  5.134D-03 for orbital   2213a         
          irrep a   : virtual orbitals shifted by    0.07871
          mo-orthogonalization: Cholesky decomposition

 ITERATION  ENERGY          1e-ENERGY        2e-ENERGY     RMS[dD(SAO)]   TOL
  21  -2298.2468149879    -19553.721275     9001.4860285    0.288D-04 0.131D-13
                            Exc = -334.262989963     Coul =  9335.74901844    
                              N = 385.99884300    
                            current damping = 0.200
 
          Norm of current diis error: 0.63932E-01
          max. resid. norm for Fia-block=  1.859D-03 for orbital    187a         
          max. resid. fock norm         =  2.307D-03 for orbital    194a         
          irrep a   : virtual orbitals shifted by    0.07781

 ITERATION  ENERGY          1e-ENERGY        2e-ENERGY     RMS[dD(SAO)]   TOL
  22  -2298.2470842418    -19553.492093     9001.2565765    0.180D-04 0.131D-13
                            Exc = -334.262001976     Coul =  9335.51857852    
                              N = 385.99884338    
                            current damping = 0.250
 
          Norm of current diis error: 0.30725E-01
          max. resid. norm for Fia-block=  1.385D-03 for orbital    187a         
          max. resid. fock norm         =  1.625D-03 for orbital    194a         
          irrep a   : virtual orbitals shifted by    0.07702

 ITERATION  ENERGY          1e-ENERGY        2e-ENERGY     RMS[dD(SAO)]   TOL
  23  -2298.2471035902    -19553.762903     9001.5273675    0.130D-04 0.131D-13
                            Exc = -334.264435694     Coul =  9335.79180316    
                              N = 385.99884306    
                            current damping = 0.300
 
          Norm of current diis error: 0.28778E-01
          max. resid. norm for Fia-block=  6.402D-04 for orbital    159a         
          max. resid. fock norm         =  1.125D-03 for orbital   2213a         
          irrep a   : virtual orbitals shifted by    0.07584

 ITERATION  ENERGY          1e-ENERGY        2e-ENERGY     RMS[dD(SAO)]   TOL
  24  -2298.2471169710    -19553.626312     9001.3907635    0.661D-05 0.131D-13
                            Exc = -334.266173511     Coul =  9335.65693701    
                              N = 385.99884327    
                            current damping = 0.350
 
          Norm of current diis error: 0.21654E-01
          max. resid. norm for Fia-block=  2.274D-04 for orbital    165a         
          max. resid. fock norm         =  6.024D-04 for orbital   2215a         
          irrep a   : virtual orbitals shifted by    0.07500

 ITERATION  ENERGY          1e-ENERGY        2e-ENERGY     RMS[dD(SAO)]   TOL
  25  -2298.2471339327    -19553.632851     9001.3972846    0.330D-05 0.131D-13
                            Exc = -334.264856271     Coul =  9335.66214092    
                              N = 385.99884325    
                            current damping = 0.400
 
          Norm of current diis error: 0.99294E-02
          max. resid. norm for Fia-block=  5.325D-04 for orbital    187a         
          max. resid. fock norm         =  9.465D-04 for orbital   2215a         
          irrep a   : virtual orbitals shifted by    0.07414
          mo-orthogonalization: Cholesky decomposition

 ITERATION  ENERGY          1e-ENERGY        2e-ENERGY     RMS[dD(SAO)]   TOL
  26  -2298.2471379786    -19553.662851     9001.4272809    0.515D-05 0.131D-13
                            Exc = -334.264827282     Coul =  9335.69210817    
                              N = 385.99884318    
                            current damping = 0.250
 
          Norm of current diis error: 0.91165E-02
          max. resid. norm for Fia-block=  1.519D-04 for orbital    187a         
          max. resid. fock norm         =  3.838D-04 for orbital   2197a         
          irrep a   : virtual orbitals shifted by    0.07692

 ITERATION  ENERGY          1e-ENERGY        2e-ENERGY     RMS[dD(SAO)]   TOL
  27  -2298.2471400231    -19553.631916     9001.3963440    0.176D-05 0.131D-13
                            Exc = -334.263923973     Coul =  9335.66026799    
                              N = 385.99884321    
                            current damping = 0.300
 
          Norm of current diis error: 0.57635E-02
          max. resid. norm for Fia-block=  7.903D-05 for orbital    193a         
          max. resid. fock norm         =  2.108D-04 for orbital   2208a         
          irrep a   : virtual orbitals shifted by    0.07596

 ITERATION  ENERGY          1e-ENERGY        2e-ENERGY     RMS[dD(SAO)]   TOL
  28  -2298.2471415756    -19553.634924     9001.3993506    0.123D-05 0.131D-13
                            Exc = -334.264274008     Coul =  9335.66362458    
                              N = 385.99884321    
                            current damping = 0.350
 
          Norm of current diis error: 0.26466E-02
          max. resid. norm for Fia-block=  7.274D-05 for orbital    187a         
          max. resid. fock norm         =  1.189D-04 for orbital     96a         
          irrep a   : virtual orbitals shifted by    0.07504

 ITERATION  ENERGY          1e-ENERGY        2e-ENERGY     RMS[dD(SAO)]   TOL
  29  -2298.2471419868    -19553.635896     9001.4003222    0.809D-06 0.131D-13
                            Exc = -334.264392159     Coul =  9335.66471433    
                              N = 385.99884322    
                            current damping = 0.200
 
          Norm of current diis error: 0.18789E-02
          max. resid. norm for Fia-block=  7.174D-05 for orbital    187a         
          max. resid. fock norm         =  1.178D-04 for orbital    148a         
          irrep a   : virtual orbitals shifted by    0.07781

 ITERATION  ENERGY          1e-ENERGY        2e-ENERGY     RMS[dD(SAO)]   TOL
  30  -2298.2471421127    -19553.637703     9001.4021285    0.868D-06 0.131D-13
                            Exc = -334.264391004     Coul =  9335.66651954    
                              N = 385.99884322    
                            current damping = 0.050
 
          Norm of current diis error: 0.15327E-02
          max. resid. norm for Fia-block=  4.163D-05 for orbital    193a         
          max. resid. fock norm         =  8.083D-05 for orbital   2208a         
          irrep a   : virtual orbitals shifted by    0.08058
          mo-orthogonalization: Cholesky decomposition

 ITERATION  ENERGY          1e-ENERGY        2e-ENERGY     RMS[dD(SAO)]   TOL
  31  -2298.2471422550    -19553.633186     9001.3976113    0.531D-06 0.131D-13
                            Exc = -334.264442246     Coul =  9335.66205359    
                              N = 385.99884323    
                            current damping = 0.100
 
          Norm of current diis error: 0.91004E-03
          max. resid. norm for Fia-block=  3.396D-05 for orbital    193a         
          max. resid. fock norm         =  3.872D-05 for orbital    194a         
          irrep a   : virtual orbitals shifted by    0.07966

 ITERATION  ENERGY          1e-ENERGY        2e-ENERGY     RMS[dD(SAO)]   TOL
  32  -2298.2471423317    -19553.636590     9001.4010155    0.351D-06 0.131D-13
                            Exc = -334.264390319     Coul =  9335.66540585    
                              N = 385.99884322    
                            current damping = 0.150
 
          Norm of current diis error: 0.34495E-03
          max. resid. norm for Fia-block=  2.789D-05 for orbital    193a         
          max. resid. fock norm         =  3.872D-05 for orbital    194a         
          irrep a   : virtual orbitals shifted by    0.07873

 ITERATION  ENERGY          1e-ENERGY        2e-ENERGY     RMS[dD(SAO)]   TOL
  33  -2298.2471423549    -19553.634645     9001.3990705    0.316D-06 0.131D-13
                            Exc = -334.264392461     Coul =  9335.66346294    
                              N = 385.99884322    
                            current damping = 0.200
 
          Norm of current diis error: 0.52190E-03
          max. resid. norm for Fia-block=  2.239D-05 for orbital    193a         
          max. resid. fock norm         =  2.476D-05 for orbital    194a         
          irrep a   : virtual orbitals shifted by    0.07781

 ITERATION  ENERGY          1e-ENERGY        2e-ENERGY     RMS[dD(SAO)]   TOL
  34  -2298.2471423801    -19553.635404     9001.3998294    0.210D-06 0.131D-13
                            Exc = -334.264385546     Coul =  9335.66421491    
                              N = 385.99884322    
                            current damping = 0.250
 
          Norm of current diis error: 0.26902E-03
          max. resid. norm for Fia-block=  1.808D-05 for orbital    193a         
          max. resid. fock norm         =  1.935D-05 for orbital    194a         
          irrep a   : virtual orbitals shifted by    0.07688

 ITERATION  ENERGY          1e-ENERGY        2e-ENERGY     RMS[dD(SAO)]   TOL
  35  -2298.2471423952    -19553.635532     9001.3999577    0.174D-06 0.131D-13
                            Exc = -334.264390308     Coul =  9335.66434801    
                              N = 385.99884322    
                            current damping = 0.100
 
          Norm of current diis error: 0.14057E-03
          max. resid. norm for Fia-block=  1.464D-05 for orbital    193a         
          max. resid. fock norm         =  1.642D-05 for orbital    194a         
          irrep a   : virtual orbitals shifted by    0.07966
          mo-orthogonalization: Cholesky decomposition

 ITERATION  ENERGY          1e-ENERGY        2e-ENERGY     RMS[dD(SAO)]   TOL
  36  -2298.2471424036    -19553.635425     9001.3998509    0.141D-06 0.131D-13
                            Exc = -334.264392618     Coul =  9335.66424356    
                              N = 385.99884323    
                            current damping = 0.150
 
          Norm of current diis error: 0.14201E-03
          max. resid. norm for Fia-block=  1.205D-05 for orbital    193a         
          max. resid. fock norm         =  1.246D-05 for orbital    194a         
          irrep a   : virtual orbitals shifted by    0.07873

 ITERATION  ENERGY          1e-ENERGY        2e-ENERGY     RMS[dD(SAO)]   TOL
  37  -2298.2471424091    -19553.635900     9001.4003260    0.110D-06 0.131D-13
                            Exc = -334.264388372     Coul =  9335.66471440    
                              N = 385.99884323    
                            current damping = 0.200
 
          Norm of current diis error: 0.93368E-04
          max. resid. norm for Fia-block=  9.803D-06 for orbital    193a         
          max. resid. fock norm         =  1.000D-05 for orbital    194a         
          irrep a   : virtual orbitals shifted by    0.07781

 DENSITY CONVERGED !


 ITERATION  ENERGY          1e-ENERGY        2e-ENERGY     RMS[dD(SAO)]   TOL
  38  -2298.2471424127    -19553.635557     9001.3999830    0.893D-07 0.131D-13
                            Exc = -334.264393608     Coul =  9335.66437657    
                              N = 385.99884323    
                            current damping = 0.250
 
          Norm of current diis error: 0.57044E-04
          max. resid. norm for Fia-block=  7.990D-06 for orbital    193a         
          max. resid. fock norm         =  8.304D-06 for orbital    194a         
          irrep a   : virtual orbitals shifted by    0.07688

 DENSITY CONVERGED !


 ITERATION  ENERGY          1e-ENERGY        2e-ENERGY     RMS[dD(SAO)]   TOL
  39  -2298.2471424149    -19553.635746     9001.4001716    0.735D-07 0.131D-13
                            Exc = -334.264386984     Coul =  9335.66455855    
                              N = 385.99884323    
                            current damping = 0.300
 
          Norm of current diis error: 0.72658E-04
          max. resid. norm for Fia-block=  6.481D-06 for orbital    193a         
          max. resid. fock norm         =  6.705D-06 for orbital    194a         
          irrep a   : virtual orbitals shifted by    0.07596

 DENSITY CONVERGED !


 ITERATION  ENERGY          1e-ENERGY        2e-ENERGY     RMS[dD(SAO)]   TOL
  40  -2298.2471424169    -19553.635655     9001.4000802    0.592D-07 0.131D-13
                            Exc = -334.264390308     Coul =  9335.66447050    
                              N = 385.99884323    
                            current damping = 0.350
 
          Norm of current diis error: 0.31975E-04
          max. resid. norm for Fia-block=  5.274D-06 for orbital    193a         
          max. resid. fock norm         =  5.381D-06 for orbital    194a         
          irrep a   : virtual orbitals shifted by    0.07503
          mo-orthogonalization: Cholesky decomposition

 DENSITY CONVERGED !


 ITERATION  ENERGY          1e-ENERGY        2e-ENERGY     RMS[dD(SAO)]   TOL
  41  -2298.2471424177    -19553.635699     9001.4001246    0.479D-07 0.131D-13
                            Exc = -334.264390949     Coul =  9335.66451553    
                              N = 385.99884323    
                            current damping = 0.400
 
          Norm of current diis error: 0.36154E-04
          max. resid. norm for Fia-block=  4.307D-06 for orbital    193a         
          max. resid. fock norm         =  4.382D-06 for orbital    194a         
          irrep a   : virtual orbitals shifted by    0.07411

 DENSITY CONVERGED !


 ITERATION  ENERGY          1e-ENERGY        2e-ENERGY     RMS[dD(SAO)]   TOL
  42  -2298.2471424185    -19553.635583     9001.4000086    0.390D-07 0.131D-13
                            Exc = -334.264392037     Coul =  9335.66440067    
                              N = 385.99884323    
                            current damping = 0.450
 
          Norm of current diis error: 0.27538E-04
          max. resid. norm for Fia-block=  3.507D-06 for orbital    193a         
          max. resid. fock norm         =  3.553D-06 for orbital    194a         
          irrep a   : virtual orbitals shifted by    0.07318

 DENSITY CONVERGED !


 ITERATION  ENERGY          1e-ENERGY        2e-ENERGY     RMS[dD(SAO)]   TOL
  43  -2298.2471424189    -19553.635690     9001.4001152    0.316D-07 0.131D-13
                            Exc = -334.264389921     Coul =  9335.66450515    
                              N = 385.99884323    
                            current damping = 0.500
 
          Norm of current diis error: 0.21334E-04
          max. resid. norm for Fia-block=  2.854D-06 for orbital    193a         
          max. resid. fock norm         =  2.862D-06 for orbital    194a         
          irrep a   : virtual orbitals shifted by    0.07226

 DENSITY CONVERGED !


 ITERATION  ENERGY          1e-ENERGY        2e-ENERGY     RMS[dD(SAO)]   TOL
  44  -2298.2471424190    -19553.635641     9001.4000668    0.255D-07 0.131D-13
                            Exc = -334.264390943     Coul =  9335.66445771    
                              N = 385.99884323    
                            current damping = 0.550
 
          Norm of current diis error: 0.14859E-04
          max. resid. norm for Fia-block=  2.328D-06 for orbital    193a         
          max. resid. fock norm         =  2.412D-06 for orbital    194a         
          irrep a   : virtual orbitals shifted by    0.07133

 ENERGY & DENSITY CONVERGED !


 ITERATION  ENERGY          1e-ENERGY        2e-ENERGY     RMS[dD(SAO)]   TOL
  45  -2298.2459245331    -19553.635650     9001.4012933    0.211D-07 0.131D-13
                            Exc = -334.263173234     Coul =  9335.66446653    
                              N = 386.00001680    
                            current damping = 0.600
 
          Norm of current diis error: 0.14378E-04
          max. resid. norm for Fia-block=  1.896D-06 for orbital    193a         
          max. resid. fock norm         =  1.912D-06 for orbital    194a         

 End of SCF iterations

   convergence criteria satisfied after   45 iterations


                  ------------------------------------------ 
                 |  total energy      =  -2298.24592453313  |
                  ------------------------------------------ 
                 :  kinetic energy    =   2285.14261071752  :
                 :  potential energy  =  -4583.38853525065  :
                 :  virial theorem    =      1.99429855888  :
                 :  wavefunction norm =      1.00000000000  :
                  .......................................... 


 <geterg> : there is no data group $energy 


 <skperg> : $end is missing 


 orbitals $scfmo  will be written to file mos

    irrep                189a        190a        191a        192a        193a   
 eigenvalues H         -0.22543    -0.22465    -0.21485    -0.20405    -0.19102
            eV          -6.1344     -6.1130     -5.8463     -5.5525     -5.1981
 occupation              2.0000      2.0000      2.0000      2.0000      2.0000 

    irrep                194a        195a        196a        197a        198a   
 eigenvalues H         -0.17253    -0.06689    -0.06665    -0.06045    -0.05820
            eV          -4.6949     -1.8202     -1.8136     -1.6450     -1.5837
 
 
 ! grave: sending quit signal to master process
 
 
 
 
 ==============================================================================
                           electrostatic moments
 ==============================================================================

 reference point for electrostatic moments:    0.00000   0.00000   0.00000

 
              nuc           elec       ->  total
 ------------------------------------------------------------------------------
                          charge      
 ------------------------------------------------------------------------------
         386.000000    -386.000000      -0.000000
 
 ------------------------------------------------------------------------------
                       dipole moment  
 ------------------------------------------------------------------------------
   x      -8.024382       7.945073      -0.079309
   y      -0.932485       1.434088       0.501603
   z      -0.104634       0.114032       0.009398
 
   | dipole moment | =     0.5079 a.u. =     1.2910 debye 
 
 ------------------------------------------------------------------------------
                     quadrupole moment
 ------------------------------------------------------------------------------
  xx   14542.637623  -14784.295888    -241.658266
  yy    7517.197596   -7752.790067    -235.592471
  zz    4504.199252   -4772.139448    -267.940196
  xy     -48.564685      53.755386       5.190702
  xz      63.696612     -63.358211       0.338401
  yz      58.976633     -58.174846       0.801787
 
     1/3  trace=    -248.396978
     anisotropy=      31.145734
 
 ==============================================================================
 

    ridft profiling
  --------------------------------------------------------------------
             module   cpu total (s)       %  wall total (s)       %

               RIDFT         10431.4  100.00         10455.6  100.00
         Ridft_b_scf            69.4    0.67            69.5    0.67
        b_scf_prelim             0.0    0.00             0.0    0.00
        b_scf_molinp             0.0    0.00             0.0    0.00
         b_scf_init0             0.0    0.00             0.0    0.00
        b_scf_auxbas             0.0    0.00             0.0    0.00
      b_scf_symmetry             0.0    0.00             0.0    0.00
         b_scf_cosmo             0.0    0.00             0.0    0.00
        b_scf_params             2.7    0.03             2.7    0.03
          b_scf_ri-j            50.4    0.48            50.5    0.48
    b_scf_ri-j_auxpq            50.4    0.48            50.4    0.48
     ri-j_auxpq_chol             2.8    0.03             2.8    0.03
         b_scf_1elec             2.5    0.02             2.5    0.02
       b_scf_moinput            13.8    0.13            13.8    0.13
     moinput_orthmos            13.3    0.13            13.3    0.13
    b_scf_dft-dstmax             0.0    0.00             0.0    0.00
           Ridft_scf         10360.8   99.32         10384.1   99.32
          Scf_b_loop             0.0    0.00             0.0    0.00
                noga             0.0    0.00             0.0    0.00
            Scf_loop         10357.4   99.29         10380.4   99.28
     scf_loop_mkdmat            24.0    0.23            24.0    0.23
       scf_loop_ri-j          1822.1   17.47          1823.1   17.44
      parlp1.bc.dens             3.5    0.03             3.5    0.03
        parlp1.gs.gp            22.7    0.22            22.7    0.22
        parlp2.bc.gq             0.0    0.00             0.0    0.00
        scf_loop_dft          7920.8   75.93          7930.5   75.85
      pardft.bc.dens             0.0    0.00             0.0    0.00
        dft_grid_con             9.0    0.09             9.0    0.09
          dft_xcmrhf          7810.7   74.88          7820.4   74.80
          dft_getval           182.6    1.75           182.9    1.75
          funct2 dst             2.8    0.03             2.8    0.03
      funct2 f2loop1            24.9    0.24            25.0    0.24
      funct2 f2loop2            90.4    0.87            90.6    0.87
          funct2 s+c            61.4    0.59            61.5    0.59
        funct2 cmf_2            54.6    0.52            54.8    0.52
          dft_mkdens          3312.9   31.76          3317.3   31.73
        dft_mgga-fun             6.4    0.06             6.3    0.06
          dft_mkfock          4305.6   41.28          4310.9   41.23
     pardft.red.fock           343.9    3.30           344.3    3.29
     scf_loop_energy             0.2    0.00             0.2    0.00
     scf_loop_mkfock             0.4    0.00             0.4    0.00
       scf_loop_diis           161.3    1.55           161.5    1.54
       scf_loop_diag           242.6    2.33           243.0    2.32
         diag_tritrn            90.5    0.87            90.7    0.87
          diag_rdiag           150.8    1.45           151.1    1.44
     scf_loop_modump           134.0    1.28           145.4    1.39
      scf_loop_ortho            47.5    0.46            47.6    0.45
          Scf_a_loop             3.4    0.03             3.7    0.04
         Ridft_a_scf             1.1    0.01             1.9    0.02
         a_scf_fanal             1.1    0.01             1.9    0.02
 


    ------------------------------------------------------------------------
         total  cpu-time :  2 hours 53 minutes and 57 seconds
         total wall-time :  2 hours 54 minutes and 21 seconds
    ------------------------------------------------------------------------


   ****  ridft : all done  ****


    2016-02-15 20:12:51.174 

