           Doing BLAS/Lapack in the master proc. with  8 CPUs.
           SMPCPUS    set: Shared-memory Parallelization with   8 CPUs.

           SMP Parallelization Reference:
           C. van Wullen, J. Comput. Chem. 32 (2011) 1195--1201
 operating system is UNIX !

 ridft (c-8-293.gp.local) : TURBOMOLE V7.2 ( 21454 ) 4 Oct 2017 at 12:48:15
 Copyright (C) 2017 TURBOMOLE GmbH, Karlsruhe


    2018-04-28 21:01:30.601 



                                  r i d f t

                        DFT program with RI approximation 
                                for coulomb part 




                                                 
                                 References:     
                                                 
          TURBOMOLE:                             
              R. Ahlrichs, M. Baer, M. Haeser, H. Horn, and
              C. Koelmel
              Electronic structure calculations on workstation
              computers: the program system TURBOMOLE
              Chem. Phys. Lett. 162: 165 (1989)
          Density Functional:                              
              O. Treutler and R. Ahlrichs                      
              Efficient Molecular Numerical Integration Schemes
              J. Chem. Phys. 102: 346 (1995)                   
          Parallel Version:                                
              Performance of parallel TURBOMOLE for Density    
              Functional Calculations                          
              M. v. Arnim and R. Ahlrichs                      
              J. Comp. Chem. 19: 1746 (1998)                   
          RI-J Method:                                     
              Auxiliary Basis Sets to approximate Coulomb      
              Potentials                                       
              Chem. Phys. Lett. 240: 283 (1995)                
              K. Eichkorn, O. Treutler, H. Oehm, M. Haeser     
              and R. Ahlrichs                                  
              Chem. Phys. Lett. 242: 652 (1995)                
                                                           
              Auxiliary Basis Sets for Main Row Atoms and their
              Use to approximate Coulomb Potentials            
              K. Eichkorn, F. Weigend, O. Treutler and         
              R. Ahlrichs                                      
              Theo. Chem. Acc. 97: 119 (1997)                   
                                                           
              Accurate Coulomb-fitting basis sets for H to Rn 
              F. Weigend                                        
              Phys. Chem. Chem. Phys. 8: 1057 (2006)            
                                                           
          Multipole accelerated RI-J (MARI-J):             
              Fast evaluation of the Coulomb potential for     
              electron densities using multipole accelerated   
              resolution of identity approximation             
              M. Sierka, A. Hogekamp and R. Ahlrichs           
              J. Chem. Phys. 118: 9136 (2003)                  
          RI-JK Method:                                     
              A fully direct RI-HF algorithm: Implementation,
              optimised auxiliary basis sets, demonstration of
              accuracy and efficiency                         
              F. Weigend                                      
              Phys. Chem. Chem. Phys. 4: 4285 (2002)           
          Two-component HF and DFT with spin-orbit coupling:  
              Self-consistent treatment of spin-orbit         
              interactions with efficient Hartree-Fock and    
              density functional methods                      
              M. K. Armbruster, F. Weigend, C. van Wüllen and 
              W. Klopper                                      
              Phys. Chem. Chem. Phys. 10: 1748 (2008)         
          Relativistic all-electron 2c calculations           
              An efficient implementation of two-component    
              relativistic exact-decoupling methods for large 
              molecules                                       
              D. Peng, N. Middendorf, F. Weigend, M. Reiher   
              J. Chem. Phys. 138, 184105 (2013)               
                                         




              +--------------------------------------------------+
              |      general information about current run       |
              +--------------------------------------------------+

 

 DENSITY CONVERGENCE CHECK SWITCHED ON !
 SCF CONVERGENCE IF RMS(delta[D]) <     0.1000000000E-06

 TPSS meta-GGA functional
 exchange:    LDA + TPSS
 correlation: LDA (PW) + TPSS
 A DFT calculation using the RI-J approximation will be carried out.
 Allocatable memory for RI due to $ricore (MB):                  5000


              +--------------------------------------------------+
              | Atomic coordinate, charge and isotop information |
              +--------------------------------------------------+

                    atomic coordinates            atom    charge  isotop
          2.60196602    1.58689273    1.38823995    n      7.000     0
          1.98763739    2.61958343    2.87872494    h      1.000     0
          2.47361884    2.75433218   -0.98389535    c      6.000     0
          1.73960886    4.93422189   -1.18292459    o      8.000     0
          3.80103848   -2.29263143   -0.18532888    n      7.000     0
          3.26409657    1.87242132   -4.93595627    h      1.000     0
          3.82808790   -1.31746269   -2.57833742    c      6.000     0
          4.34167788   -2.62872251   -4.05468202    h      1.000     0
          3.23995879    1.11860033   -3.04715924    c      6.000     0
          4.02408528   -4.16027159    0.10739148    h      1.000     0
          3.11038534   -0.91690641    1.92509860    c      6.000     0
          2.95008174   -1.83646680    4.02475582    o      8.000     0
         -2.56144987   -1.57989785    1.38823995    n      0.000     0
         -1.94712124   -2.61258855    2.87872494    h      0.000     0
         -2.43310269   -2.74733730   -0.98389535    c      0.000     0
         -1.69909272   -4.92722701   -1.18292459    o      0.000     0
         -3.76052233    2.29962631   -0.18532888    n      0.000     0
         -3.22358042   -1.86542644   -4.93595627    h      0.000     0
         -3.78757176    1.32445757   -2.57833742    c      0.000     0
         -4.30116174    2.63571739   -4.05468202    h      0.000     0
         -3.19944265   -1.11160545   -3.04715924    c      0.000     0
         -3.98356913    4.16726647    0.10739148    h      0.000     0
         -3.06986919    0.92390129    1.92509860    c      0.000     0
         -2.90956559    1.84346168    4.02475582    o      0.000     0
 
       center of nuclear mass  :    0.02025807    0.00349744    0.00000250
       center of nuclear charge:    2.96324756    0.47200450   -0.05095267

              +--------------------------------------------------+
              |               basis set information              |
              +--------------------------------------------------+

              we will work with the 1s 3p 5d 7f 9g ... basis set
              ...i.e. with spherical basis functions...

   type   atoms  prim   cont   basis
   ---------------------------------------------------------------------------
    n        4     50     30   cc-pVTZ   [4s3p2d1f|18s5p2d1f]
    h        8     16     14   cc-pVTZ   [3s2p1d|5s2p1d]
    c        8     50     30   cc-pVTZ   [4s3p2d1f|18s5p2d1f]
    o        4     50     30   cc-pVTZ   [4s3p2d1f|18s5p2d1f]
   ---------------------------------------------------------------------------
   total:   24    928    592
   ---------------------------------------------------------------------------

   total number of primitive shells          :   86
   total number of contracted shells         :  208
   total number of cartesian basis functions :  680
   total number of SCF-basis functions       :  592


 integral neglect threshold       :  0.49E-13
 integral storage threshold THIZE :  0.10E-04
 integral storage threshold THIME :         5

 RI-J AUXILIARY BASIS SET information:

              we will work with the 1s 3p 5d 7f 9g ... basis set
              ...i.e. with spherical basis functions...

   type   atoms  prim   cont   basis
   ---------------------------------------------------------------------------
    n        4     70     49   cc-pVTZ   [6s4p3d1f1g|12s5p4d2f1g]
    h        8     16     11   cc-pVTZ   [3s1p1d|5s2p1d]
    c        8     70     49   cc-pVTZ   [6s4p3d1f1g|12s5p4d2f1g]
    o        4     70     49   cc-pVTZ   [6s4p3d1f1g|12s5p4d2f1g]
   ---------------------------------------------------------------------------
   total:   24   1248    872
   ---------------------------------------------------------------------------

   total number of primitive shells          :   80
   total number of contracted shells         :  280
   total number of cartesian basis functions : 1072
   total number of SCF-basis functions       :  872


 symmetry group of the molecule :   c1 

 the group has the following generators :
   c1(z)

    1 symmetry operations found

 there are 1 real representations :   a   

 maximum number of shells which are related by symmetry :  1


    mo occupation :
   irrep   mo's   occupied
    a      592       29
 
 number of basis functions   :                    592
 number of occupied orbitals :                     29
 
  
           ------------------
           density functional
           ------------------
 Dummy atoms with grid-point found.
 DFT quadrature threshold dgrenze tightened by factor 1/10.

 TPSS meta-GGA functional
 exchange:    LDA + TPSS
 correlation: LDA (PW) + TPSS
 Dummy atoms with grid-point found.
 DFT quadrature threshold dgrenze tightened by factor 1/10.

 Dummy atoms with grid-point found.
 DFT quadrature threshold dgrenze tightened by factor 1/10.


 iterations will be done with small grid
  
 spherical integration : Lebedev's spherical grid
 spherical gridsize    :                     5
    i.e. gridpoints    :                   590
 value for diffuse not defined
 radial integration    : Chebyshev 2nd kind (scaling 3)
 radial gridsize       :                     8
 integration cells     :                    24
 partition function    : becke
 partition sharpness   :                     3
  
 found dummy atom(s) with basis: included in dft

 biggest AO integral is expected to be     4.866064444
  
           ------------------------
               RI-J - INFORMATION
           ------------------------
 Contributions to RI integral batches: 
  neglected integral batches:                  3344
  direct contribution:                            0
  memory contribution:                 18392
 Memory core needed for (P|Q) and Cholesky      6 MByte
 Memory core minimum needed except of (P|Q)     2 MByte
 Total minimum memory core needed (sum)         8 MByte
  
 ****************************************
 Memory allocated for RI-J  1558 MByte
 ****************************************
                                            

          ------------------------
          nuclear repulsion energy  :   357.160273677    
          ------------------------


         -----------------
         -S,T+V- integrals
         -----------------

 1e-integrals will be neglected if expon. factor < 0.491465E-14
 Difference densities >>NOT<< switched on in parallel ridft!

 DIIS switched on: error vector is FDS-SDF
 Max. Iterations for DIIS is     :   4
 DIIS matrix (see manual) 
    Scaling factor of diagonals  :  1.200
    threshold for scaling factor :  0.000

 scf convergence criterion : increment of total energy < .1000000D-08
                  and increment of one-electron energy < .1000000D-05

  MOs are in ASCII format !


 automatic virtual orbital shift switched on 
      shift if e(lumo)-e(homo) < 0.10000000    


 reading orbital data $scfmo  from file mos
 orbital characterization : expanded
 mo provided and orthogonalized by Cholesky decomposition

 DSCF restart information will be dumped onto file mos


 Starting SCF iterations

          Overall gridpoints after grid construction =        157179

 ITERATION  ENERGY          1e-ENERGY        2e-ENERGY     RMS[dD(SAO)]   TOL
   1  -413.15596399625    -1261.7674083     491.45117060    0.000D+00 0.490D-13
                            Exc = -54.1495800234     Coul =  545.600750621    
                              N = 57.999890022    
                            current damping = 0.700
 
          max. resid. norm for Fia-block=  4.395D-01 for orbital     20a         
          max. resid. fock norm         =  1.410D+01 for orbital    580a         

 ITERATION  ENERGY          1e-ENERGY        2e-ENERGY     RMS[dD(SAO)]   TOL
   2  -414.75207607389    -1268.4538936     496.54154381    0.256D-02 0.490D-13
                            Exc = -54.0903133176     Coul =  550.631857123    
                              N = 57.999916393    
                            current damping = 0.650
 
          Norm of current diis error:  2.3412    
          max. resid. norm for Fia-block=  1.596D-01 for orbital      1a         
          max. resid. fock norm         =  3.714D-01 for orbital    580a         

 ITERATION  ENERGY          1e-ENERGY        2e-ENERGY     RMS[dD(SAO)]   TOL
   3  -414.96643814550    -1271.2362110     499.10949921    0.161D-02 0.490D-13
                            Exc = -54.3589211497     Coul =  553.468420356    
                              N = 57.999928460    
                            current damping = 0.550
 
          Norm of current diis error:  1.0930    
          max. resid. norm for Fia-block=  6.357D-02 for orbital      1a         
          max. resid. fock norm         =  8.100D-02 for orbital    564a         

 ITERATION  ENERGY          1e-ENERGY        2e-ENERGY     RMS[dD(SAO)]   TOL
   4  -415.02323911734    -1271.6187667     499.43525388    0.134D-02 0.490D-13
                            Exc = -54.3009774973     Coul =  553.736231382    
                              N = 57.999935297    
                            current damping = 0.400
 
          Norm of current diis error: 0.48800    
          max. resid. norm for Fia-block=  3.063D-02 for orbital     10a         
          max. resid. fock norm         =  6.110D-02 for orbital    580a         

 ITERATION  ENERGY          1e-ENERGY        2e-ENERGY     RMS[dD(SAO)]   TOL
   5  -415.03111300612    -1271.9159281     499.72454141    0.457D-03 0.490D-13
                            Exc = -54.3879257878     Coul =  554.112467198    
                              N = 57.999936613    
                            current damping = 0.250
 
          Norm of current diis error: 0.32040    
          max. resid. norm for Fia-block=  9.940D-03 for orbital     27a         
          max. resid. fock norm         =  1.285D-02 for orbital    578a         
          mo-orthogonalization: Cholesky decomposition

 ITERATION  ENERGY          1e-ENERGY        2e-ENERGY     RMS[dD(SAO)]   TOL
   6  -415.03595083774    -1272.2564051     500.06018056    0.371D-03 0.490D-13
                            Exc = -54.3808120478     Coul =  554.440992613    
                              N = 57.999938940    
                            current damping = 0.100
 
          Norm of current diis error: 0.83606E-01
          max. resid. norm for Fia-block=  3.288D-03 for orbital     26a         
          max. resid. fock norm         =  5.512D-03 for orbital    578a         

 ITERATION  ENERGY          1e-ENERGY        2e-ENERGY     RMS[dD(SAO)]   TOL
   7  -415.03606425025    -1272.0307365     499.83439861    0.954D-04 0.490D-13
                            Exc = -54.3662471629     Coul =  554.200645775    
                              N = 57.999938869    
                            current damping = 0.150
 
          Norm of current diis error: 0.64192E-01
          max. resid. norm for Fia-block=  2.165D-03 for orbital     28a         
          max. resid. fock norm         =  3.834D-03 for orbital     21a         

 ITERATION  ENERGY          1e-ENERGY        2e-ENERGY     RMS[dD(SAO)]   TOL
   8  -415.03622473499    -1272.1071320     499.91063360    0.521D-04 0.490D-13
                            Exc = -54.3754377250     Coul =  554.286071321    
                              N = 57.999938998    
                            current damping = 0.200
 
          Norm of current diis error: 0.25330E-01
          max. resid. norm for Fia-block=  9.792D-04 for orbital     29a         
          max. resid. fock norm         =  1.878D-03 for orbital    492a         

 ITERATION  ENERGY          1e-ENERGY        2e-ENERGY     RMS[dD(SAO)]   TOL
   9  -415.03624417618    -1272.1563888     499.95987098    0.312D-04 0.490D-13
                            Exc = -54.3788062978     Coul =  554.338677282    
                              N = 57.999938973    
                            current damping = 0.050
 
          Norm of current diis error: 0.15465E-01
          max. resid. norm for Fia-block=  6.900D-04 for orbital     29a         
          max. resid. fock norm         =  9.926D-04 for orbital    489a         

 ITERATION  ENERGY          1e-ENERGY        2e-ENERGY     RMS[dD(SAO)]   TOL
  10  -415.03625228774    -1272.1355820     499.93905604    0.222D-04 0.490D-13
                            Exc = -54.3752407764     Coul =  554.314296818    
                              N = 57.999939036    
                            current damping = 0.100
 
          Norm of current diis error: 0.98950E-02
          max. resid. norm for Fia-block=  2.807D-04 for orbital     29a         
          max. resid. fock norm         =  4.469D-04 for orbital    580a         
          mo-orthogonalization: Cholesky decomposition

 ITERATION  ENERGY          1e-ENERGY        2e-ENERGY     RMS[dD(SAO)]   TOL
  11  -415.03625681750    -1272.1313053     499.93477484    0.774D-05 0.490D-13
                            Exc = -54.3762863668     Coul =  554.311061210    
                              N = 57.999939008    
                            current damping = 0.050
 
          Norm of current diis error: 0.20521E-02
          max. resid. norm for Fia-block=  6.626D-05 for orbital     24a         
          max. resid. fock norm         =  8.519D-05 for orbital     23a         

 ITERATION  ENERGY          1e-ENERGY        2e-ENERGY     RMS[dD(SAO)]   TOL
  12  -415.03625693331    -1272.1355147     499.93898404    0.118D-05 0.490D-13
                            Exc = -54.3762782766     Coul =  554.315262321    
                              N = 57.999939010    
                            current damping = 0.100
 
          Norm of current diis error: 0.11375E-02
          max. resid. norm for Fia-block=  3.531D-05 for orbital     25a         
          max. resid. fock norm         =  5.212D-05 for orbital    584a         

 ITERATION  ENERGY          1e-ENERGY        2e-ENERGY     RMS[dD(SAO)]   TOL
  13  -415.03625697349    -1272.1347663     499.93823565    0.586D-06 0.490D-13
                            Exc = -54.3762805875     Coul =  554.314516236    
                              N = 57.999939011    
                            current damping = 0.150
 
          Norm of current diis error: 0.48420E-03
          max. resid. norm for Fia-block=  1.483D-05 for orbital     27a         
          max. resid. fock norm         =  2.713D-05 for orbital    578a         

 ITERATION  ENERGY          1e-ENERGY        2e-ENERGY     RMS[dD(SAO)]   TOL
  14  -415.03625698074    -1272.1340645     499.93753387    0.344D-06 0.490D-13
                            Exc = -54.3762640077     Coul =  554.313797876    
                              N = 57.999939011    
                            current damping = 0.050
 
          Norm of current diis error: 0.23633E-03
          max. resid. norm for Fia-block=  9.294D-06 for orbital     27a         
          max. resid. fock norm         =  1.841D-05 for orbital    492a         

 ITERATION  ENERGY          1e-ENERGY        2e-ENERGY     RMS[dD(SAO)]   TOL
  15  -415.03625698178    -1272.1342827     499.93775208    0.310D-06 0.490D-13
                            Exc = -54.3762687607     Coul =  554.314020844    
                              N = 57.999939010    
                            current damping = 0.100
 
          Norm of current diis error: 0.18051E-03
          max. resid. norm for Fia-block=  5.293D-06 for orbital     29a         
          max. resid. fock norm         =  1.060D-05 for orbital    489a         
          mo-orthogonalization: Cholesky decomposition

 ITERATION  ENERGY          1e-ENERGY        2e-ENERGY     RMS[dD(SAO)]   TOL
  16  -415.03625698341    -1272.1343455     499.93781482    0.170D-06 0.490D-13
                            Exc = -54.3762710795     Coul =  554.314085904    
                              N = 57.999939011    
                            current damping = 0.050
 
          Norm of current diis error: 0.42554E-04
          max. resid. norm for Fia-block=  1.646D-06 for orbital     29a         
          max. resid. fock norm         =  2.482D-06 for orbital    578a         

 DENSITY CONVERGED !


 ITERATION  ENERGY          1e-ENERGY        2e-ENERGY     RMS[dD(SAO)]   TOL
  17  -415.03625698342    -1272.1342777     499.93774709    0.498D-07 0.490D-13
                            Exc = -54.3762703476     Coul =  554.314017435    
                              N = 57.999939011    
                            current damping = 0.100
 
          Norm of current diis error: 0.40211E-04
          max. resid. norm for Fia-block=  8.916D-07 for orbital     28a         
          max. resid. fock norm         =  1.544D-06 for orbital    578a         

 DENSITY CONVERGED !


 ITERATION  ENERGY          1e-ENERGY        2e-ENERGY     RMS[dD(SAO)]   TOL
  18  -415.03625698349    -1272.1342931     499.93776246    0.248D-07 0.490D-13
                            Exc = -54.3762691571     Coul =  554.314031615    
                              N = 57.999939011    
                            current damping = 0.150
 
          Norm of current diis error: 0.76271E-05
          max. resid. norm for Fia-block=  2.956D-07 for orbital     25a         
          max. resid. fock norm         =  4.530D-07 for orbital    571a         

 ENERGY & DENSITY CONVERGED !

          Overall gridpoints after grid construction =        392513

 ITERATION  ENERGY          1e-ENERGY        2e-ENERGY     RMS[dD(SAO)]   TOL
  19  -415.03611463900    -1272.1343062     499.93791787    0.617D-08 0.490D-13
                            Exc = -54.3761280845     Coul =  554.314045950    
                              N = 57.999986835    
                            current damping = 0.050
 
          Norm of current diis error: 0.51473E-05
          max. resid. norm for Fia-block=  1.347D-07 for orbital     25a         
          max. resid. fock norm         =  2.429D-07 for orbital    571a         

 End of SCF iterations

   convergence criteria satisfied after    19 iterations


                  ------------------------------------------ 
                 |  total energy      =   -415.03611463900  |
                  ------------------------------------------ 
                 :  kinetic energy    =    412.95544990203  :
                 :  potential energy  =   -827.99156454103  :
                 :  virial theorem    =      1.99498678630  :
                 :  wavefunction norm =      1.00000000000  :
                  .......................................... 


 <geterg> : there is no data group $energy 


 <skperg> : $end is missing 


 orbitals $scfmo  will be written to file mos

    irrep                 25a         26a         27a         28a         29a   
 eigenvalues H         -0.34010    -0.26093    -0.25637    -0.23134    -0.22693
            eV          -9.2546     -7.1002     -6.9763     -6.2952     -6.1751
 occupation              2.0000      2.0000      2.0000      2.0000      2.0000 

    irrep                 30a         31a         32a         33a         34a   
 eigenvalues H         -0.07789    -0.02820    -0.00473     0.02624     0.04468
            eV          -2.1196     -0.7674     -0.1287      0.7141      1.2157
 
 
 
 
 ==============================================================================
                           electrostatic moments
 ==============================================================================

 reference point for electrostatic moments:    0.00000   0.00000   0.00000

 
              nuc           elec       ->  total
 ------------------------------------------------------------------------------
                          charge      
 ------------------------------------------------------------------------------
          58.000000     -58.000000      -0.000000
 
 ------------------------------------------------------------------------------
                       dipole moment  
 ------------------------------------------------------------------------------
   x     171.868359    -171.349749       0.518609
   y      27.376261     -28.692784      -1.316523
   z      -2.955255       2.015574      -0.939681
 
   | dipole moment | =     1.6986 a.u. =     4.3174 debye 
 
 ------------------------------------------------------------------------------
                     quadrupole moment
 ------------------------------------------------------------------------------
  xx     537.678335    -568.629564     -30.951229
  yy     379.244407    -416.069083     -36.824676
  zz     327.259707    -362.139938     -34.880231
  xy      -8.353522       4.720819      -3.632703
  xz     -25.815848      21.352617      -4.463232
  yz    -105.840064     112.383778       6.543713
 
     1/3  trace=     -34.218712
     anisotropy=      15.958355
 
 ==============================================================================
 


    ------------------------------------------------------------------------
         total  cpu-time : 23 minutes and 22 seconds
         total wall-time :  3 minutes and 12 seconds
    ------------------------------------------------------------------------

   ****  ridft : all done  ****


    2018-04-28 21:04:43.073 

