=================================== SLURM JOB ===================================
Thu Aug 27 19:40:20 PDT 2015

The job will be started on the following node(s):
c-4-6

Slurm User:         magee
Run Directory:      /work/magee/793286
Job ID:             793286
Job Name:           _comp3a_fragA_rpa.pbe.def2-qzvp
Partition:          mf_nes2.8
Number of nodes:    1
Submitted From:     gplogin1.local:/data12/cmf/magee/RPA_Benchmarking/matt_calcs/S12L/frags/comp3a/fragA/rpa.pbe.def2-qzvp
=================================== SLURM JOB ===================================

--- SLURM job-script output ---
 operating system is UNIX !
 hostname is         c-4-6.local

 ridft (c-4-6.local) : TURBOMOLE V7.0( ) 6 Jul 2015 at 18:30:05
 Copyright (C) 2015 TURBOMOLE GmbH, Karlsruhe


    2015-08-27 19:40:20.990 



                                  r i d f t

                        DFT program with RI approximation 
                                for coulomb part 




                                                 
                                 References:     
                                                 
          TURBOMOLE:                             
              R. Ahlrichs, M. Baer, M. Haeser, H. Horn, and
              C. Koelmel
              Electronic structure calculations on workstation
              computers: the program system TURBOMOLE
              Chem. Phys. Lett. 162: 165 (1989)
          Density Functional:                              
              O. Treutler and R. Ahlrichs                      
              Efficient Molecular Numerical Integration Schemes
              J. Chem. Phys. 102: 346 (1995)                   
          Parallel Version:                                
              Performance of parallel TURBOMOLE for Density    
              Functional Calculations                          
              M. v. Arnim and R. Ahlrichs                      
              J. Comp. Chem. 19: 1746 (1998)                   
          RI-J Method:                                     
              Auxiliary Basis Sets to approximate Coulomb      
              Potentials                                       
              Chem. Phys. Lett. 240: 283 (1995)                
              K. Eichkorn, O. Treutler, H. Oehm, M. Haeser     
              and R. Ahlrichs                                  
              Chem. Phys. Lett. 242: 652 (1995)                
                                                           
              Auxiliary Basis Sets for Main Row Atoms and their
              Use to approximate Coulomb Potentials            
              K. Eichkorn, F. Weigend, O. Treutler and         
              R. Ahlrichs                                      
              Theo. Chem. Acc. 97: 119 (1997)                   
                                                           
              Accurate Coulomb-fitting basis sets for H to Rn 
              F. Weigend                                        
              Phys. Chem. Chem. Phys. 8: 1057 (2006)            
                                                           
          Multipole accelerated RI-J (MARI-J):             
              Fast evaluation of the Coulomb potential for     
              electron densities using multipole accelerated   
              resolution of identity approximation             
              M. Sierka, A. Hogekamp and R. Ahlrichs           
              J. Chem. Phys. 118: 9136 (2003)                  
          RI-JK Method:                                     
              A fully direct RI-HF algorithm: Implementation,
              optimised auxiliary basis sets, demonstration of
              accuracy and efficiency                         
              F. Weigend                                      
              Phys. Chem. Chem. Phys. 4: 4285 (2002)           
          Two-component HF and DFT with spin-orbit coupling:  
              Self-consistent treatment of spin-orbit         
              interactions with efficient Hartree-Fock and    
              density functional methods                      
              M. K. Armbruster, F. Weigend, C. van Wüllen and 
              W. Klopper                                      
              Phys. Chem. Chem. Phys. 10: 1748 (2008)         
          Relativistic all-electron 2c calculations           
              An efficient implementation of two-component    
              relativistic exact-decoupling methods for large 
              molecules                                       
              D. Peng, N. Middendorf, F. Weigend, M. Reiher   
              J. Chem. Phys. 138, 184105 (2013)               
                                         


 


              +--------------------------------------------------+
              |      general information about current run       |
              +--------------------------------------------------+

 
 PBE functional
 exchange:    LDA + PBE
 correlation: LDA (PW) + PBE
 A DFT calculation using the RI-J approximation will be carried out.
 Allocatable memory for RI due to $ricore (MB):        3000


              +--------------------------------------------------+
              | Atomic coordinate, charge and isotop information |
              +--------------------------------------------------+

                    atomic coordinates            atom    charge  isotop
         -1.38965263    4.39032136    1.13156966    c      6.000     0
          1.38965263   -4.39032136    1.13156966    c      6.000     0
         -0.19405862   -1.46264217  -10.20895352    c      6.000     0
          0.19405862    1.46264217  -10.20895352    c      6.000     0
         -1.03142613    7.33857758    0.96781809    c      6.000     0
          1.03142613   -7.33857758    0.96781809    c      6.000     0
          0.99073919   -2.62284104  -12.58205912    c      6.000     0
         -0.99073919    2.62284104  -12.58205912    c      6.000     0
         -3.14236228   -3.15720287   -5.78872346    c      6.000     0
          3.14236228    3.15720287   -5.78872346    c      6.000     0
         -0.14546696   -1.44219703  -14.97393405    c      6.000     0
          0.14546696    1.44219703  -14.97393405    c      6.000     0
          3.57666405    3.31980492    9.49921386    c      6.000     0
         -3.57666405   -3.31980492    9.49921386    c      6.000     0
          8.34360821   -2.69027006    7.54322033    c      6.000     0
         -8.34360821    2.69027006    7.54322033    c      6.000     0
         -3.18026697    3.38605834    5.02071977    c      6.000     0
          3.18026697   -3.38605834    5.02071977    c      6.000     0
         -4.14514923    3.79878190    0.93358873    c      6.000     0
          4.14514923   -3.79878190    0.93358873    c      6.000     0
          0.87816726   -3.55509472    3.81634591    c      6.000     0
         -0.87816726    3.55509472    3.81634591    c      6.000     0
         -1.15708952    3.24937709    9.04412472    c      6.000     0
          1.15708952   -3.24937709    9.04412472    c      6.000     0
          1.12621517   -3.27175920   -3.48897382    c      6.000     0
         -1.12621517    3.27175920   -3.48897382    c      6.000     0
          1.36529992    3.47831231    5.24731967    c      6.000     0
         -1.36529992   -3.47831231    5.24731967    c      6.000     0
         -0.12937216   -3.34389023   -1.06556824    c      6.000     0
          0.12937216    3.34389023   -1.06556824    c      6.000     0
          3.49338307   -3.19533112    7.64504652    c      6.000     0
         -3.49338307    3.19533112    7.64504652    c      6.000     0
         -0.89241693    2.52009890   -7.91670079    n      7.000     0
          0.89241693   -2.52009890   -7.91670079    n      7.000     0
          1.23429125    3.34634556    7.89010885    c      6.000     0
         -1.23429125   -3.34634556    7.89010885    c      6.000     0
          0.31247926    2.92778388   -5.73403158    c      6.000     0
         -0.31247926   -2.92778388   -5.73403158    c      6.000     0
          3.91465839   -3.31188035   -3.58718761    c      6.000     0
         -3.91465839    3.31188035   -3.58718761    c      6.000     0
          5.37163573   -3.45380748   -1.25964027    c      6.000     0
         -5.37163573    3.45380748   -1.25964027    c      6.000     0
         -5.88633949    2.95520116    8.96937169    c      6.000     0
          5.88633949   -2.95520116    8.96937169    c      6.000     0
          5.19364639   -3.57691898    3.28595213    o      8.000     0
         -5.19364639    3.57691898    3.28595213    o      8.000     0
          1.21750349   -3.15220152   11.57112811    o      8.000     0
         -1.21750349    3.15220152   11.57112811    o      8.000     0
         -3.64352559   -3.55545244    4.10544245    o      8.000     0
          3.64352559    3.55545244    4.10544245    o      8.000     0
         -5.95191601    2.92370604   11.33732515    o      8.000     0
          5.95191601   -2.92370604   11.33732515    o      8.000     0
          5.10680119   -3.05154790   -5.63973406    o      8.000     0
         -5.10680119    3.05154790   -5.63973406    o      8.000     0
         -2.38509327   -2.75436220   -0.68348394    o      8.000     0
          2.38509327    2.75436220   -0.68348394    o      8.000     0
         -3.08311181    3.06893811   12.02861702    h      1.000     0
          3.08311181   -3.06893811   12.02861702    h      1.000     0
         -2.85736947    2.56305691   -7.68603571    h      1.000     0
          2.85736947   -2.56305691   -7.68603571    h      1.000     0
          3.36139458    3.28226267    2.24385604    h      1.000     0
         -3.36139458   -3.28226267    2.24385604    h      1.000     0
         -2.23085704   -1.81457985  -10.21860359    h      1.000     0
          2.23085704    1.81457985  -10.21860359    h      1.000     0
          7.38405460   -3.09609536   -1.38071144    h      1.000     0
         -7.38405460    3.09609536   -1.38071144    h      1.000     0
         -3.04187874    2.30423662  -12.53715696    h      1.000     0
          3.04187874   -2.30423662  -12.53715696    h      1.000     0
          0.69391008   -4.67078752  -12.55460820    h      1.000     0
         -0.69391008    4.67078752  -12.55460820    h      1.000     0
         -2.16110384   -1.92893115  -15.08206286    h      1.000     0
          2.16110384    1.92893115  -15.08206286    h      1.000     0
         -3.78639701   -4.39141022   -4.27657066    h      1.000     0
          3.78639701    4.39141022   -4.27657066    h      1.000     0
          0.75642921   -2.25465568  -16.65025115    h      1.000     0
         -0.75642921    2.25465568  -16.65025115    h      1.000     0
         -4.06632176   -1.33067428   -5.50483425    h      1.000     0
          4.06632176    1.33067428   -5.50483425    h      1.000     0
         -5.23509016   -2.90973416    8.34546293    h      1.000     0
          5.23509016    2.90973416    8.34546293    h      1.000     0
         -3.74644820   -3.91912363   -7.61169219    h      1.000     0
          3.74644820    3.91912363   -7.61169219    h      1.000     0
         -3.41246197   -1.91689718   11.00470859    h      1.000     0
          3.41246197    1.91689718   11.00470859    h      1.000     0
          9.85055122   -2.35009441    8.90789191    h      1.000     0
         -9.85055122    2.35009441    8.90789191    h      1.000     0
          2.19149914   -8.24252827    2.41705757    h      1.000     0
         -2.19149914    8.24252827    2.41705757    h      1.000     0
         -8.23891606    1.13557290    6.18386662    h      1.000     0
          8.23891606   -1.13557290    6.18386662    h      1.000     0
         -0.95462482   -7.78998062    1.31327174    h      1.000     0
          0.95462482    7.78998062    1.31327174    h      1.000     0
         -1.59173730    8.02525039   -0.89864627    h      1.000     0
          1.59173730   -8.02525039   -0.89864627    h      1.000     0
          8.74979426   -4.40783439    6.46344253    h      1.000     0
         -8.74979426    4.40783439    6.46344253    h      1.000     0
          3.86326181    5.15816225   10.41369316    h      1.000     0
         -3.86326181   -5.15816225   10.41369316    h      1.000     0
 
       center of nuclear mass  :    0.00000000    0.00000000    0.92794586
       center of nuclear charge:    0.00000000    0.00000000    0.81897567

              +--------------------------------------------------+
              |               basis set information              |
              +--------------------------------------------------+

              we will work with the 1s 3p 5d 7f 9g ... basis set
              ...i.e. with spherical basis functions...

   type   atoms  prim   cont   basis
   ---------------------------------------------------------------------------
    c       42     77     57   def2-QZVP   [7s4p3d2f1g|15s8p3d2f1g]
    n        2     77     57   def2-QZVP   [7s4p3d2f1g|15s8p3d2f1g]
    o       12     77     57   def2-QZVP   [7s4p3d2f1g|15s8p3d2f1g]
    h       42     33     30   def2-QZVP   [4s3p2d1f|7s3p2d1f]
   ---------------------------------------------------------------------------
   total:   98   5698   4452
   ---------------------------------------------------------------------------

   total number of primitive shells          :  100
   total number of contracted shells         : 1372
   total number of cartesian basis functions : 5502
   total number of SCF-basis functions       : 4452


 integral neglect threshold       :  0.61E-14
 integral storage threshold THIZE :  0.10E-04
 integral storage threshold THIME :         5

 RI-J AUXILIARY BASIS SET information:

              we will work with the 1s 3p 5d 7f 9g ... basis set
              ...i.e. with spherical basis functions...

   type   atoms  prim   cont   basis
   ---------------------------------------------------------------------------
    c       42     70     49   def2-QZVP   [6s4p3d1f1g|12s5p4d2f1g]
    n        2     70     49   def2-QZVP   [6s4p3d1f1g|12s5p4d2f1g]
    o       12     70     49   def2-QZVP   [6s4p3d1f1g|12s5p4d2f1g]
    h       42     16     11   def2-QZVP   [3s1p1d|5s2p1d]
   ---------------------------------------------------------------------------
   total:   98   4592   3206
   ---------------------------------------------------------------------------

   total number of primitive shells          :   80
   total number of contracted shells         : 1050
   total number of cartesian basis functions : 3920
   total number of SCF-basis functions       : 3206


 symmetry group of the molecule :   c1 

 the group has the following generators :
   c1(z)

    1 symmetry operations found

 there are 1 real representations :   a   

 maximum number of shells which are related by symmetry :  1


    mo occupation :
   irrep   mo's   occupied
    a     4452      202
 
 number of basis functions   :         4452
 number of occupied orbitals :          202
 
  
           ------------------
           density functional
           ------------------
 PBE functional
 exchange:    LDA + PBE
 correlation: LDA (PW) + PBE
 spherical integration : Lebedev's spherical grid
 spherical gridsize    :           6
    i.e. gridpoints    :         974
 value for diffuse not defined
 radial integration    : Chebyshev 2nd kind (scaling 3)
 radial gridsize       :          10
 integration cells     :          98
 partition function    : becke
 partition sharpness   :           3
  

 biggest AO integral is expected to be     6.990327543
  
           ------------------------
               RI-J - INFORMATION
           ------------------------
 Contributions to RI integral batches: 
  neglected integral batches:      570188
  direct contribution:             350241
  memory contribution:       21449
 Memory core needed for (P|Q) and Cholesky     79 MByte
 Memory core minimum needed except of (P|Q)     9 MByte
 Total minimum memory core needed (sum)        88 MByte
  
 ****************************************
 Memory allocated for RI-J  1643 MByte
 ****************************************
                                            

          ------------------------
          nuclear repulsion energy  :   8859.31557760    
          ------------------------

 
          -----------------
          -S,T+V- integrals
          -----------------

 1e-integrals will be neglected if expon. factor < 0.607408E-15
 
   Difference densities algorithm switched on.
   The maximal number of linear combinations of
   difference densities is          20 .

 automatic virtual orbital shift switched on 
      shift if e(lumo)-e(homo) < 0.10000000    


 DIIS switched on: error vector is FDS-SDF
 Max. Iterations for DIIS is     :   4
 DIIS matrix (see manual) 
    Scaling factor of diagonals  :  1.200
    threshold for scaling factor :  0.000

 scf convergence criterion : increment of total energy < .1000000D-08
                  and increment of one-electron energy < .1000000D-05


 <geterg> : there is no data group $energy 

  MOs are in ASCII format !


 reading orbital data $scfmo  from file mos . 

 orbital characterization : expanded
 
 mo provided and orthogonalized by Cholesky decomposition

 DSCF restart information will be dumped onto file mos


 Starting SCF iterations

          Overall gridpoints after grid construction =       3049556

 ITERATION  ENERGY          1e-ENERGY        2e-ENERGY     NORM[dD(SAO)]  TOL
   1  -2626.0204700013    -21164.290044     9678.9539968    0.000D+00 0.606D-14
                            Exc = -354.318553174     Coul =  10033.2725499    
                              N = 404.00003888    
                            current damping = 0.700
 
          max. resid. norm for Fia-block=  8.017D-01 for orbital     68a         
          max. resid. fock norm         =  5.399D+01 for orbital   3851a         

 ITERATION  ENERGY          1e-ENERGY        2e-ENERGY     NORM[dD(SAO)]  TOL
   2  -2634.4361722674    -21225.497993     9731.7462427    0.116D+02 0.589D-14
                            Exc = -355.498823689     Coul =  10087.2450664    
                              N = 404.00003356    
                            current damping = 0.650
 
          Norm of current diis error:  8.6282    
          max. resid. norm for Fia-block=  1.557D-01 for orbital      7a         
          max. resid. fock norm         =  3.257D-01 for orbital   3880a         

 ITERATION  ENERGY          1e-ENERGY        2e-ENERGY     NORM[dD(SAO)]  TOL
   3  -2635.6039721703    -21241.132145     9746.2125949    0.626D+01 0.494D-14
                            Exc = -357.559321799     Coul =  10103.7719167    
                              N = 404.00002971    
                            current damping = 0.550
 
          Norm of current diis error:  4.3603    
          max. resid. norm for Fia-block=  6.289D-02 for orbital      5a         
          max. resid. fock norm         =  6.676D-02 for orbital      5a         

 ITERATION  ENERGY          1e-ENERGY        2e-ENERGY     NORM[dD(SAO)]  TOL
   4  -2636.0119458595    -21248.401625     9753.0741012    0.282D+01 0.322D-14
                            Exc = -357.012597437     Coul =  10110.0866986    
                              N = 404.00002943    
                            current damping = 0.450
 
          Norm of current diis error:  1.9797    
          max. resid. norm for Fia-block=  3.743D-02 for orbital     69a         
          max. resid. fock norm         =  7.141D-02 for orbital   4228a         

 ITERATION  ENERGY          1e-ENERGY        2e-ENERGY     NORM[dD(SAO)]  TOL
   5  -2636.0800005386    -21247.936721     9752.5411426    0.126D+01 0.266D-14
                            Exc = -357.867959306     Coul =  10110.4091019    
                              N = 404.00002816    
                            current damping = 0.500
 
          Norm of current diis error:  1.1398    
          max. resid. norm for Fia-block=  1.546D-02 for orbital    191a         
          max. resid. fock norm         =  2.562D-02 for orbital   4289a         
          mo-orthogonalization: Cholesky decomposition

 ITERATION  ENERGY          1e-ENERGY        2e-ENERGY     NORM[dD(SAO)]  TOL
   6  -2636.1064859720    -21252.936574     9757.5145109    0.514D+00 0.241D-14
                            Exc = -357.822925565     Coul =  10115.3374364    
                              N = 404.00002797    
                            current damping = 0.550
 
          Norm of current diis error: 0.55061    
          max. resid. norm for Fia-block=  8.556D-03 for orbital    193a         
          max. resid. fock norm         =  1.935D-02 for orbital   4443a         

 ITERATION  ENERGY          1e-ENERGY        2e-ENERGY     NORM[dD(SAO)]  TOL
   7  -2636.1121108293    -21250.715032     9755.2873433    0.231D+00 0.228D-14
                            Exc = -357.734951698     Coul =  10113.0222950    
                              N = 404.00002818    
                            current damping = 0.600
 
          Norm of current diis error: 0.30919    
          max. resid. norm for Fia-block=  4.170D-03 for orbital    195a         
          max. resid. fock norm         =  9.449D-03 for orbital   4448a         

 ITERATION  ENERGY          1e-ENERGY        2e-ENERGY     NORM[dD(SAO)]  TOL
   8  -2636.1142038934    -21251.024710     9755.5949282    0.779D-01 0.222D-14
                            Exc = -357.743089293     Coul =  10113.3380175    
                              N = 404.00002803    
                            current damping = 0.650
 
          Norm of current diis error: 0.12669    
          max. resid. norm for Fia-block=  1.984D-03 for orbital    200a         
          max. resid. fock norm         =  5.134D-03 for orbital   4447a         

 ITERATION  ENERGY          1e-ENERGY        2e-ENERGY     NORM[dD(SAO)]  TOL
   9  -2636.1145074954    -21251.068515     9755.6384295    0.328D-01 0.221D-14
                            Exc = -357.784295890     Coul =  10113.4227254    
                              N = 404.00002803    
                            current damping = 0.500
 
          Norm of current diis error: 0.52083E-01
          max. resid. norm for Fia-block=  7.181D-04 for orbital    199a         
          max. resid. fock norm         =  1.219D-03 for orbital   4424a         

 ITERATION  ENERGY          1e-ENERGY        2e-ENERGY     NORM[dD(SAO)]  TOL
  10  -2636.1145597665    -21251.316013     9755.8858754    0.116D-01 0.219D-14
                            Exc = -357.777791390     Coul =  10113.6636668    
                              N = 404.00002802    
                            current damping = 0.350
 
          Norm of current diis error: 0.22617E-01
          max. resid. norm for Fia-block=  2.455D-04 for orbital    195a         
          max. resid. fock norm         =  5.448D-04 for orbital   4171a         
          mo-orthogonalization: Cholesky decomposition

 ITERATION  ENERGY          1e-ENERGY        2e-ENERGY     NORM[dD(SAO)]  TOL
  11  -2636.1145701132    -21251.181007     9755.7508589    0.415D-02 0.217D-14
                            Exc = -357.776977020     Coul =  10113.5278360    
                              N = 404.00002802    
                            current damping = 0.400
 
          Norm of current diis error: 0.86944E-02
          max. resid. norm for Fia-block=  1.827D-04 for orbital    197a         
          max. resid. fock norm         =  3.285D-04 for orbital   4209a         

 ITERATION  ENERGY          1e-ENERGY        2e-ENERGY     NORM[dD(SAO)]  TOL
  12  -2636.1145714326    -21251.199491     9755.7693423    0.265D-02 0.216D-14
                            Exc = -357.775467992     Coul =  10113.5448103    
                              N = 404.00002802    
                            current damping = 0.450
 
          Norm of current diis error: 0.52069E-02
          max. resid. norm for Fia-block=  7.877D-05 for orbital    197a         
          max. resid. fock norm         =  1.324D-04 for orbital   4210a         

 ITERATION  ENERGY          1e-ENERGY        2e-ENERGY     NORM[dD(SAO)]  TOL
  13  -2636.1145721010    -21251.197027     9755.7668771    0.603D-03 0.214D-14
                            Exc = -357.776297922     Coul =  10113.5431751    
                              N = 404.00002802    
                            current damping = 0.500
 
          Norm of current diis error: 0.13415E-02
          max. resid. norm for Fia-block=  1.691D-05 for orbital    195a         
          max. resid. fock norm         =  3.479D-05 for orbital   4411a         

 ITERATION  ENERGY          1e-ENERGY        2e-ENERGY     NORM[dD(SAO)]  TOL
  14  -2636.1145721263    -21251.200810     9755.7706603    0.270D-03 0.213D-14
                            Exc = -357.776433078     Coul =  10113.5470934    
                              N = 404.00002802    
                            current damping = 0.550
 
          Norm of current diis error: 0.76383E-03
          max. resid. norm for Fia-block=  1.052D-05 for orbital    195a         
          max. resid. fock norm         =  2.582D-05 for orbital   4447a         

 ITERATION  ENERGY          1e-ENERGY        2e-ENERGY     NORM[dD(SAO)]  TOL
  15  -2636.1145721396    -21251.200323     9755.7701738    0.129D-03 0.212D-14
                            Exc = -357.776418708     Coul =  10113.5465925    
                              N = 404.00002802    
                            current damping = 0.600
 
          Norm of current diis error: 0.35218E-03
          max. resid. norm for Fia-block=  5.139D-06 for orbital    195a         
          max. resid. fock norm         =  1.005D-05 for orbital   4447a         
          mo-orthogonalization: Cholesky decomposition

 ITERATION  ENERGY          1e-ENERGY        2e-ENERGY     NORM[dD(SAO)]  TOL
  16  -2636.1145721416    -21251.198450     9755.7682998    0.320D-04 0.211D-14
                            Exc = -357.776418743     Coul =  10113.5447185    
                              N = 404.00002802    
                            current damping = 0.450
 
          Norm of current diis error: 0.22490E-03
          max. resid. norm for Fia-block=  1.949D-06 for orbital    191a         
          max. resid. fock norm         =  4.039D-06 for orbital   4435a         

 ITERATION  ENERGY          1e-ENERGY        2e-ENERGY     NORM[dD(SAO)]  TOL
  17  -2636.1145721425    -21251.199315     9755.7691655    0.908D-05 0.210D-14
                            Exc = -357.776405117     Coul =  10113.5455706    
                              N = 404.00002802    
                            current damping = 0.500
 
          Norm of current diis error: 0.44924E-04
          max. resid. norm for Fia-block=  9.616D-07 for orbital    202a         
          max. resid. fock norm         =  2.765D-06 for orbital   4449a         

 ITERATION  ENERGY          1e-ENERGY        2e-ENERGY     NORM[dD(SAO)]  TOL
  18  -2636.1145721409    -21251.199265     9755.7691152    0.779D-05 0.208D-14
                            Exc = -357.776406335     Coul =  10113.5455216    
                              N = 404.00002802    
                            current damping = 0.550
 
          Norm of current diis error: 0.48560E-04
          max. resid. norm for Fia-block=  4.819D-07 for orbital    197a         
          max. resid. fock norm         =  1.178D-06 for orbital   4449a         

 ITERATION  ENERGY          1e-ENERGY        2e-ENERGY     NORM[dD(SAO)]  TOL
  19  -2636.1145721432    -21251.199275     9755.7691251    0.243D-05 0.207D-14
                            Exc = -357.776408561     Coul =  10113.5455336    
                              N = 404.00002802    
                            current damping = 0.600
 
          Norm of current diis error: 0.19856E-04
          max. resid. norm for Fia-block=  1.897D-07 for orbital    202a         
          max. resid. fock norm         =  4.790D-07 for orbital   4449a         

 ITERATION  ENERGY          1e-ENERGY        2e-ENERGY     NORM[dD(SAO)]  TOL
  20  -2636.1145721432    -21251.199297     9755.7691471    0.150D-05 0.205D-14
                            Exc = -357.776407461     Coul =  10113.5455546    
                              N = 404.00002802    
                            current damping = 0.450
 
          Norm of current diis error: 0.60512E-05
          max. resid. norm for Fia-block=  9.715D-08 for orbital    197a         
          max. resid. fock norm         =  1.791D-07 for orbital   4441a         
          mo-orthogonalization: Cholesky decomposition

 ITERATION  ENERGY          1e-ENERGY        2e-ENERGY     NORM[dD(SAO)]  TOL
  21  -2636.1145721422    -21251.199280     9755.7691300    0.908D-06 0.203D-14
                            Exc = -357.776408164     Coul =  10113.5455381    
                              N = 404.00002802    
                            current damping = 0.500
 
          Norm of current diis error: 0.30243E-05
          max. resid. norm for Fia-block=  4.840D-08 for orbital    195a         
          max. resid. fock norm         =  9.106D-08 for orbital   4129a         

 ITERATION  ENERGY          1e-ENERGY        2e-ENERGY     NORM[dD(SAO)]  TOL
  22  -2636.1145721448    -21251.199296     9755.7691465    0.908D-06 0.606D-14
                            Exc = -357.776407787     Coul =  10113.5455543    
                              N = 404.00002802    
                            current damping = 0.550
 
          Norm of current diis error: 0.29074E-05
          max. resid. norm for Fia-block=  2.393D-08 for orbital    191a         
          max. resid. fock norm         =  5.751D-07 for orbital    967a         

 ITERATION  ENERGY          1e-ENERGY        2e-ENERGY     NORM[dD(SAO)]  TOL
  23  -2636.1145721446    -21251.199290     9755.7691401    0.872D-05 0.384D-14
                            Exc = -357.776407668     Coul =  10113.5455477    
                              N = 404.00002802    
                            current damping = 0.600
 
          Norm of current diis error: 0.79426E-06
          max. resid. norm for Fia-block=  8.891D-09 for orbital    197a         
          max. resid. fock norm         =  5.371D-07 for orbital    967a         

 ENERGY CONVERGED !


 ITERATION  ENERGY          1e-ENERGY        2e-ENERGY     NORM[dD(SAO)]  TOL
  24  -2636.1145721450    -21251.199288     9755.7691384    0.193D-05 0.260D-14
                            Exc = -357.776407763     Coul =  10113.5455462    
                              N = 404.00002802    
                            current damping = 0.450
 
          Norm of current diis error: 0.16516E-06
          max. resid. norm for Fia-block=  8.023D-09 for orbital     71a         
          max. resid. fock norm         =  5.616D-07 for orbital    967a         

 End of SCF iterations

   convergence criteria satisfied after   24 iterations


                  ------------------------------------------ 
                 |  total energy      =  -2636.11457214498  |
                  ------------------------------------------ 
                 :  kinetic energy    =   2625.02932294056  :
                 :  potential energy  =  -5261.14389508554  :
                 :  virial theorem    =      1.99579485303  :
                 :  wavefunction norm =      1.00000000000  :
                  .......................................... 


 <geterg> : there is no data group $energy 


 <skperg> : $end is missing 


 orbitals $scfmo  will be written to file mos

    irrep                198a        199a        200a        201a        202a   
 eigenvalues H         -0.21573    -0.20368    -0.20181    -0.19288    -0.18245
            eV          -5.8703     -5.5425     -5.4914     -5.2485     -4.9647
 occupation              2.0000      2.0000      2.0000      2.0000      2.0000 

    irrep                203a        204a        205a        206a        207a   
 eigenvalues H         -0.10368    -0.10132    -0.09514    -0.09449    -0.08022
            eV          -2.8212     -2.7571     -2.5890     -2.5714     -2.1830
 
 
 
 
 ==============================================================================
                           electrostatic moments
 ==============================================================================

 reference point for electrostatic moments:    0.00000   0.00000   0.00000

 
              nuc           elec       ->  total
 ------------------------------------------------------------------------------
                          charge      
 ------------------------------------------------------------------------------
         404.000000    -404.000000       0.000000
 
 ------------------------------------------------------------------------------
                       dipole moment  
 ------------------------------------------------------------------------------
   x       0.000000      -0.000000      -0.000000
   y       0.000000      -0.000000      -0.000000
   z     330.866170    -336.357870      -5.491701
 
   | dipole moment | =     5.4917 a.u. =    13.9585 debye 
 
 ------------------------------------------------------------------------------
                     quadrupole moment
 ------------------------------------------------------------------------------
  xx    5316.367665   -5567.132541    -250.764876
  yy    4887.730659   -5124.346756    -236.616096
  zz   22427.779167  -22678.136224    -250.357056
  xy   -1942.603680    1945.836331       3.232651
  xz       0.000000      -0.000000      -0.000000
  yz       0.000000       0.000000       0.000000
 
     1/3  trace=    -245.912676
     anisotropy=      15.031109
 
 ==============================================================================
 
 


    ------------------------------------------------------------------------
         total  cpu-time : 13 hours  1 minutes and 45 seconds
         total wall-time : 13 hours  3 minutes and 29 seconds
    ------------------------------------------------------------------------


   ****  ridft : all done  ****


    2015-08-28 08:43:49.602 

 ridft ended normally
Job Done
slurmstepd: Exceeded step memory limit at some point. Step may have been partially swapped out to disk.
