 operating system is UNIX !

 ridft (c-18-414.gp.local) : TURBOMOLE V7.2 ( 21454 ) 4 Oct 2017 at 12:48:15
 Copyright (C) 2017 TURBOMOLE GmbH, Karlsruhe


    2018-05-19 18:07:41.173 



                                  r i d f t

                        DFT program with RI approximation 
                                for coulomb part 




                                                 
                                 References:     
                                                 
          TURBOMOLE:                             
              R. Ahlrichs, M. Baer, M. Haeser, H. Horn, and
              C. Koelmel
              Electronic structure calculations on workstation
              computers: the program system TURBOMOLE
              Chem. Phys. Lett. 162: 165 (1989)
          Density Functional:                              
              O. Treutler and R. Ahlrichs                      
              Efficient Molecular Numerical Integration Schemes
              J. Chem. Phys. 102: 346 (1995)                   
          Parallel Version:                                
              Performance of parallel TURBOMOLE for Density    
              Functional Calculations                          
              M. v. Arnim and R. Ahlrichs                      
              J. Comp. Chem. 19: 1746 (1998)                   
          RI-J Method:                                     
              Auxiliary Basis Sets to approximate Coulomb      
              Potentials                                       
              Chem. Phys. Lett. 240: 283 (1995)                
              K. Eichkorn, O. Treutler, H. Oehm, M. Haeser     
              and R. Ahlrichs                                  
              Chem. Phys. Lett. 242: 652 (1995)                
                                                           
              Auxiliary Basis Sets for Main Row Atoms and their
              Use to approximate Coulomb Potentials            
              K. Eichkorn, F. Weigend, O. Treutler and         
              R. Ahlrichs                                      
              Theo. Chem. Acc. 97: 119 (1997)                   
                                                           
              Accurate Coulomb-fitting basis sets for H to Rn 
              F. Weigend                                        
              Phys. Chem. Chem. Phys. 8: 1057 (2006)            
                                                           
          Multipole accelerated RI-J (MARI-J):             
              Fast evaluation of the Coulomb potential for     
              electron densities using multipole accelerated   
              resolution of identity approximation             
              M. Sierka, A. Hogekamp and R. Ahlrichs           
              J. Chem. Phys. 118: 9136 (2003)                  
          RI-JK Method:                                     
              A fully direct RI-HF algorithm: Implementation,
              optimised auxiliary basis sets, demonstration of
              accuracy and efficiency                         
              F. Weigend                                      
              Phys. Chem. Chem. Phys. 4: 4285 (2002)           
          Two-component HF and DFT with spin-orbit coupling:  
              Self-consistent treatment of spin-orbit         
              interactions with efficient Hartree-Fock and    
              density functional methods                      
              M. K. Armbruster, F. Weigend, C. van Wüllen and 
              W. Klopper                                      
              Phys. Chem. Chem. Phys. 10: 1748 (2008)         
          Relativistic all-electron 2c calculations           
              An efficient implementation of two-component    
              relativistic exact-decoupling methods for large 
              molecules                                       
              D. Peng, N. Middendorf, F. Weigend, M. Reiher   
              J. Chem. Phys. 138, 184105 (2013)               
                                         




              +--------------------------------------------------+
              |      general information about current run       |
              +--------------------------------------------------+

 
 A HF calculation using the RI-JK approximation will be carried out.
 Allocatable memory for RI due to $ricore (MB):                   500


              +--------------------------------------------------+
              | Atomic coordinate, charge and isotop information |
              +--------------------------------------------------+

                    atomic coordinates            atom    charge  isotop
          4.22975174    0.48107567    0.53388399    n      7.000     0
          4.99257055    1.50137571    1.96100534    h      1.000     0
          5.01966458    1.17532561   -1.06415521    h      1.000     0
          4.93330215   -2.18567338    0.82443458    c      6.000     0
          4.12773571   -3.26476857   -0.72774007    h      1.000     0
          6.96551106   -2.53846531    0.87315814    h      1.000     0
          4.11226797   -2.91209735    2.56267271    h      1.000     0
 
       center of nuclear mass  :    4.63389855   -0.82430206    0.67661265
       center of nuclear charge:    4.69032361   -0.87695225    0.68270757

              +--------------------------------------------------+
              |               basis set information              |
              +--------------------------------------------------+

              we will work with the 1s 3p 5d 7f 9g ... basis set
              ...i.e. with spherical basis functions...

   type   atoms  prim   cont   basis
   ---------------------------------------------------------------------------
    n        1     77     57   def2-QZVP   [7s4p3d2f1g|15s8p3d2f1g]
    h        5     33     30   def2-QZVP   [4s3p2d1f|7s3p2d1f]
    c        1     77     57   def2-QZVP   [7s4p3d2f1g|15s8p3d2f1g]
   ---------------------------------------------------------------------------
   total:    7    319    264
   ---------------------------------------------------------------------------

   total number of primitive shells          :   71
   total number of contracted shells         :   84
   total number of cartesian basis functions :  319
   total number of SCF-basis functions       :  264


 integral neglect threshold       :  0.10E-12
 integral storage threshold THIZE :  0.10E-04
 integral storage threshold THIME :         5

 RI-JK AUXILIARY BASIS SET information:

              we will work with the 1s 3p 5d 7f 9g ... basis set
              ...i.e. with spherical basis functions...

   type   atoms  prim   cont   basis
   ---------------------------------------------------------------------------
    n        1     97     77   def2-QZVP   [10s8p4d2f1g|14s10p6d2f1g]
    h        5     20     18   def2-QZVP   [2s2p2d|4s2p2d]
    c        1     97     75   def2-QZVP   [10s8p5d1f1g|14s10p6d2f1g]
   ---------------------------------------------------------------------------
   total:    7    294    242
   ---------------------------------------------------------------------------

   total number of primitive shells          :   74
   total number of contracted shells         :   80
   total number of cartesian basis functions :  282
   total number of SCF-basis functions       :  242


 symmetry group of the molecule :   c1 

 the group has the following generators :
   c1(z)

    1 symmetry operations found

 there are 1 real representations :   a   

 maximum number of shells which are related by symmetry :  1


    mo occupation :
   irrep   mo's   occupied
    a      264        9
 
 number of basis functions   :                    264
 number of occupied orbitals :                      9
 

 biggest AO integral is expected to be     6.129561670
  
           ------------------------
               RI-JK - INFORMATION
           ------------------------
 Contributions to RI integral batches: 
  neglected integral batches:                    59
  direct contribution:                         1348
  memory contribution:                  2163
 Memory core needed for (P|Q) and Cholesky      1 MByte
 Memory core minimum needed except of (P|Q)     1 MByte
 Total minimum memory core needed (sum)         1 MByte
  
 ****************************************
 Memory allocated for RI-J    49 MByte
 ****************************************
                                            
 total memory allocated for calculation of  (Q|P)**(-1/2) :    1 MiB

  forming (P|Q)**(-1/2) 
 eigenvalues of original matrix 
 smallest =0.3241420554190E-06  largest = 17.96258865586    
  The symmetry information takes                      1  MB

          ------------------------
          nuclear repulsion energy  :   42.0379135714    
          ------------------------


         -----------------
         -S,T+V- integrals
         -----------------

 1e-integrals will be neglected if expon. factor < 0.104764E-13
 
   Difference densities algorithm switched on.
   The maximal number of linear combinations of
   difference densities is                    20 .

 DIIS switched on: error vector is FDS-SDF
 Max. Iterations for DIIS is     :   5
 DIIS matrix (see manual) 
    Scaling factor of diagonals  :  1.200
    threshold for scaling factor :  0.000

 scf convergence criterion : increment of total energy < .1000000D-08
                  and increment of one-electron energy < .1000000D-05

  MOs are in ASCII format !


 automatic virtual orbital shift switched on 
      shift if e(lumo)-e(homo) < 0.10000000    


 reading orbital data $scfmo  from file mos
 orbital characterization : scfconv=9

 DSCF restart information will be dumped onto file mos


 Starting SCF iterations

 
 BLOCKING OF MOS FOR RI-K
 
 
 occupied MOs partitioned into blocks of maximum length 9
 this requires 6 MiB core memory.
 
            MULTIPLE PASS Statistics 
 ----------------------------------------------------
  pass       irrep     lambda      batch : MO  to  MO
 ----------------------------------------------------
   1       1  ->  1    1  ->  9             1  ->   9



 ITERATION  ENERGY          1e-ENERGY        2e-ENERGY     NORM[dD(SAO)]  TOL
   1  -95.248681597087    -211.64166460     74.355069436    0.000D+00 0.104D-12
                           RI-K = -13.5759417866     Coul =  87.9310112229    
                            current damping = 0.700
 
          max. resid. norm for Fia-block=  9.830D-02 for orbital      1a         
          max. resid. fock norm         =  6.082D-01 for orbital    262a         

 End of SCF iterations

   convergence criteria cannot be satisfied within     1 iterations !


                  ------------------------------------------ 
                 |  total energy      =    -95.24868159709  |
                  ------------------------------------------ 
                 :  kinetic energy    =     95.50363628937  :
                 :  potential energy  =   -190.75231788646  :
                 :  virial theorem    =      2.00267672673  :
                 :  wavefunction norm =      1.00000000000  :
                  .......................................... 


 ATTENTION : $energy will not be updated since 
 this calculation did not converge (sob) 

 A POSSIBLE REASON MAY BE THAT ...
 - THE GEOMETRY IS FAR FROM BEING REASONABLE

    irrep                  5a          6a          7a          8a          9a   
 eigenvalues H         -0.57135    -0.51593    -0.47236    -0.43738    -0.31324
            eV         -15.5473    -14.0392    -12.8538    -11.9019     -8.5238
 occupation              2.0000      2.0000      2.0000      2.0000      2.0000 

    irrep                 10a         11a         12a         13a         14a   
 eigenvalues H          0.06747     0.09929     0.11310     0.13956     0.15461
            eV           1.8361      2.7018      3.0777      3.7976      4.2072
 
 
 
 
 ==============================================================================
                           electrostatic moments
 ==============================================================================

 reference point for electrostatic moments:    0.00000   0.00000   0.00000

 
              nuc           elec       ->  total
 ------------------------------------------------------------------------------
                          charge      
 ------------------------------------------------------------------------------
          18.000000     -18.000000      -0.000000
 
 ------------------------------------------------------------------------------
                       dipole moment  
 ------------------------------------------------------------------------------
   x      84.425825     -83.872862       0.552963
   y     -15.785141      15.746685      -0.038456
   z      12.288736     -12.279779       0.008957
 
   | dipole moment | =     0.5544 a.u. =     1.4091 debye 
 
 ------------------------------------------------------------------------------
                     quadrupole moment
 ------------------------------------------------------------------------------
  xx     403.850507    -410.648762      -6.798256
  yy      59.501395     -69.568883     -10.067488
  zz      18.910649     -28.407091      -9.496442
  xy     -80.189379      80.853306       0.663927
  xz      58.275713     -58.019331       0.256381
  yz     -14.623652      14.669327       0.045675
 
     1/3  trace=      -8.787395
     anisotropy=       3.266946
 
 ==============================================================================
 

 ATTENTION: ridft did not converge! 



    ------------------------------------------------------------------------
         total  cpu-time :   1.01 seconds
         total wall-time :   1.01 seconds
    ------------------------------------------------------------------------

   ****  ridft : all done  ****


    2018-05-19 18:07:42.170 

