Using Slurm to start processes with PMI2
STARTING ridft ON 8 PROCESSORS!
RUNNING PROGRAM /beegfs/modfac/apps/TURBOMOLE/7.0_intel_GA/bin/em64t-unknown-linux-gnu_mpi/ridft_mpi.
PLEASE WAIT UNTIL ridft HAS FINISHED.
Look for the output in slave1.output.
  this is node-proc. number 1 running on node c-9-372.local
  the total number of node-proc. spawned is            8
  parallel platform: MPP, or cluster with fast interconnect

 ridft (c-9-372.local) : TURBOMOLE V7.0.2( ) 15 Jan 2016 at 17:47:42
 Copyright (C) 2016 TURBOMOLE GmbH, Karlsruhe


    2017-12-19 22:08:43.077 



                                  r i d f t

                        DFT program with RI approximation 
                                for coulomb part 




                                                 
                                 References:     
                                                 
          TURBOMOLE:                             
              R. Ahlrichs, M. Baer, M. Haeser, H. Horn, and
              C. Koelmel
              Electronic structure calculations on workstation
              computers: the program system TURBOMOLE
              Chem. Phys. Lett. 162: 165 (1989)
          Density Functional:                              
              O. Treutler and R. Ahlrichs                      
              Efficient Molecular Numerical Integration Schemes
              J. Chem. Phys. 102: 346 (1995)                   
          Parallel Version:                                
              Performance of parallel TURBOMOLE for Density    
              Functional Calculations                          
              M. v. Arnim and R. Ahlrichs                      
              J. Comp. Chem. 19: 1746 (1998)                   
          RI-J Method:                                     
              Auxiliary Basis Sets to approximate Coulomb      
              Potentials                                       
              Chem. Phys. Lett. 240: 283 (1995)                
              K. Eichkorn, O. Treutler, H. Oehm, M. Haeser     
              and R. Ahlrichs                                  
              Chem. Phys. Lett. 242: 652 (1995)                
                                                           
              Auxiliary Basis Sets for Main Row Atoms and their
              Use to approximate Coulomb Potentials            
              K. Eichkorn, F. Weigend, O. Treutler and         
              R. Ahlrichs                                      
              Theo. Chem. Acc. 97: 119 (1997)                   
                                                           
              Accurate Coulomb-fitting basis sets for H to Rn 
              F. Weigend                                        
              Phys. Chem. Chem. Phys. 8: 1057 (2006)            
                                                           
          Multipole accelerated RI-J (MARI-J):             
              Fast evaluation of the Coulomb potential for     
              electron densities using multipole accelerated   
              resolution of identity approximation             
              M. Sierka, A. Hogekamp and R. Ahlrichs           
              J. Chem. Phys. 118: 9136 (2003)                  
          RI-JK Method:                                     
              A fully direct RI-HF algorithm: Implementation,
              optimised auxiliary basis sets, demonstration of
              accuracy and efficiency                         
              F. Weigend                                      
              Phys. Chem. Chem. Phys. 4: 4285 (2002)           
          Two-component HF and DFT with spin-orbit coupling:  
              Self-consistent treatment of spin-orbit         
              interactions with efficient Hartree-Fock and    
              density functional methods                      
              M. K. Armbruster, F. Weigend, C. van Wüllen and 
              W. Klopper                                      
              Phys. Chem. Chem. Phys. 10: 1748 (2008)         
          Relativistic all-electron 2c calculations           
              An efficient implementation of two-component    
              relativistic exact-decoupling methods for large 
              molecules                                       
              D. Peng, N. Middendorf, F. Weigend, M. Reiher   
              J. Chem. Phys. 138, 184105 (2013)               
                                         


 


              +--------------------------------------------------+
              |      general information about current run       |
              +--------------------------------------------------+

 

 SCF run will be profiled !


 DENSITY CONVERGENCE CHECK SWITCHED ON !
 SCF CONVERGENCE IF RMS(delta[D]) <     0.1000000000E-06

 PBE functional
 exchange:    LDA + PBE
 correlation: LDA (PW) + PBE
 A DFT calculation using the RI-J approximation will be carried out.
 Allocatable memory for RI due to $ricore (MB):       20000


              +--------------------------------------------------+
              | Atomic coordinate, charge and isotop information |
              +--------------------------------------------------+

                    atomic coordinates            atom    charge  isotop
         12.63968419   -1.83655794    3.92503315    c      0.000     0
         -2.25399146   12.40612891   -3.12066365    c      0.000     0
         -3.48368066   13.22846418   -0.60607139    c      0.000     0
         13.36855989   -3.13342015    1.41975574    c      0.000     0
         13.97392769   -7.34067937   -0.86157106    c      0.000     0
         -7.55426512   13.28346425    1.98199251    c      0.000     0
         13.30824364   -6.01964491    1.62749182    c      0.000     0
         -6.30493728   12.58972413   -0.53497677    c      0.000     0
        -10.34524069   12.51900230    2.10836032    c      0.000     0
         14.04132936  -10.22875399   -0.64875191    c      0.000     0
         14.72168977  -11.52775376   -3.14435584    c      0.000     0
        -11.58322160   13.19003954    4.63749760    c      0.000     0
          7.26214364    7.44334532    0.37389783    c      0.000     0
         10.16900072    4.55782325    1.94636797    c      0.000     0
          4.24800977   10.20874905   -1.22059478    c      0.000     0
          9.16168310    9.35774791    0.24027616    c      0.000     0
         11.61194538    8.75852692    1.10109994    c      0.000     0
          8.47896153   11.73926330   -0.74813770    c      0.000     0
         10.60486617    2.07438114    2.65105425    n      0.000     0
          1.73236142   10.57117648   -1.81951641    n      0.000     0
         12.13905716    6.38497262    1.98520579    c      0.000     0
          6.05033859   12.18380976   -1.51511733    c      0.000     0
          0.60239562   12.62401322   -3.02594406    c      0.000     0
         12.77489485    1.02124647    3.69303787    c      0.000     0
          7.80093094    5.06240661    1.19259591    n      0.000     0
          4.82721126    7.90900287   -0.31723420    n      0.000     0
         14.64992682    2.23066688    4.31888007    o      0.000     0
          1.76594450   14.43289904   -3.88621635    o      0.000     0
          9.19505083    0.80703403    2.16408589    h      0.000     0
          0.49632027    9.21113866   -1.13922482    h      0.000     0
          5.43530276   13.96437471   -2.30404862    h      0.000     0
         13.97993125    5.83472281    2.67676001    h      0.000     0
         13.07579932   10.19974803    1.04611361    h      0.000     0
          9.90377742   13.21344517   -0.88841710    h      0.000     0
         -2.91254854   13.60269064   -4.67039156    h      0.000     0
         13.95961291   -2.38172896    5.41848586    h      0.000     0
         15.26671000   -2.51128256    0.86308818    h      0.000     0
         -3.18482075   15.26241626   -0.33449921    h      0.000     0
         12.05748428   -2.52518601   -0.06348195    h      0.000     0
         -2.54586542   12.25097943    0.95956155    h      0.000     0
         10.73009588   -2.43068121    4.45869432    h      0.000     0
         -2.79791835   10.44590615   -3.50501026    h      0.000     0
         -7.28459629   13.55917050   -2.09007228    h      0.000     0
         14.62959816   -6.63315295    3.10817161    h      0.000     0
         15.82367965   -6.66555720   -1.52311534    h      0.000     0
         -7.38058693   15.32788463    2.31296876    h      0.000     0
         -6.52495050   12.34861439    3.52492410    h      0.000     0
         12.60013600   -6.78666795   -2.31839087    h      0.000     0
         -6.52253530   10.55226821   -0.85722649    h      0.000     0
         11.41668948   -6.61728103    2.24164106    h      0.000     0
        -11.37841425   13.44195115    0.56151620    h      0.000     0
         15.41363989  -10.76848144    0.81223270    h      0.000     0
         12.19562020  -10.91181945    0.01013425    h      0.000     0
        -10.49590847   10.47589912    1.77858520    h      0.000     0
         16.59198942  -10.92861203   -3.80327060    h      0.000     0
        -11.49826031   15.23065722    4.98852070    h      0.000     0
        -10.61625845   12.24282217    6.20606934    h      0.000     0
         13.35336099  -11.05391683   -4.62501508    h      0.000     0
        -13.57341553   12.62074745    4.68274997    h      0.000     0
         14.75042165  -13.58771607   -2.94257793    h      0.000     0
         -5.09425181   -3.26446829    2.11259038    c      6.000     0
         -6.61040292   -4.75733874    0.08126498    c      6.000     0
         -8.50624721   -5.36569200    4.12616180    c      6.000     0
         -9.22036246   -5.17207366    1.33093207    c      6.000     0
         -5.51292655   -2.53359755   -6.39260694    c      6.000     0
        -14.43286098   -0.89761626   -0.45004351    c      6.000     0
         -2.35410965   -4.52102398   -3.44989424    c      6.000     0
          4.37590639   -6.00023831    1.27616147    c      6.000     0
        -13.03287656   -4.77920300   -2.80194771    c      6.000     0
         -6.00344632   -7.10497801   -5.13480051    c      6.000     0
        -14.89307840   -5.17845615    1.59366510    c      6.000     0
          5.11682730   -6.92592709   -1.36681123    c      6.000     0
         -5.12272030   -4.47703839   -4.29552647    c      6.000     0
        -13.30960613   -3.54496180   -0.19774985    c      6.000     0
         -7.90668881   -8.05053249    4.99471340    c      6.000     0
          6.20475335   -9.60716333   -1.31870471    c      6.000     0
          7.01852920  -10.52513555   -3.93954749    c      6.000     0
         -2.79238232    0.82253562    1.41526416    c      6.000     0
         -3.54304985    3.31676432    1.03872907    c      6.000     0
         -6.95253272    1.19069825    1.43942626    c      6.000     0
         -4.98743605   -0.54970802    1.68120087    n      7.000     0
          1.35596315    1.63005179    1.13262878    c      6.000     0
          0.82986576    4.12938093    0.75050968    n      7.000     0
          3.87741265    0.99531533    1.11521875    n      7.000     0
          3.38488039   -3.42702256    1.28339395    n      7.000     0
         -1.63547074    5.17945030    0.64860103    c      6.000     0
          4.94741263   -1.42660914    1.17850718    c      6.000     0
         -0.41115776   -0.10895343    1.47896618    n      7.000     0
         -6.15541399    3.50769437    1.06283321    n      7.000     0
        -10.82511939   -3.06362886    0.91742552    o      8.000     0
         -6.77249515   -3.55135046   -2.27580874    o      8.000     0
         -6.25302482   -3.83161432    4.47089994    o      8.000     0
          7.28768336   -1.63511226    1.12514915    o      8.000     0
         -1.89907835    7.46450682    0.22664537    o      8.000     0
        -10.18549481   -9.49683427    4.73411143    o      8.000     0
          1.49483001   -3.02728986    1.37112338    h      1.000     0
          5.20485103    2.45085230    1.03941168    h      1.000     0
          2.30957988    5.40312756    0.41045353    h      1.000     0
         -3.11682656   -3.85761260    2.18339681    h      1.000     0
         -5.70908004   -6.61786383   -0.08283500    h      1.000     0
        -10.08568850   -6.92367859    0.66521240    h      1.000     0
         -9.93369499  -11.12185288    5.53882135    h      1.000     0
         -9.99874615   -4.55955899    5.30382850    h      1.000     0
         -8.89333078    0.57167588    1.54354772    h      1.000     0
          3.45551875   -6.85480819   -2.60813767    h      1.000     0
          6.02613770   -6.06387393    2.52264593    h      1.000     0
          6.51786291   -5.61396746   -2.14583799    h      1.000     0
          4.79769968  -10.91466672   -0.52880946    h      1.000     0
          7.83174237   -9.65402288   -0.03280241    h      1.000     0
          2.91320857   -7.21727828    2.09049035    h      1.000     0
         -1.76292955   -2.66346694   -2.76727156    h      1.000     0
         -7.26421341   -7.98831866    6.96555229    h      1.000     0
         -6.37700073   -8.85375861    3.83358097    h      1.000     0
        -11.78749503   -3.64157613   -3.99269589    h      1.000     0
         -4.93676908   -0.65926494   -5.74004732    h      1.000     0
         -2.03733749   -5.91390741   -1.94936531    h      1.000     0
         -7.50742333   -2.45646532   -6.92995982    h      1.000     0
         -1.14346513   -5.04750102   -5.04264172    h      1.000     0
         -7.98041441   -7.04009544   -5.73245357    h      1.000     0
        -13.25767009    0.26431640   -1.69205887    h      1.000     0
        -14.02786087   -7.03145404    1.90401046    h      1.000     0
        -14.53921644    0.01289615    1.40345776    h      1.000     0
        -14.88929190   -4.92650299   -3.70437412    h      1.000     0
        -15.09684589   -4.23930362    3.42506047    h      1.000     0
         -4.39569702   -3.03669200   -8.05887641    h      1.000     0
        -16.33957578   -1.00104686   -1.24444172    h      1.000     0
        -12.25298007   -6.69120057   -2.66662224    h      1.000     0
         -4.85334330   -7.77316186   -6.71992755    h      1.000     0
        -16.77964835   -5.47929086    0.79713712    h      1.000     0
         -5.82111117   -8.49059029   -3.60624988    h      1.000     0
          5.40915389  -10.56928448   -5.24309553    h      1.000     0
          8.44861836   -9.26522391   -4.74835848    h      1.000     0
          7.82454229  -12.42883904   -3.85538318    h      1.000     0
 
       center of nuclear mass  :    0.42380960    0.98282447    0.33145711
       center of nuclear charge:   -3.79469480   -2.90210974    0.17001430

              +--------------------------------------------------+
              |               basis set information              |
              +--------------------------------------------------+

              we will work with the 1s 3p 5d 7f 9g ... basis set
              ...i.e. with spherical basis functions...

   type   atoms  prim   cont   basis
   ---------------------------------------------------------------------------
    c       45     77     55   cc-pVQZ   [5s4p3d2f1g|21s6p3d2f1g]
    n       10     77     55   cc-pVQZ   [5s4p3d2f1g|21s6p3d2f1g]
    o        8     77     55   cc-pVQZ   [5s4p3d2f1g|21s6p3d2f1g]
    h       70     32     30   cc-pVQZ   [4s3p2d1f|6s3p2d1f]
   ---------------------------------------------------------------------------
   total:  133   7091   5565
   ---------------------------------------------------------------------------

   total number of primitive shells          :  111
   total number of contracted shells         : 1645
   total number of cartesian basis functions : 6860
   total number of SCF-basis functions       : 5565


 integral neglect threshold       :  0.49E-14
 integral storage threshold THIZE :  0.10E-04
 integral storage threshold THIME :         5

 RI-J AUXILIARY BASIS SET information:

              we will work with the 1s 3p 5d 7f 9g ... basis set
              ...i.e. with spherical basis functions...

   type   atoms  prim   cont   basis
   ---------------------------------------------------------------------------
    c       45     70     49   cc-pVQZ   [6s4p3d1f1g|12s5p4d2f1g]
    n       10     70     49   cc-pVQZ   [6s4p3d1f1g|12s5p4d2f1g]
    o        8     70     49   cc-pVQZ   [6s4p3d1f1g|12s5p4d2f1g]
    h       70     16     11   cc-pVQZ   [3s1p1d|5s2p1d]
   ---------------------------------------------------------------------------
   total:  133   5530   3857
   ---------------------------------------------------------------------------

   total number of primitive shells          :   80
   total number of contracted shells         : 1295
   total number of cartesian basis functions : 4683
   total number of SCF-basis functions       : 3857


 symmetry group of the molecule :   c1 

 the group has the following generators :
   c1(z)

    1 symmetry operations found

 there are 1 real representations :   a   

 maximum number of shells which are related by symmetry :  1


    mo occupation :
   irrep   mo's   occupied
    a     5565      133
 
 number of basis functions   :         5565
 number of occupied orbitals :          133
 
  
           ------------------
           density functional
           ------------------
 Dummy atoms with grid-point found.
 DFT quadrature threshold dgrenze tightened by factor 1/10.

 PBE functional
 exchange:    LDA + PBE
 correlation: LDA (PW) + PBE
 Dummy atoms with grid-point found.
 DFT quadrature threshold dgrenze tightened by factor 1/10.

 Dummy atoms with grid-point found.
 DFT quadrature threshold dgrenze tightened by factor 1/10.

 grinp -> nfun, dfgga, dfhybrid 
           6 T F
 iterations will be done with small grid
  
 spherical integration : Lebedev's spherical grid
 spherical gridsize    :           5
    i.e. gridpoints    :         590
 value for diffuse not defined
 radial integration    : Chebyshev 2nd kind (scaling 3)
 radial gridsize       :           8
 integration cells     :         133
 partition function    : becke
 partition sharpness   :           3
  
 found dummy atom(s) with basis: included in dft

 <rddim> : input of entry tasksize
           from data group '$pardft' failed !

               Default values taken

 <rddim> : input of entry memdiv
           from data group '$pardft' failed !

               Default values taken
  RIDFT: memory allocation for DFT gridpoints
  MEMORY is divided by 1 as DEFAULT
 Each node can hold at most  the            1 -th part
 of the gridpoints    

 biggest AO integral is expected to be     4.785886462
  
           ------------------------
               RI-J - INFORMATION
           ------------------------
 
 
 **************************************************
 *      MEMORY ALLOCATION FOR PARALLEL RI-DFT     *
 **************************************************
 
 
MEMORY FOR (MU NU/ ALPHA), SEQUENTIAL RUN              19880 MByte
 
            DIFFERENCE IN MEMORY NEED:       DIAG./SLAVE  
 
      TOTAL DIFFERENCE :                   1374 MByte
 
      difference in xcore:                  121 MByte
      difference in fatmat:                 422 MByte
      getcor calls skipped by slaves:       832 MByte
 
 
           Integral memory available for diagonal.     19880 MByte
 
           Integral memory available for slave             0 MByte
 
         MEMORY FOR (MU NU/ ALPHA) ON DIAGONALIZER     19880 MByte
 
         MEMORY FOR (MU NU/ ALPHA) ON ONE SLAVE            0 MByte
 
         TOTAL MEMORY FOR (MU NU/ ALPHA),ALL NODES     19880 MByte
 
 Contributions to RI integral batches: 
  neglected integral batches:     1012607
  direct contribution:             252817
  memory contribution:       88411
 Memory core needed for (P|Q) and Cholesky    114 MByte
 Memory core minimum needed except of (P|Q)    10 MByte
 Total minimum memory core needed (sum)       123 MByte
     number of direct tasks:         160
  
 ****************************************
 Memory allocated for RI-J 20003 MByte
 ****************************************
                                            

          ------------------------
          nuclear repulsion energy  :   4176.20721317    
          ------------------------

 
          -----------------
          -S integrals
          -----------------

 1e-integrals will be neglected if expon. factor < 0.487166E-15
 
          -----------------
          -T+V integrals
          -----------------

 1e-integrals will be neglected if expon. factor < 0.487166E-15
 Difference densities >>NOT<< switched on in parallel ridft!

 automatic virtual orbital shift switched on 
      shift if e(lumo)-e(homo) < 0.10000000    


 DIIS switched on: error vector is FDS-SDF
 Max. Iterations for DIIS is     :   4
 DIIS matrix (see manual) 
    Scaling factor of diagonals  :  1.200
    threshold for scaling factor :  0.000

 scf convergence criterion : increment of total energy < .1000000D-08
                  and increment of one-electron energy < .1000000D-05


 <geterg> : there is no data group $energy 

  MOs are in ASCII format !


 reading orbital data $scfmo  from file mos . 

 orbital characterization : expanded
 
 mo provided and orthogonalized by Cholesky decomposition

 DSCF restart information will be dumped onto file mos


 Starting SCF iterations


 ITERATION  ENERGY          1e-ENERGY        2e-ENERGY     RMS[dD(SAO)]   TOL
   1  -1671.2954860175    -10550.921603     4703.4189036    0.000D+00 0.486D-14
                            Exc = -227.624895505     Coul =  4931.04379909    
                              N = 266.00084747    
                            current damping = 0.700
 
          max. resid. norm for Fia-block=  3.356D-01 for orbital      1a         
          max. resid. fock norm         =  1.839D+01 for orbital   5236a         

 ITERATION  ENERGY          1e-ENERGY        2e-ENERGY     RMS[dD(SAO)]   TOL
   2  -1676.8020205525    -10582.161469     4729.1522353    0.193D-02 0.486D-14
                            Exc = -228.733673547     Coul =  4957.88590888    
                              N = 266.00064358    
                            current damping = 0.650
 
          Norm of current diis error:  6.5196    
          max. resid. norm for Fia-block=  1.604D-01 for orbital      6a         
          max. resid. fock norm         =  3.177D-01 for orbital   5393a         

 ITERATION  ENERGY          1e-ENERGY        2e-ENERGY     RMS[dD(SAO)]   TOL
   3  -1677.6134848199    -10593.748613     4739.9279155    0.738D-03 0.486D-14
                            Exc = -230.015432340     Coul =  4969.94334782    
                              N = 266.00054869    
                            current damping = 0.550
 
          Norm of current diis error:  3.2353    
          max. resid. norm for Fia-block=  6.442D-02 for orbital      6a         
          max. resid. fock norm         =  6.867D-02 for orbital      6a         

 ITERATION  ENERGY          1e-ENERGY        2e-ENERGY     RMS[dD(SAO)]   TOL
   4  -1677.8788558675    -10595.401055     4741.3149861    0.433D-03 0.486D-14
                            Exc = -229.874865290     Coul =  4971.18985143    
                              N = 266.00047156    
                            current damping = 0.450
 
          Norm of current diis error:  1.3650    
          max. resid. norm for Fia-block=  4.193D-02 for orbital    133a         
          max. resid. fock norm         =  7.742D-02 for orbital   5148a         

 ITERATION  ENERGY          1e-ENERGY        2e-ENERGY     RMS[dD(SAO)]   TOL
   5  -1677.9159257413    -10598.242045     4744.1189061    0.216D-03 0.486D-14
                            Exc = -230.368446684     Coul =  4974.48735274    
                              N = 266.00043971    
                            current damping = 0.350
 
          Norm of current diis error: 0.88111    
          max. resid. norm for Fia-block=  2.072D-02 for orbital    132a         
          max. resid. fock norm         =  2.749D-02 for orbital    132a         
          mo-orthogonalization: Cholesky decomposition

 ITERATION  ENERGY          1e-ENERGY        2e-ENERGY     RMS[dD(SAO)]   TOL
   6  -1677.9327932488    -10599.574111     4745.4341047    0.144D-03 0.486D-14
                            Exc = -230.326413708     Coul =  4975.76051840    
                              N = 266.00042901    
                            current damping = 0.250
 
          Norm of current diis error: 0.43851    
          max. resid. norm for Fia-block=  1.040D-02 for orbital    132a         
          max. resid. fock norm         =  1.658D-02 for orbital     43a         

 ITERATION  ENERGY          1e-ENERGY        2e-ENERGY     RMS[dD(SAO)]   TOL
   7  -1677.9360988571    -10597.887319     4743.7440074    0.649D-04 0.486D-14
                            Exc = -230.276245098     Coul =  4974.02025247    
                              N = 266.00042607    
                            current damping = 0.300
 
          Norm of current diis error: 0.26317    
          max. resid. norm for Fia-block=  4.239D-03 for orbital    133a         
          max. resid. fock norm         =  7.402D-03 for orbital   5278a         

 ITERATION  ENERGY          1e-ENERGY        2e-ENERGY     RMS[dD(SAO)]   TOL
   8  -1677.9376361474    -10598.728949     4744.5840996    0.193D-04 0.486D-14
                            Exc = -230.299894347     Coul =  4974.88399398    
                              N = 266.00042409    
                            current damping = 0.350
 
          Norm of current diis error: 0.83534E-01
          max. resid. norm for Fia-block=  1.999D-03 for orbital    133a         
          max. resid. fock norm         =  3.651D-03 for orbital   5503a         

 ITERATION  ENERGY          1e-ENERGY        2e-ENERGY     RMS[dD(SAO)]   TOL
   9  -1677.9377015141    -10598.696740     4744.5518252    0.945D-05 0.486D-14
                            Exc = -230.323524190     Coul =  4974.87534937    
                              N = 266.00042451    
                            current damping = 0.400
 
          Norm of current diis error: 0.63136E-01
          max. resid. norm for Fia-block=  1.011D-03 for orbital    133a         
          max. resid. fock norm         =  1.969D-03 for orbital   5526a         

 ITERATION  ENERGY          1e-ENERGY        2e-ENERGY     RMS[dD(SAO)]   TOL
  10  -1677.9377926416    -10598.726697     4744.5816908    0.437D-05 0.486D-14
                            Exc = -230.315135444     Coul =  4974.89682622    
                              N = 266.00042453    
                            current damping = 0.450
 
          Norm of current diis error: 0.17662E-01
          max. resid. norm for Fia-block=  3.384D-04 for orbital    123a         
          max. resid. fock norm         =  5.677D-04 for orbital     47a         
          mo-orthogonalization: Cholesky decomposition

 ITERATION  ENERGY          1e-ENERGY        2e-ENERGY     RMS[dD(SAO)]   TOL
  11  -1677.9377980077    -10598.691636     4744.5466246    0.158D-05 0.486D-14
                            Exc = -230.311616715     Coul =  4974.85824134    
                              N = 266.00042451    
                            current damping = 0.500
 
          Norm of current diis error: 0.81457E-02
          max. resid. norm for Fia-block=  1.795D-04 for orbital    132a         
          max. resid. fock norm         =  2.479D-04 for orbital   5227a         

 ITERATION  ENERGY          1e-ENERGY        2e-ENERGY     RMS[dD(SAO)]   TOL
  12  -1677.9377989879    -10598.696303     4744.5512908    0.628D-06 0.486D-14
                            Exc = -230.312733739     Coul =  4974.86402453    
                              N = 266.00042447    
                            current damping = 0.550
 
          Norm of current diis error: 0.48776E-02
          max. resid. norm for Fia-block=  1.338D-04 for orbital    132a         
          max. resid. fock norm         =  1.790D-04 for orbital   5372a         

 ITERATION  ENERGY          1e-ENERGY        2e-ENERGY     RMS[dD(SAO)]   TOL
  13  -1677.9377994878    -10598.707216     4744.5622037    0.375D-06 0.486D-14
                            Exc = -230.312637284     Coul =  4974.87484098    
                              N = 266.00042444    
                            current damping = 0.400
 
          Norm of current diis error: 0.20199E-02
          max. resid. norm for Fia-block=  3.311D-05 for orbital    133a         
          max. resid. fock norm         =  5.787D-05 for orbital   5329a         

 ITERATION  ENERGY          1e-ENERGY        2e-ENERGY     RMS[dD(SAO)]   TOL
  14  -1677.9377995781    -10598.700558     4744.5555457    0.179D-06 0.486D-14
                            Exc = -230.312377899     Coul =  4974.86792362    
                              N = 266.00042446    
                            current damping = 0.450
 
          Norm of current diis error: 0.67285E-03
          max. resid. norm for Fia-block=  1.364D-05 for orbital    131a         
          max. resid. fock norm         =  2.072D-05 for orbital   5260a         

 DENSITY CONVERGED !


 ITERATION  ENERGY          1e-ENERGY        2e-ENERGY     RMS[dD(SAO)]   TOL
  15  -1677.9377995839    -10598.701474     4744.5564616    0.631D-07 0.486D-14
                            Exc = -230.312562570     Coul =  4974.86902418    
                              N = 266.00042447    
                            current damping = 0.500
 
          Norm of current diis error: 0.45056E-03
          max. resid. norm for Fia-block=  6.124D-06 for orbital    133a         
          max. resid. fock norm         =  1.022D-05 for orbital   5503a         
          mo-orthogonalization: Cholesky decomposition

 DENSITY CONVERGED !


 ITERATION  ENERGY          1e-ENERGY        2e-ENERGY     RMS[dD(SAO)]   TOL
  16  -1677.9377995882    -10598.701685     4744.5566724    0.285D-07 0.486D-14
                            Exc = -230.312506291     Coul =  4974.86917865    
                              N = 266.00042446    
                            current damping = 0.350
 
          Norm of current diis error: 0.15246E-03
          max. resid. norm for Fia-block=  3.231D-06 for orbital    123a         
          max. resid. fock norm         =  6.491D-06 for orbital     47a         

 DENSITY CONVERGED !


 ITERATION  ENERGY          1e-ENERGY        2e-ENERGY     RMS[dD(SAO)]   TOL
  17  -1677.9377995886    -10598.701810     4744.5567976    0.119D-07 0.486D-14
                            Exc = -230.312505011     Coul =  4974.86930260    
                              N = 266.00042446    
                            current damping = 0.200
 
          Norm of current diis error: 0.76275E-04
          max. resid. norm for Fia-block=  1.340D-06 for orbital    133a         
          max. resid. fock norm         =  2.325D-06 for orbital     47a         

 DENSITY CONVERGED !


 ITERATION  ENERGY          1e-ENERGY        2e-ENERGY     RMS[dD(SAO)]   TOL
  18  -1677.9377995886    -10598.701695     4744.5566827    0.571D-08 0.486D-14
                            Exc = -230.312497186     Coul =  4974.86917985    
                              N = 266.00042446    
                            current damping = 0.250
 
          Norm of current diis error: 0.40347E-04
          max. resid. norm for Fia-block=  1.140D-06 for orbital    132a         
          max. resid. fock norm         =  1.782D-06 for orbital   5533a         

 DENSITY CONVERGED !


 ITERATION  ENERGY          1e-ENERGY        2e-ENERGY     RMS[dD(SAO)]   TOL
  19  -1677.9377995886    -10598.701648     4744.5566348    0.431D-08 0.486D-14
                            Exc = -230.312497489     Coul =  4974.86913228    
                              N = 266.00042446    
                            current damping = 0.100
 
          Norm of current diis error: 0.27089E-04
          max. resid. norm for Fia-block=  4.376D-07 for orbital    132a         
          max. resid. fock norm         =  6.318D-07 for orbital   5533a         

 DENSITY CONVERGED !


 ITERATION  ENERGY          1e-ENERGY        2e-ENERGY     RMS[dD(SAO)]   TOL
  20  -1677.9377995886    -10598.701726     4744.5567134    0.210D-08 0.486D-14
                            Exc = -230.312499340     Coul =  4974.86921275    
                              N = 266.00042446    
                            current damping = 0.150
 
          Norm of current diis error: 0.10100E-04
          max. resid. norm for Fia-block=  1.611D-07 for orbital    133a         
          max. resid. fock norm         =  2.431D-07 for orbital   5526a         
          mo-orthogonalization: Cholesky decomposition

 ENERGY & DENSITY CONVERGED !


 ITERATION  ENERGY          1e-ENERGY        2e-ENERGY     RMS[dD(SAO)]   TOL
  21  -1677.9377901126    -10598.701705     4744.5567013    0.910D-09 0.486D-14
                            Exc = -230.312490915     Coul =  4974.86919224    
                              N = 265.99998161    
                            current damping = 0.200
 
          Norm of current diis error: 0.61611E-05
          max. resid. norm for Fia-block=  9.732D-08 for orbital    133a         
          max. resid. fock norm         =  1.998D-07 for orbital   5526a         

 End of SCF iterations

   convergence criteria satisfied after   21 iterations


                  ------------------------------------------ 
                 |  total energy      =  -1677.93779011258  |
                  ------------------------------------------ 
                 :  kinetic energy    =   1670.40770471999  :
                 :  potential energy  =  -3348.34549483257  :
                 :  virial theorem    =      1.99551229763  :
                 :  wavefunction norm =      1.00000000000  :
                  .......................................... 


 <geterg> : there is no data group $energy 


 <skperg> : $end is missing 


 orbitals $scfmo  will be written to file mos

    irrep                129a        130a        131a        132a        133a   
 eigenvalues H         -0.22864    -0.22281    -0.21722    -0.21262    -0.19399
            eV          -6.2216     -6.0630     -5.9109     -5.7857     -5.2787
 occupation              2.0000      2.0000      2.0000      2.0000      2.0000 

    irrep                134a        135a        136a        137a        138a   
 eigenvalues H         -0.06119    -0.04691    -0.03514    -0.03262    -0.02144
            eV          -1.6651     -1.2765     -0.9561     -0.8876     -0.5834
 
 
 ! grave: sending quit signal to master process
 
 
 
 
 ==============================================================================
                           electrostatic moments
 ==============================================================================

 reference point for electrostatic moments:    0.00000   0.00000   0.00000

 
              nuc           elec       ->  total
 ------------------------------------------------------------------------------
                          charge      
 ------------------------------------------------------------------------------
         266.000000    -266.000000      -0.000000
 
 ------------------------------------------------------------------------------
                       dipole moment  
 ------------------------------------------------------------------------------
   x   -1009.388817    1008.715332      -0.673485
   y    -771.961192     768.394390      -3.566802
   z      45.223803     -45.570614      -0.346811
 
   | dipole moment | =     3.6464 a.u. =     9.2681 debye 
 
 ------------------------------------------------------------------------------
                     quadrupole moment
 ------------------------------------------------------------------------------
  xx   14901.704880  -15059.519817    -157.814937
  yy    7269.062083   -7420.891561    -151.829478
  zz    2130.741416   -2284.457882    -153.716466
  xy    3230.293950   -3203.398017      26.895933
  xz    -728.282019     727.734893      -0.547126
  yz     258.210053    -262.051379      -3.841326
 
     1/3  trace=    -154.453627
     anisotropy=      47.364871
 
 ==============================================================================
 

    ridft profiling
  --------------------------------------------------------------------
             module   cpu total (s)       %  wall total (s)       %

               RIDFT          7043.8  100.00          7108.2  100.00
         Ridft_b_scf           289.0    4.10           288.8    4.06
        b_scf_prelim             0.0    0.00             0.0    0.00
        b_scf_molinp             0.0    0.00             0.0    0.00
         b_scf_init0             0.0    0.00             0.0    0.00
        b_scf_auxbas             0.0    0.00             0.0    0.00
      b_scf_symmetry             0.0    0.00             0.0    0.00
         b_scf_cosmo             0.0    0.00             0.0    0.00
        b_scf_params            24.7    0.35            24.7    0.35
          b_scf_ri-j            87.9    1.25            87.8    1.24
    b_scf_ri-j_auxpq            87.8    1.25            87.7    1.23
     ri-j_auxpq_chol             3.4    0.05             3.4    0.05
         b_scf_1elec             7.6    0.11             7.6    0.11
       b_scf_moinput           168.7    2.40           168.6    2.37
     moinput_orthmos           167.9    2.38           167.8    2.36
    b_scf_dft-dstmax             0.0    0.00             0.0    0.00
           Ridft_scf          6752.1   95.86          6816.6   95.90
          Scf_b_loop             0.0    0.00             0.0    0.00
                noga             0.0    0.00             0.0    0.00
            Scf_loop          6735.2   95.62          6796.4   95.61
     scf_loop_mkdmat            43.0    0.61            43.0    0.61
       scf_loop_ri-j          1677.3   23.81          1676.4   23.58
      parlp1.bc.dens             3.4    0.05             3.4    0.05
        parlp1.gs.gp            36.3    0.52            36.3    0.51
        parlp2.bc.gq             0.0    0.00             0.0    0.00
        scf_loop_dft          2648.6   37.60          2647.2   37.24
      pardft.bc.dens             0.0    0.00             0.0    0.00
        dft_grid_con            67.8    0.96            67.8    0.95
           dft_xcrhf          2434.9   34.57          2433.6   34.24
          dft_getval           121.5    1.72           121.4    1.71
          funct2 dst             2.5    0.04             2.5    0.04
      funct2 f2loop1            23.3    0.33            23.4    0.33
      funct2 f2loop2            63.5    0.90            63.4    0.89
          funct2 s+c            30.7    0.44            30.7    0.43
        funct2 cmf_2            27.4    0.39            27.3    0.38
          dft_mkdens          1082.8   15.37          1082.2   15.22
         dft_gga-fun             1.2    0.02             1.3    0.02
          dft_mkfock          1227.9   17.43          1227.3   17.27
     pardft.red.fock           344.3    4.89           344.1    4.84
     scf_loop_energy             0.3    0.00             0.3    0.00
     scf_loop_mkfock             0.5    0.01             0.5    0.01
       scf_loop_diis          1038.4   14.74          1037.8   14.60
       scf_loop_diag           763.7   10.84           763.3   10.74
         diag_tritrn           237.6    3.37           237.5    3.34
          diag_rdiag           524.7    7.45           524.4    7.38
     scf_loop_modump           316.9    4.50           381.4    5.37
      scf_loop_ortho           234.9    3.33           234.8    3.30
          Scf_a_loop            16.9    0.24            20.3    0.28
         Ridft_a_scf             2.8    0.04             2.8    0.04
         a_scf_fanal             2.7    0.04             2.7    0.04
 


    ------------------------------------------------------------------------
         total  cpu-time :  1 hours 57 minutes and 48 seconds
         total wall-time :  1 hours 58 minutes and 53 seconds
    ------------------------------------------------------------------------


   ****  ridft : all done  ****


    2017-12-20 00:07:35.667 

