
   OpenMP run-time library returned nthreads = 28
 operating system is UNIX !

 dscf (c-16-29) : TURBOMOLE V7.3 ( 22142 ) 4 Jul 2018 at 18:12:42
 Copyright (C) 2018 TURBOMOLE GmbH, Karlsruhe


    2019-04-01 23:10:35.944 



                             d s c f - program

                   idea & directorship : reinhart ahlrichs
                   program development : marco haeser
                                         michael baer
                           dft version : oliver treutler


                          quantum chemistry group
                          universitaet  karlsruhe
                                  germany




                          References             
                                                 
          TURBOMOLE:                             
              R. Ahlrichs, M. Baer, M. Haeser, H. Horn, and
              C. Koelmel
              Electronic structure calculations on workstation
              computers: the program system TURBOMOLE
              Chem. Phys. Lett. 162: 165 (1989)
          Density Functional:                              
              O. Treutler and R. Ahlrichs                      
              Efficient Molecular Numerical Integration Schemes
              J. Chem. Phys. 102: 346 (1995)                   
          Parallel Version:                                
              Performance of parallel TURBOMOLE for Density    
              Functional Calculations                          
              M. v. Arnim and R. Ahlrichs                      
              J. Comp. Chem. 19: 1746 (1998)                   
                                         




              +--------------------------------------------------+
              | Atomic coordinate, charge and isotop information |
              +--------------------------------------------------+

                    atomic coordinates            atom    charge  isotop
         -4.78622267   -0.74390812    7.83356202    c      6.000     0
         -4.84195720   -1.90234951    6.13055996    h      1.000     0
         -4.85450594   -2.01800044    9.45044385    h      1.000     0
         -6.48918973    0.41074560    7.86615213    h      1.000     0
         -2.40245318    0.86741490    7.90124811    c      6.000     0
         -2.40322015    2.03922193    9.60085635    h      1.000     0
         -2.38660150    2.16548350    6.29675646    h      1.000     0
         -0.00009298   -0.71533953    7.85033283    c      6.000     0
         -0.00038410   -2.01296289    9.46006205    h      1.000     0
          0.00017360   -1.90128977    6.15592408    h      1.000     0
          2.40216544    0.86746943    7.90211990    c      6.000     0
          2.40268134    2.03874201    9.60190099    h      1.000     0
          2.38667947    2.16585236    6.29791697    h      1.000     0
          4.78596308   -0.74394636    7.83442200    c      6.000     0
          4.84194333   -1.90207730    6.13119450    h      1.000     0
          6.48894290    0.41055568    7.86763968    h      1.000     0
          4.85383895   -2.01848364    9.45109350    h      1.000     0
 
       center of nuclear mass  :   -0.00012893   -0.11322888    7.86347720
       center of nuclear charge:   -0.00012954   -0.12701001    7.86287166

              +--------------------------------------------------+
              |               basis set information              |
              +--------------------------------------------------+

              we will work with the 1s 3p 5d 7f 9g ... basis set
              ...i.e. with spherical basis functions...

   type   atoms  prim   cont   basis
   ---------------------------------------------------------------------------
    c        5     77     55   cc-pVQZ   [5s4p3d2f1g|21s6p3d2f1g]
    h       12     32     30   cc-pVQZ   [4s3p2d1f|6s3p2d1f]
   ---------------------------------------------------------------------------
   total:   17    769    635
   ---------------------------------------------------------------------------

   total number of primitive shells          :   45
   total number of contracted shells         :  195
   total number of cartesian basis functions :  770
   total number of SCF-basis functions       :  635


 integral neglect threshold       :  0.43E-13
 integral storage threshold THIZE :  0.10E-04
 integral storage threshold THIME :         5


 DENSITY CONVERGENCE CHECK SWITCHED ON !
 SCF CONVERGENCE IF RMS(delta[D]) <     0.1000000000E-06


 symmetry group of the molecule :   c1 

 the group has the following generators :
   c1(z)

    1 symmetry operations found

 there are 1 real representations :   a   

 maximum number of shells which are related by symmetry :  1


    mo occupation :
   irrep   mo's   occupied
    a      635       21
 
 number of basis functions   :                    635
 number of occupied orbitals :                     21
 

 automatic virtual orbital shift switched on 
      shift if e(lumo)-e(homo) < 0.10000000    


          ------------------------
          nuclear repulsion energy  :   185.655948471    
          ------------------------


         -----------------
         -S,T+V- integrals
         -----------------

 1e-integrals will be neglected if expon. factor < 0.434021E-14
 
   Difference densities algorithm switched on.
   The maximal number of linear combinations of
   difference densities is                    20 .

 DIIS switched on: error vector is FDS-SDF
 Max. Iterations for DIIS is     :   5
 DIIS matrix (see manual) 
    Scaling factor of diagonals  :  1.200
    threshold for scaling factor :  0.000

 scf convergence criterion : increment of total energy < .1000000D-08
                  and increment of one-electron energy < .1000000D-05

  MOs are in ASCII format !


 reading orbital data $scfmo  from file mos
 orbital characterization : scfconv=9

 DSCF restart information will be dumped onto file mos

 
                                              current damping :  0.700
 ITERATION  ENERGY          1e-ENERGY        2e-ENERGY     RMS[dD(SAO)]   TOL
   1  -196.36803259276    -631.78010151     249.75612044    0.000D+00 0.433D-13
          max. resid. norm for Fia-block=  1.022D-01 for orbital      5a         
          max. resid. fock norm         =  2.534D-01 for orbital    634a         
          Delta Eig. =    22.4586857711 eV 
 
                                              current damping :  0.650
 ITERATION  ENERGY          1e-ENERGY        2e-ENERGY     RMS[dD(SAO)]   TOL
   2  -196.40582779054    -631.13515241     249.07337615    0.721D-03 0.281D-13
          Norm of current diis error: 0.60733    
          max. resid. norm for Fia-block=  4.873D-02 for orbital      5a         
          max. resid. fock norm         =  9.113D-02 for orbital    635a         
          Delta Eig. =     9.7195532668 eV 
 
                                              current damping :  0.600
 ITERATION  ENERGY          1e-ENERGY        2e-ENERGY     RMS[dD(SAO)]   TOL
   3  -196.41383340579    -631.28810162     249.21831974    0.348D-03 0.210D-13
          Norm of current diis error: 0.27260    
          max. resid. norm for Fia-block=  2.001D-02 for orbital      5a         
          max. resid. fock norm         =  3.791D-02 for orbital    634a         
          Delta Eig. =     3.8405778263 eV 
 
                                              current damping :  0.650
 ITERATION  ENERGY          1e-ENERGY        2e-ENERGY     RMS[dD(SAO)]   TOL
   4  -196.41552661817    -631.22610083     249.15462574    0.149D-03 0.184D-13
          Norm of current diis error: 0.10996    
          max. resid. norm for Fia-block=  7.577D-03 for orbital      5a         
          max. resid. fock norm         =  1.392D-02 for orbital    634a         
          Delta Eig. =     1.3784674062 eV 
 
                                              current damping :  0.500
 ITERATION  ENERGY          1e-ENERGY        2e-ENERGY     RMS[dD(SAO)]   TOL
   5  -196.41580586287    -631.21557540     249.14382107    0.570D-04 0.170D-13
          Norm of current diis error: 0.46863E-01
          max. resid. norm for Fia-block=  2.972D-03 for orbital      5a         
          max. resid. fock norm         =  5.445D-03 for orbital    634a         
 mo-orthogonalization: Cholesky decomposition
          Delta Eig. =     0.5978503219 eV 
 
                                              current damping :  0.350
 ITERATION  ENERGY          1e-ENERGY        2e-ENERGY     RMS[dD(SAO)]   TOL
   6  -196.41586115057    -631.20967217     249.13786255    0.256D-04 0.156D-13
          Norm of current diis error: 0.17472E-01
          max. resid. norm for Fia-block=  1.056D-03 for orbital     14a         
          max. resid. fock norm         =  1.809D-03 for orbital    634a         
          Delta Eig. =     0.2215037705 eV 
 
                                              current damping :  0.200
 ITERATION  ENERGY          1e-ENERGY        2e-ENERGY     RMS[dD(SAO)]   TOL
   7  -196.41586968475    -631.20695652     249.13513837    0.101D-04 0.144D-13
          Norm of current diis error: 0.54300E-02
          max. resid. norm for Fia-block=  3.270D-04 for orbital     14a         
          max. resid. fock norm         =  4.605D-04 for orbital    635a         
          Delta Eig. =     0.0647391662 eV 
 
                                              current damping :  0.050
 ITERATION  ENERGY          1e-ENERGY        2e-ENERGY     RMS[dD(SAO)]   TOL
   8  -196.41587062741    -631.20610991     249.13429081    0.332D-05 0.133D-13
          Norm of current diis error: 0.13268E-02
          max. resid. norm for Fia-block=  7.776D-05 for orbital     14a         
          max. resid. fock norm         =  7.854D-05 for orbital    631a         
          Delta Eig. =     0.0122806132 eV 
 
                                              current damping :  0.050
 ITERATION  ENERGY          1e-ENERGY        2e-ENERGY     RMS[dD(SAO)]   TOL
   9  -196.41587069570    -631.20568088     249.13386172    0.912D-06 0.125D-13
          Norm of current diis error: 0.23970E-03
          max. resid. norm for Fia-block=  1.625D-05 for orbital     19a         
          max. resid. fock norm         =  1.652D-05 for orbital     19a         
          Delta Eig. =     0.0007873496 eV 
 
                                              current damping :  0.050
 ITERATION  ENERGY          1e-ENERGY        2e-ENERGY     RMS[dD(SAO)]   TOL
  10  -196.41587069844    -631.20565537     249.13383620    0.218D-06 0.120D-13
          Norm of current diis error: 0.53137E-04
          max. resid. norm for Fia-block=  4.260D-06 for orbital     19a         
          max. resid. fock norm         =  4.271D-06 for orbital     19a         
 mo-orthogonalization: Cholesky decomposition
          Delta Eig. =     0.0000649947 eV 

 DENSITY CONVERGED !

 
                                              current damping :  0.050
 ITERATION  ENERGY          1e-ENERGY        2e-ENERGY     RMS[dD(SAO)]   TOL
  11  -196.41587069859    -631.20561132     249.13379215    0.655D-07 0.117D-13
          Norm of current diis error: 0.12347E-04
          max. resid. norm for Fia-block=  9.200D-07 for orbital     19a         
          max. resid. fock norm         =  9.614D-07 for orbital     19a         
          Delta Eig. =     0.0000486194 eV 

 DENSITY CONVERGED !

 
                                              current damping :  0.100
 ITERATION  ENERGY          1e-ENERGY        2e-ENERGY     RMS[dD(SAO)]   TOL
  12  -196.41587069860    -631.20562272     249.13380355    0.153D-07 0.116D-13
          Norm of current diis error: 0.32696E-05
          max. resid. norm for Fia-block=  2.069D-07 for orbital     19a         
          max. resid. fock norm         =  2.447D-07 for orbital     19a         
          Delta Eig. =     0.0000174590 eV 

 ENERGY & DENSITY CONVERGED !

 
                                              current damping :  0.150
 ITERATION  ENERGY          1e-ENERGY        2e-ENERGY     RMS[dD(SAO)]   TOL
  13  -196.41587069860    -631.20561726     249.13379809    0.300D-08 0.123D-13
          max. resid. norm for Fia-block=  6.535D-08 for orbital     21a         
          max. resid. fock norm         =  7.257D-08 for orbital     21a         

 convergence criteria satisfied after    13 iterations


                  ------------------------------------------ 
                 |  total energy      =   -196.41587069860  |
                  ------------------------------------------ 
                 :  kinetic energy    =    196.31569196350  :
                 :  potential energy  =   -392.73156266210  :
                 :  virial theorem    =      1.99948996619  :
                 :  wavefunction norm =      1.00000000000  :
                  .......................................... 


 orbitals $scfmo  will be written to file mos

    irrep                 17a         18a         19a         20a         21a   
 eigenvalues H         -0.49483    -0.47612    -0.46207    -0.45939    -0.44674
            eV         -13.4652    -12.9559    -12.5737    -12.5009    -12.1564
 occupation              2.0000      2.0000      2.0000      2.0000      2.0000 

    irrep                 22a         23a         24a         25a         26a   
 eigenvalues H          0.11391     0.12703     0.14142     0.14717     0.16340
            eV           3.0998      3.4566      3.8483      4.0047      4.4464
 
 
 
 
 ==============================================================================
                           electrostatic moments
 ==============================================================================

 reference point for electrostatic moments:    0.00000   0.00000   0.00000

 
              nuc           elec       ->  total
 ------------------------------------------------------------------------------
                          charge      
 ------------------------------------------------------------------------------
          42.000000     -42.000000       0.000000
 
 ------------------------------------------------------------------------------
                       dipole moment  
 ------------------------------------------------------------------------------
   x      -0.005441       0.005442       0.000001
   y      -5.334420       5.366994       0.032574
   z     330.240610    -330.238785       0.001825
 
   | dipole moment | =     0.0326 a.u. =     0.0829 debye 
 
 ------------------------------------------------------------------------------
                     quadrupole moment
 ------------------------------------------------------------------------------
  xx     545.304660    -572.465252     -27.160593
  yy      59.823622     -86.418652     -26.595030
  zz    2624.122343   -2649.812861     -25.690518
  xy      -0.002000       0.002243       0.000243
  xz       0.012620      -0.012726      -0.000106
  yz     -40.706167      40.926099       0.219932
 
     1/3  trace=     -26.482047
     anisotropy=       1.339654
 
 ==============================================================================
 


    ------------------------------------------------------------------------
         total  cpu-time :  2 hours  2 minutes and 57 seconds
         total wall-time :  8 minutes and 40 seconds
    ------------------------------------------------------------------------

   ****  dscf : all done  ****


    2019-04-01 23:19:15.605 

