
   OpenMP run-time library returned nthreads = 28
 operating system is UNIX !

 dscf (c-19-412) : TURBOMOLE V7.3 ( 22142 ) 4 Jul 2018 at 18:12:42
 Copyright (C) 2018 TURBOMOLE GmbH, Karlsruhe


    2019-03-26 21:22:32.976 



                             d s c f - program

                   idea & directorship : reinhart ahlrichs
                   program development : marco haeser
                                         michael baer
                           dft version : oliver treutler


                          quantum chemistry group
                          universitaet  karlsruhe
                                  germany




                          References             
                                                 
          TURBOMOLE:                             
              R. Ahlrichs, M. Baer, M. Haeser, H. Horn, and
              C. Koelmel
              Electronic structure calculations on workstation
              computers: the program system TURBOMOLE
              Chem. Phys. Lett. 162: 165 (1989)
          Density Functional:                              
              O. Treutler and R. Ahlrichs                      
              Efficient Molecular Numerical Integration Schemes
              J. Chem. Phys. 102: 346 (1995)                   
          Parallel Version:                                
              Performance of parallel TURBOMOLE for Density    
              Functional Calculations                          
              M. v. Arnim and R. Ahlrichs                      
              J. Comp. Chem. 19: 1746 (1998)                   
                                         




              +--------------------------------------------------+
              | Atomic coordinate, charge and isotop information |
              +--------------------------------------------------+

                    atomic coordinates            atom    charge  isotop
         -3.02021322   -5.57287040    6.14160993    c      6.000     0
         -7.55992498   -5.49254003    6.14160993    c      6.000     0
         -7.57917751   -2.96661681    6.14160993    c      6.000     0
         -5.13872849   -1.73612541    6.14160993    c      6.000     0
         -5.34962382   -6.77813772    6.14160993    n      7.000     0
         -3.01397334   -3.02330859    6.14160993    n      7.000     0
         -5.01381949    0.76047871    6.14160993    n      7.000     0
         -1.13019040   -6.85880446    6.14160993    o      8.000     0
         -5.30378284   -8.65690911    6.14160993    h      1.000     0
         -9.25454067   -6.60873133    6.14160993    h      1.000     0
         -9.30421779   -1.90668642    6.14160993    h      1.000     0
         -6.57529074    1.79538156    6.14160993    h      1.000     0
         -3.32233507    1.63396871    6.14160993    h      1.000     0
          2.02057455    2.09509212    6.14160993    c      6.000     0
          4.31882924   -1.93152310    6.14160993    c      6.000     0
          6.52909072    1.59570364    6.14160993    c      6.000     0
          4.48320895    3.19202901    6.14160993    c      6.000     0
          7.66977287    5.57318976    6.14160993    c      6.000     0
          2.15879290   -0.53650459    6.14160993    n      7.000     0
          6.57508098   -0.94499535    6.14160993    n      7.000     0
          5.26063662    5.68364992    6.14160993    n      7.000     0
          8.57326795    3.13252153    6.14160993    n      7.000     0
          4.03373759   -4.43966966    6.14160993    n      7.000     0
         -0.02458345    3.12065405    6.14160993    o      8.000     0
          0.48192174   -1.43893196    6.14160993    h      1.000     0
          8.92516519    7.16093010    6.14160993    h      1.000     0
         10.36302946    2.57112358    6.14160993    h      1.000     0
          5.59543373   -5.47388087    6.14160993    h      1.000     0
          2.33979087   -5.28069984    6.14160993    h      1.000     0
         -2.86614385    0.50730076    0.00000000    c      0.000     0
         -2.35868435   -4.10118003    0.00000000    c      0.000     0
         -6.22007703   -2.54675178    0.00000000    c      0.000     0
         -5.50322076   -0.05275926    0.00000000    c      0.000     0
         -9.48081459    0.00062550    0.00000000    c      0.000     0
         -1.43115007   -1.70294749    0.00000000    n      0.000     0
         -4.76389754   -4.62925266    0.00000000    n      0.000     0
         -7.59671039    1.50604370    0.00000000    n      0.000     0
         -8.77716940   -2.50497750    0.00000000    n      0.000     0
         -0.65378855   -5.96273979    0.00000000    n      0.000     0
         -1.81438653    2.53911162    0.00000000    o      0.000     0
          0.45590021   -1.44738660    0.00000000    h      0.000     0
        -11.42969860    0.54723256    0.00000000    h      0.000     0
         -9.89513516   -4.01115348    0.00000000    h      0.000     0
         -1.30933455   -7.71737697    0.00000000    h      0.000     0
          1.21098753   -5.64747111    0.00000000    h      0.000     0
          5.71905583   -2.73330933    0.00000000    c      0.000     0
          9.34454077    0.00005480    0.00000000    c      0.000     0
          7.87541665    2.05488631    0.00000000    c      0.000     0
          5.17778724    1.61591426    0.00000000    c      0.000     0
          8.31202654   -2.33919749    0.00000000    n      0.000     0
          4.21541208   -0.67433743    0.00000000    n      0.000     0
          3.60926731    3.56229061    0.00000000    n      0.000     0
          4.94584793   -4.88457923    0.00000000    o      0.000     0
          9.37925504   -3.88610085    0.00000000    h      0.000     0
         11.37159519    0.09310681    0.00000000    h      0.000     0
          8.64799150    3.92634068    0.00000000    h      0.000     0
          4.26422182    5.31735297    0.00000000    h      0.000     0
          1.72740244    3.27472720    0.00000000    h      0.000     0
 
       center of nuclear mass  :    0.31843654   -0.98004659    3.07080497
       center of nuclear charge:    0.64423729   -0.88671593    6.14160993

              +--------------------------------------------------+
              |               basis set information              |
              +--------------------------------------------------+

              we will work with the 1s 3p 5d 7f 9g ... basis set
              ...i.e. with spherical basis functions...

   type   atoms  prim   cont   basis
   ---------------------------------------------------------------------------
    c       18     77     55   cc-pVQZ   [5s4p3d2f1g|21s6p3d2f1g]
    n       16     77     55   cc-pVQZ   [5s4p3d2f1g|21s6p3d2f1g]
    o        4     77     55   cc-pVQZ   [5s4p3d2f1g|21s6p3d2f1g]
    h       20     32     30   cc-pVQZ   [4s3p2d1f|6s3p2d1f]
   ---------------------------------------------------------------------------
   total:   58   3566   2690
   ---------------------------------------------------------------------------

   total number of primitive shells          :  111
   total number of contracted shells         :  770
   total number of cartesian basis functions : 3360
   total number of SCF-basis functions       : 2690


 integral neglect threshold       :  0.99E-14
 integral storage threshold THIZE :  0.10E-04
 integral storage threshold THIME :         5


 DENSITY CONVERGENCE CHECK SWITCHED ON !
 SCF CONVERGENCE IF RMS(delta[D]) <     0.1000000000E-06


 symmetry group of the molecule :   c1 

 the group has the following generators :
   c1(z)

    1 symmetry operations found

 there are 1 real representations :   a   

 maximum number of shells which are related by symmetry :  1


    mo occupation :
   irrep   mo's   occupied
    a     2690       68
 
 number of basis functions   :                   2690
 number of occupied orbitals :                     68
 

 automatic virtual orbital shift switched on 
      shift if e(lumo)-e(homo) < 0.10000000    


          ------------------------
          nuclear repulsion energy  :   1391.97687302    
          ------------------------


         -----------------
         -S,T+V- integrals
         -----------------

 1e-integrals will be neglected if expon. factor < 0.994631E-15
 
   Difference densities algorithm switched on.
   The maximal number of linear combinations of
   difference densities is                    20 .

 DIIS switched on: error vector is FDS-SDF
 Max. Iterations for DIIS is     :   5
 DIIS matrix (see manual) 
    Scaling factor of diagonals  :  1.200
    threshold for scaling factor :  0.000

 scf convergence criterion : increment of total energy < .1000000D-08
                  and increment of one-electron energy < .1000000D-05

  MOs are in ASCII format !


 reading orbital data $scfmo  from file mos
 orbital characterization : expanded
 mo provided and orthogonalized by Cholesky decomposition

 DSCF restart information will be dumped onto file mos

 
                                              current damping :  0.700
 ITERATION  ENERGY          1e-ENERGY        2e-ENERGY     RMS[dD(SAO)]   TOL
   1  -928.42977326615    -4020.0563165     1699.6496702    0.000D+00 0.992D-14
          max. resid. norm for Fia-block=  3.728D-01 for orbital     57a         
          max. resid. fock norm         =  2.382D+01 for orbital   2498a         
          Delta Eig. =  1920.0054547910 eV 
 
                                              current damping :  0.650
 ITERATION  ENERGY          1e-ENERGY        2e-ENERGY     RMS[dD(SAO)]   TOL
   2  -931.56595387698    -4031.7069125     1708.1640856    0.283D-02 0.817D-14
          Norm of current diis error:  6.4028    
          max. resid. norm for Fia-block=  1.844D-01 for orbital      2a         
          max. resid. fock norm         =  2.925D-01 for orbital   2572a         
          Delta Eig. =   814.4405685688 eV 
 
                                              current damping :  0.550
 ITERATION  ENERGY          1e-ENERGY        2e-ENERGY     RMS[dD(SAO)]   TOL
   3  -932.21779645143    -4036.5289601     1712.3342906    0.123D-02 0.521D-14
          Norm of current diis error:  3.0071    
          max. resid. norm for Fia-block=  8.590D-02 for orbital     22a         
          max. resid. fock norm         =  9.142D-02 for orbital     22a         
          Delta Eig. =   341.4962173390 eV 
 
                                              current damping :  0.450
 ITERATION  ENERGY          1e-ENERGY        2e-ENERGY     RMS[dD(SAO)]   TOL
   4  -932.40474390009    -4038.1179161     1713.7362991    0.617D-03 0.424D-14
          Norm of current diis error:  1.2571    
          max. resid. norm for Fia-block=  3.826D-02 for orbital     22a         
          max. resid. fock norm         =  4.382D-02 for orbital     22a         
          Delta Eig. =   129.5029963457 eV 
 
                                              current damping :  0.350
 ITERATION  ENERGY          1e-ENERGY        2e-ENERGY     RMS[dD(SAO)]   TOL
   5  -932.44712940686    -4038.6858051     1714.2618027    0.344D-03 0.368D-14
          Norm of current diis error: 0.47513    
          max. resid. norm for Fia-block=  1.486D-02 for orbital     58a         
          max. resid. fock norm         =  1.630D-02 for orbital     22a         
 mo-orthogonalization: Cholesky decomposition
          Delta Eig. =    43.1743041736 eV 
 
                                              current damping :  0.200
 ITERATION  ENERGY          1e-ENERGY        2e-ENERGY     RMS[dD(SAO)]   TOL
   6  -932.45520737164    -4038.8732110     1714.4411306    0.183D-03 0.334D-14
          Norm of current diis error: 0.16295    
          max. resid. norm for Fia-block=  5.856D-03 for orbital     68a         
          max. resid. fock norm         =  6.138D-03 for orbital     58a         
          Delta Eig. =    12.6015452178 eV 
 
                                              current damping :  0.050
 ITERATION  ENERGY          1e-ENERGY        2e-ENERGY     RMS[dD(SAO)]   TOL
   7  -932.45656767785    -4038.9127448     1714.4793041    0.844D-04 0.313D-14
          Norm of current diis error: 0.53083E-01
          max. resid. norm for Fia-block=  2.793D-03 for orbital     68a         
          max. resid. fock norm         =  2.833D-03 for orbital     68a         
          Delta Eig. =     2.4045409324 eV 
 
                                              current damping :  0.050
 ITERATION  ENERGY          1e-ENERGY        2e-ENERGY     RMS[dD(SAO)]   TOL
   8  -932.45678440744    -4038.9169496     1714.4832922    0.313D-04 0.298D-14
          Norm of current diis error: 0.18862E-01
          max. resid. norm for Fia-block=  1.272D-03 for orbital     68a         
          max. resid. fock norm         =  1.288D-03 for orbital     68a         
          Delta Eig. =     0.1167203224 eV 
 
                                              current damping :  0.100
 ITERATION  ENERGY          1e-ENERGY        2e-ENERGY     RMS[dD(SAO)]   TOL
   9  -932.45681674859    -4038.9103721     1714.4766823    0.787D-05 0.290D-14
          Norm of current diis error: 0.85565E-02
          max. resid. norm for Fia-block=  6.626D-04 for orbital     68a         
          max. resid. fock norm         =  7.152D-04 for orbital     68a         
          Delta Eig. =     0.0416074182 eV 
 
                                              current damping :  0.150
 ITERATION  ENERGY          1e-ENERGY        2e-ENERGY     RMS[dD(SAO)]   TOL
  10  -932.45682302712    -4038.9112143     1714.4775183    0.245D-05 0.284D-14
          Norm of current diis error: 0.46971E-02
          max. resid. norm for Fia-block=  3.398D-04 for orbital     68a         
          max. resid. fock norm         =  4.132D-04 for orbital   2301a         
 mo-orthogonalization: Cholesky decomposition
          Delta Eig. =     0.0251752165 eV 
 
                                              current damping :  0.200
 ITERATION  ENERGY          1e-ENERGY        2e-ENERGY     RMS[dD(SAO)]   TOL
  11  -932.45682463093    -4038.9090966     1714.4753989    0.151D-05 0.280D-14
          Norm of current diis error: 0.16340E-02
          max. resid. norm for Fia-block=  1.795D-04 for orbital     68a         
          max. resid. fock norm         =  1.831D-04 for orbital     68a         
          Delta Eig. =     0.0027788039 eV 
 
                                              current damping :  0.050
 ITERATION  ENERGY          1e-ENERGY        2e-ENERGY     RMS[dD(SAO)]   TOL
  12  -932.45682492890    -4038.9089719     1714.4752739    0.705D-06 0.275D-14
          Norm of current diis error: 0.62984E-03
          max. resid. norm for Fia-block=  7.174D-05 for orbital     68a         
          max. resid. fock norm         =  7.217D-05 for orbital     68a         
          Delta Eig. =     0.0012298519 eV 
 
                                              current damping :  0.050
 ITERATION  ENERGY          1e-ENERGY        2e-ENERGY     RMS[dD(SAO)]   TOL
  13  -932.45682497497    -4038.9087156     1714.4750176    0.345D-06 0.271D-14
          Norm of current diis error: 0.20641E-03
          max. resid. norm for Fia-block=  1.695D-05 for orbital     68a         
          max. resid. fock norm         =  1.755D-05 for orbital     68a         
          Delta Eig. =     0.0008046150 eV 

 DENSITY CONVERGED !

 
                                              current damping :  0.050
 ITERATION  ENERGY          1e-ENERGY        2e-ENERGY     RMS[dD(SAO)]   TOL
  14  -932.45682497851    -4038.9087146     1714.4750166    0.982D-07 0.268D-14
          Norm of current diis error: 0.93354E-04
          max. resid. norm for Fia-block=  4.419D-06 for orbital     68a         
          max. resid. fock norm         =  7.387D-06 for orbital   2666a         
          Delta Eig. =     0.0004267454 eV 

 DENSITY CONVERGED !

 
                                              current damping :  0.050
 ITERATION  ENERGY          1e-ENERGY        2e-ENERGY     RMS[dD(SAO)]   TOL
  15  -932.45682497898    -4038.9086870     1714.4749890    0.189D-07 0.283D-14
          Norm of current diis error: 0.37698E-04
          max. resid. norm for Fia-block=  2.769D-06 for orbital     65a         
          max. resid. fock norm         =  3.048D-06 for orbital     65a         
 mo-orthogonalization: Cholesky decomposition
          Delta Eig. =     0.0001083526 eV 

 ENERGY & DENSITY CONVERGED !

 
                                              current damping :  0.100
 ITERATION  ENERGY          1e-ENERGY        2e-ENERGY     RMS[dD(SAO)]   TOL
  16  -932.45682497898    -4038.9086872     1714.4749892    0.102D-07 0.283D-14
          max. resid. norm for Fia-block=  5.748D-07 for orbital     67a         
          max. resid. fock norm         =  7.794D-07 for orbital     36a         

 convergence criteria satisfied after    16 iterations


                  ------------------------------------------ 
                 |  total energy      =   -932.45682497898  |
                  ------------------------------------------ 
                 :  kinetic energy    =    932.11376880233  :
                 :  potential energy  =  -1864.57059378131  :
                 :  virial theorem    =      1.99963209430  :
                 :  wavefunction norm =      1.00000000000  :
                  .......................................... 


 <geterg> : there is no data group $energy 


 orbitals $scfmo  will be written to file mos

    irrep                 64a         65a         66a         67a         68a   
 eigenvalues H         -0.40984    -0.39209    -0.39053    -0.36342    -0.28243
            eV         -11.1525    -10.6695    -10.6269     -9.8892     -7.6853
 occupation              2.0000      2.0000      2.0000      2.0000      2.0000 

    irrep                 69a         70a         71a         72a         73a   
 eigenvalues H          0.05181     0.06780     0.08238     0.08725     0.09033
            eV           1.4098      1.8449      2.2418      2.3742      2.4580
 
 
 
 
 ==============================================================================
                           electrostatic moments
 ==============================================================================

 reference point for electrostatic moments:    0.00000   0.00000   0.00000

 
              nuc           elec       ->  total
 ------------------------------------------------------------------------------
                          charge      
 ------------------------------------------------------------------------------
         136.000000    -136.000000       0.000000
 
 ------------------------------------------------------------------------------
                       dipole moment  
 ------------------------------------------------------------------------------
   x      87.616272     -89.358580      -1.742309
   y    -120.593366     118.937440      -1.655926
   z     835.258951    -835.235767       0.023184
 
   | dipole moment | =     2.4038 a.u. =     6.1099 debye 
 
 ------------------------------------------------------------------------------
                     quadrupole moment
 ------------------------------------------------------------------------------
  xx    3852.641636   -3893.660995     -41.019359
  yy    2280.633262   -2359.982742     -79.349480
  zz    5129.834668   -5213.562294     -83.727627
  xy    1645.863375   -1631.049554      14.813821
  xz     538.104963    -548.770561     -10.665598
  yz    -740.637417     730.452221     -10.185196
 
     1/3  trace=     -68.032155
     anisotropy=      54.470255
 
 ==============================================================================
 


    ------------------------------------------------------------------------
         total  cpu-time :   3 days  6 hours 26 minutes and  0 seconds
         total wall-time :  2 hours 51 minutes and  1 seconds
    ------------------------------------------------------------------------

   ****  dscf : all done  ****


    2019-03-27 00:13:33.622 

