 this is node-proc. number 0 running on node c-7-22.local
 the total number of node-proc. spawned is  33

 dscfserver (c-7-22.local) : TURBOMOLE V7.2 ( 21471 ) 7 Nov 2017 at 16:15:16
 Copyright (C) 2017 TURBOMOLE GmbH, Karlsruhe


    2018-02-20 16:32:16.506 

 
    0:05:36 ---- Start global counter...
    2:42:55 ---- ... finished.
 
    2:47:07 ---- Start global counter...
    5:08:59 ---- ... finished.
 
    5:13:09 ---- Start global counter...
    7:31:14 ---- ... finished.
 
    7:35:25 ---- Start global counter...
    9:41:03 ---- ... finished.
 
    9:45:15 ---- Start global counter...
   11:36:03 ---- ... finished.
 
   11:41:55 ---- Start global counter...
   13:19:59 ---- ... finished.
 
   13:24:16 ---- Start global counter...
   14:52:39 ---- ... finished.
 
   14:56:56 ---- Start global counter...
   16:17:23 ---- ... finished.
 
   16:21:38 ---- Start global counter...
   17:32:51 ---- ... finished.
 
   17:37:10 ---- Start global counter...
   18:42:30 ---- ... finished.
 
   18:48:29 ---- Start global counter...
   19:47:41 ---- ... finished.
 
   19:52:06 ---- Start global counter...
   20:43:44 ---- ... finished.
 
   20:48:08 ---- Start global counter...
   21:32:10 ---- ... finished.
 
   21:36:37 ---- Start global counter...
   22:14:10 ---- ... finished.
 
   22:17:43 ---- ByeBye Tag received


 ! Total wall-clock time in seconds  :    80263.4
 ! Time (sec) spent in global counter:    76176.5
 ! So-called SERIAL wall-clock time  :     4087.0

  *** Regular termination of server ***
 total turnaround time of dscfserver 80265.58 sec
 cpu elapsed by dscfserver process   76234.36 sec 

   ***  dscf server : all done  ***


    2018-02-21 14:50:02.085 

