STARTING dscf ON 40 PROCESSORS!
RUNNING PROGRAM /beegfs/modfac/apps/TURBOMOLE/7.2.1-official/bin/em64t-unknown-linux-gnu_mpi/dscf_mpi.
PLEASE WAIT UNTIL dscf HAS FINISHED.
Look for the output in slave1.output.
MACHINEFILE is ./hostlist
 this is node-proc. number 1 running on node c-9-334.local
 the total number of node-proc. spawned is  41
  parallel platform: MPP or cluster with fast interconnect

   OpenMP run-time library returned nthreads = 20

 dscf (c-9-334.local) : TURBOMOLE V7.2 ( 21471 ) 7 Nov 2017 at 16:15:16
 Copyright (C) 2017 TURBOMOLE GmbH, Karlsruhe


    2018-03-16 00:13:40.490 


 SCF run will be profiled !



                             d s c f - program

                   idea & directorship : reinhart ahlrichs
                   program development : marco haeser
                                         michael baer
                           dft version : oliver treutler
           parallelized version : malte v. arnim, gina corongiu, GMD 


                          quantum chemistry group
                          universitaet  karlsruhe
                                  germany




                          References             
                                                 
          TURBOMOLE:                             
              R. Ahlrichs, M. Baer, M. Haeser, H. Horn, and
              C. Koelmel
              Electronic structure calculations on workstation
              computers: the program system TURBOMOLE
              Chem. Phys. Lett. 162: 165 (1989)
          Density Functional:                              
              O. Treutler and R. Ahlrichs                      
              Efficient Molecular Numerical Integration Schemes
              J. Chem. Phys. 102: 346 (1995)                   
          Parallel Version:                                
              Performance of parallel TURBOMOLE for Density    
              Functional Calculations                          
              M. v. Arnim and R. Ahlrichs                      
              J. Comp. Chem. 19: 1746 (1998)                   
                                         




              +--------------------------------------------------+
              | Atomic coordinate, charge and isotop information |
              +--------------------------------------------------+

                    atomic coordinates            atom    charge  isotop
         -8.26074557   -0.09925661   -5.64686764    o      0.000     0
         -5.23460914    6.23039174   -5.87351637    o      0.000     0
          1.62417978    7.57163621   -5.90935397    o      0.000     0
          7.30566247    3.45648751   -6.16382604    o      0.000     0
          6.99564127   -3.54547898   -5.78982798    o      0.000     0
          1.69860174   -8.18268478   -5.79444860    o      0.000     0
         -5.08141917   -6.32356406   -5.50537609    o      0.000     0
         -7.99645219    0.09993897    6.00759224    o      0.000     0
         -4.82551693    6.32563778    5.72683430    o      0.000     0
          1.96198418    8.18141368    5.71220506    o      0.000     0
          7.25042371    3.54582229    5.47190386    o      0.000     0
          7.57249564   -3.46075814    5.83194495    o      0.000     0
          1.88463343   -7.57313669    5.83221573    o      0.000     0
         -4.97484839   -6.22831348    6.10226406    o      0.000     0
         -9.76440877   -2.14590747   -2.05967548    n      0.000     0
         -9.78749973    2.08061452   -2.14445562    n      0.000     0
         -7.79655044    6.23942818   -2.29412621    n      0.000     0
         -4.47986324    8.85328659   -2.42521857    n      0.000     0
          0.02709820    9.81153365   -2.48199844    n      0.000     0
          4.15102772    8.86364041   -2.55144865    n      0.000     0
          7.83006629    6.08800130   -2.67620179    n      0.000     0
          9.65496138    2.28097836   -2.63325299    n      0.000     0
          9.55396160   -2.32358278   -2.43317167    n      0.000     0
          7.71051351   -6.13237207   -2.31043003    n      0.000     0
          4.16771242   -9.08103585   -2.26622151    n      0.000     0
          0.05365464  -10.02928657   -2.15610226    n      0.000     0
         -4.41896123   -8.90989023   -2.01143106    n      0.000     0
         -7.73040890   -6.27868611   -1.99761457    n      0.000     0
         -9.68418616   -2.07724408    2.57820322    n      0.000     0
         -9.65802360    2.14934970    2.49220253    n      0.000     0
         -7.62897126    6.28252700    2.34143968    n      0.000     0
         -4.31868607    8.91150675    2.20652494    n      0.000     0
          0.15640749   10.02819490    2.15097016    n      0.000     0
          4.27177417    9.08234294    2.07813910    n      0.000     0
          7.81088408    6.13084545    1.96308646    n      0.000     0
          9.65382459    2.31995427    2.00381796    n      0.000     0
          9.76075841   -2.28505762    2.19934969    n      0.000     0
          7.93786982   -6.09148563    2.32335740    n      0.000     0
          4.25670553   -8.86714213    2.36433861    n      0.000     0
          0.13222232   -9.80809728    2.47794575    n      0.000     0
         -4.37238229   -8.84934412    2.62268213    n      0.000     0
         -7.69395131   -6.23866105    2.64093779    n      0.000     0
        -11.03660612   -1.47681531    0.27166620    c      0.000     0
        -11.03536263    1.48220903    0.22078931    c      0.000     0
         -5.66770964   -7.07429405   -3.40567113    c      0.000     0
         -2.46271799  -10.47187288   -3.13539153    c      0.000     0
         -8.03177925    7.68504376    0.02164070    c      0.000     0
         -5.71341521    9.51987451   -0.07447425    c      0.000     0
          1.94152099   -8.98887546   -3.65173783    c      0.000     0
          6.57320505   -8.39343564   -3.37108826    c      0.000     0
          1.00087637   11.05679508   -0.24385317    c      0.000     0
          3.88410273   10.39444737   -0.29365784    c      0.000     0
          7.96412607   -3.94771419   -3.73777641    c      0.000     0
         10.59022966   -0.08465384   -3.63588412    c      0.000     0
          9.27885210    6.10845908   -0.35335093    c      0.000     0
         10.56262569    3.44279839   -0.32660386    c      0.000     0
          8.15073432    3.88531722   -4.06657197    c      0.000     0
         10.56434910   -3.44728825   -0.14554644    c      0.000     0
          9.28100186   -6.11201021   -0.06218119    c      0.000     0
         -9.66875352   -4.67938915   -3.09033004    c      0.000     0
         -9.15398410   -0.05740772   -3.52441968    c      0.000     0
          3.88697709  -10.39536952    0.11944907    c      0.000     0
          1.00404260  -11.05601269    0.19942398    c      0.000     0
         -9.73708964    4.57556702   -3.27874397    c      0.000     0
         -5.76790052    7.00607026   -3.77157802    c      0.000     0
         -5.71009893   -9.51727106    0.32998116    c      0.000     0
         -8.03066624   -7.68273415    0.33703860    c      0.000     0
         -2.44801601   10.29255602   -3.55790758    c      0.000     0
          1.90030329    8.61607464   -3.87478289    c      0.000     0
         -9.58716660   -4.57223893    3.70952297    c      0.000     0
         -8.98518310    0.05971141    3.92789844    c      0.000     0
          6.55964612    8.27042544   -3.72515387    c      0.000     0
         -5.60067779   -7.00374993    4.02601428    c      0.000     0
         -2.29232132  -10.28887424    3.66374659    c      0.000     0
         -9.51580497    4.68224323    3.51917375    c      0.000     0
         -5.50462112    7.07667048    3.65541866    c      0.000     0
          2.06771976   -8.61677935    3.78672075    c      0.000     0
          6.71612567   -8.27437024    3.42801786    c      0.000     0
         -2.31329377   10.47226133    3.24196985    c      0.000     0
          2.10932384    8.98831602    3.56106441    c      0.000     0
          8.32185119   -3.88927279    3.69850940    c      0.000     0
         10.74079229    0.08020662    3.15954098    c      0.000     0
          6.72428424    8.39322127    3.07322464    c      0.000     0
          8.12612101    3.94625921    3.37822103    c      0.000     0
        -12.93882675   -2.30620564    0.31807168    h      0.000     0
         10.27488525    0.14549440    5.17034380    h      0.000     0
          6.46595103    8.01954488    5.08769808    h      0.000     0
          8.04391694    9.97034588    2.79505768    h      0.000     0
         12.79836041    0.12751879    2.89372301    h      0.000     0
          7.94952671   -9.92945563    3.21514563    h      0.000     0
         -2.82383136   12.46727938    2.98748571    h      0.000     0
         -2.16584030   10.01843769    5.25108112    h      0.000     0
          6.42764758   -7.84572800    5.42732194    h      0.000     0
         -2.72112989  -12.31340148    3.51021078    h      0.000     0
        -11.37194419    5.59284014    3.34201849    h      0.000     0
         -8.99353442    4.49374655    5.50802942    h      0.000     0
         -2.11827311   -9.73917422    5.64643553    h      0.000     0
          6.18083965    7.84091395   -5.70916540    h      0.000     0
         -9.10060687   -4.31096645    5.69933209    h      0.000     0
        -11.45165785   -5.46497193    3.53212653    h      0.000     0
          7.80156879    9.92548538   -3.56920502    h      0.000     0
         -9.86303262   -8.65720938    0.35843089    h      0.000     0
         -2.86934546   12.31707079   -3.38547228    h      0.000     0
         -6.23612999  -11.52497365    0.35782638    h      0.000     0
         -2.36287937    9.74274062   -5.54638061    h      0.000     0
          0.62019299  -13.09316099    0.30525644    h      0.000     0
        -11.59076162    5.47081111   -3.01958767    h      0.000     0
          5.12335722  -12.06202232    0.17565539    h      0.000     0
         -9.33871000    4.31387664   -5.28798400    h      0.000     0
         10.63111227   -7.68740802   -0.11829565    h      0.000     0
        -11.51482256   -5.58994084   -2.82875382    h      0.000     0
         12.63630294   -3.52507174   -0.24122807    h      0.000     0
         -9.23685331   -4.49219590   -5.10081844    h      0.000     0
         12.63681331    3.51904066   -0.32283753    h      0.000     0
         10.03609322   -0.14957714   -5.62417914    h      0.000     0
         10.63125955    7.68285043   -0.35841371    h      0.000     0
         12.65744806   -0.13327261   -3.46092675    h      0.000     0
          5.11766428   12.06019076   -0.40743463    h      0.000     0
          7.90298675   -9.97152770   -3.15371844    h      0.000     0
          0.61400053   13.09428281   -0.33034617    h      0.000     0
          6.22400686   -8.01878782   -5.37166462    h      0.000     0
         -6.24037612   11.52751080   -0.07784421    h      0.000     0
         -2.40495976  -10.01824067   -5.14912894    h      0.000     0
         -9.86340443    8.65938686    0.08021749    h      0.000     0
         -2.96263253  -12.46653292   -2.85817537    h      0.000     0
        -12.93642134    2.31462776    0.26026762    h      0.000     0
          0.03087599   -2.73416033   -0.43315891    c      6.000     0
         -2.32492522    1.34882738   -0.49239404    c      6.000     0
          0.05509231    2.73389290    0.43154703    c      6.000     0
          2.40615525   -1.34276488    0.50452142    c      6.000     0
          2.38288229    1.33884600   -0.61353517    c      6.000     0
         -2.30234052   -1.34527729    0.59815730    c      6.000     0
          0.13077801    0.12974653    4.37881871    c      6.000     0
         -0.06895955   -0.12999672   -4.37989499    c      6.000     0
          2.31134358    1.27276831   -3.51941694    c      6.000     0
         -2.25663040   -1.24308822    3.49676876    c      6.000     0
          0.01744015   -2.82753678   -3.33677486    c      6.000     0
          0.17384500    2.82719859    3.33278816    c      6.000     0
         -2.41176526    1.24611914   -3.39006169    c      6.000     0
          2.46763028   -1.27591944    3.41054115    c      6.000     0
         -2.76648499   -0.99879609   -8.28419171    c      6.000     0
          2.09969971    2.07070760    8.33242655    c      6.000     0
          1.71125477   -2.07841833   -8.41806727    c      6.000     0
         -2.38316153    1.00730487    8.40255703    c      6.000     0
          0.40457876    2.33887917   -8.49432431    c      6.000     0
          0.78209354   -2.34158961    8.46740403    c      6.000     0
          0.15846524    0.21627394    7.37103786    n      7.000     0
         -0.17756290   -0.21675733   -7.37023349    n      7.000     0
          0.03944332   -4.67918434    0.28364704    h      1.000     0
          0.03424120    4.67902700   -0.28479133    h      1.000     0
          4.09656009    2.34492829   -0.02738462    h      1.000     0
         -4.02292896   -2.33841597    0.00250677    h      1.000     0
         -4.01505366    2.34487119    0.18070508    h      1.000     0
          4.08965300   -2.35195463   -0.15890532    h      1.000     0
         -1.59127142   -3.93649316   -4.00939424    h      1.000     0
          1.92668216    3.76470230    3.88863655    h      1.000     0
         -2.50236861    3.15916908   -4.16225813    h      1.000     0
          2.49909600   -3.21403409    4.11908977    h      1.000     0
          4.00258750    0.32962736   -4.24092116    h      1.000     0
         -3.94374409   -0.25336198    4.15179363    h      1.000     0
         -2.31430020   -3.15606282    4.27172999    h      1.000     0
          2.31193354    3.21108954   -4.22799837    h      1.000     0
         -1.40078436    3.93882100    4.07767023    h      1.000     0
          1.74156187   -3.76803455   -3.97181178    h      1.000     0
          4.19121906   -0.33407120    4.05313634    h      1.000     0
         -4.12863223    0.25872649   -3.96675018    h      1.000     0
         -3.34795518   -2.72578207   -7.32711784    h      1.000     0
          1.49873380    3.98680389    7.88520287    h      1.000     0
         -0.80277393    3.76407304   -7.63368526    h      1.000     0
          2.74739340   -2.79602628    8.06643844    h      1.000     0
          3.57312072   -1.68618719   -7.63956305    h      1.000     0
         -3.74598081   -0.50262171    8.10447346    h      1.000     0
          3.92313974    1.67081588    7.47160244    h      1.000     0
         -4.10856705    0.51629285   -7.92480513    h      1.000     0
         -3.00141281    2.73700380    7.47412373    h      1.000     0
          1.12317483   -3.99229021   -7.94488751    h      1.000     0
         -0.46864082   -3.76220345    7.66308087    h      1.000     0
          2.38785423    2.78613151   -8.18372631    h      1.000     0
         -2.60841766   -1.33897680  -10.31152828    h      1.000     0
          2.21048654    1.82031208   10.37602475    h      1.000     0
          1.73169441   -1.82762116  -10.46447360    h      1.000     0
         -2.13129758    1.34529221   10.42080075    h      1.000     0
          0.01258724    2.21192085  -10.51445861    h      1.000     0
          0.48347917   -2.21336169   10.50339038    h      1.000     0
 
       center of nuclear mass  :   -0.00170953    0.00002205    0.00000981
       center of nuclear charge:    0.01831319   -0.00017648   -0.00019127

              +--------------------------------------------------+
              |               basis set information              |
              +--------------------------------------------------+

              we will work with the 1s 3p 5d 7f 9g ... basis set
              ...i.e. with spherical basis functions...

   type   atoms  prim   cont   basis
   ---------------------------------------------------------------------------
    o       14     77     55   cc-pVQZ   [5s4p3d2f1g|21s6p3d2f1g]
    n       30     77     55   cc-pVQZ   [5s4p3d2f1g|21s6p3d2f1g]
    c       62     77     55   cc-pVQZ   [5s4p3d2f1g|21s6p3d2f1g]
    h       78     32     30   cc-pVQZ   [4s3p2d1f|6s3p2d1f]
   ---------------------------------------------------------------------------
   total:  184  10658   8170
   ---------------------------------------------------------------------------

   total number of primitive shells          :  111
   total number of contracted shells         : 2370
   total number of cartesian basis functions :10150
   total number of SCF-basis functions       : 8170


 integral neglect threshold       :  0.33E-12
 integral storage threshold THIZE :  0.10E-04
 integral storage threshold THIME :         5


 DENSITY CONVERGENCE CHECK SWITCHED ON !
 SCF CONVERGENCE IF RMS(delta[D]) <     0.1000000000E-06


 symmetry group of the molecule :   c1 

 the group has the following generators :
   c1(z)

    1 symmetry operations found

 there are 1 real representations :   a   

 maximum number of shells which are related by symmetry :  1


    mo occupation :
   irrep   mo's   occupied
    a     8170       84
 
 number of basis functions   :                   8170
 number of occupied orbitals :                     84
 

 automatic virtual orbital shift switched on 
      shift if e(lumo)-e(homo) < 0.10000000    


 keyword $2e-ints_shell_statistics missing in file <control>

 ! One task per shell generated
  No pre-computed optimal task distribution found
  ... using automatic task generation

          ------------------------
          nuclear repulsion energy  :   2180.83991053    
          ------------------------


         -----------------
         -S,T+V- integrals
         -----------------

 1e-integrals will be neglected if expon. factor < 0.329257E-13
 
   Difference densities algorithm switched on.
   The maximal number of linear combinations of
   difference densities is                    20 .

 DIIS switched on: error vector is FDS-SDF
 Max. Iterations for DIIS is     :   5
 DIIS matrix (see manual) 
    Scaling factor of diagonals  :  1.200
    threshold for scaling factor :  0.000

 scf convergence criterion : increment of total energy < .1000000D-06
                  and increment of one-electron energy < .1000000D-03

  MOs are in ASCII format !


 reading orbital data $scfmo  from file mos
 orbital characterization : scfconv=7

 DSCF restart information will be dumped onto file mos

 
                                              current damping :  0.300
 ITERATION  ENERGY          1e-ENERGY        2e-ENERGY     RMS[dD(SAO)]   TOL
   1  -887.07209563138    -5495.9672407     2428.0552346    0.000D+00 0.328D-12
          max. resid. norm for Fia-block=  1.119D-02 for orbital     74a         
          max. resid. fock norm         =  3.336D-02 for orbital    193a         
          Delta Eig. =     4.6350487124 eV 
 
                                              current damping :  0.250
 ITERATION  ENERGY          1e-ENERGY        2e-ENERGY     RMS[dD(SAO)]   TOL
   2  -887.07576406750    -5497.5314216     2429.6157470    0.317D-04 0.208D-12
          Norm of current diis error: 0.12391    
          max. resid. norm for Fia-block=  3.081D-03 for orbital     74a         
          max. resid. fock norm         =  5.519D-03 for orbital    163a         
          Delta Eig. =     0.9161568901 eV 
 
                                              current damping :  0.200
 ITERATION  ENERGY          1e-ENERGY        2e-ENERGY     RMS[dD(SAO)]   TOL
   3  -887.07619322159    -5497.3143270     2429.3982233    0.112D-04 0.165D-12
          Norm of current diis error: 0.48989E-01
          max. resid. norm for Fia-block=  1.997D-03 for orbital     74a         
          max. resid. fock norm         =  2.222D-03 for orbital     74a         
          Delta Eig. =     0.2228159444 eV 
 
                                              current damping :  0.250
 ITERATION  ENERGY          1e-ENERGY        2e-ENERGY     RMS[dD(SAO)]   TOL
   4  -887.07627940152    -5497.4816219     2429.5654320    0.498D-05 0.147D-12
          Norm of current diis error: 0.17484E-01
          max. resid. norm for Fia-block=  8.342D-04 for orbital     74a         
          max. resid. fock norm         =  9.856D-04 for orbital     74a         
          Delta Eig. =     0.0420749032 eV 
 
                                              current damping :  0.100
 ITERATION  ENERGY          1e-ENERGY        2e-ENERGY     RMS[dD(SAO)]   TOL
   5  -887.07629366934    -5497.4907130     2429.5745088    0.154D-05 0.137D-12
          Norm of current diis error: 0.67626E-02
          max. resid. norm for Fia-block=  4.755D-04 for orbital     74a         
          max. resid. fock norm         =  5.140D-04 for orbital     74a         
 mo-orthogonalization: Cholesky decomposition
          Delta Eig. =     0.0086946080 eV 
 
                                              current damping :  0.100
 ITERATION  ENERGY          1e-ENERGY        2e-ENERGY     RMS[dD(SAO)]   TOL
   6  -887.07629654559    -5497.4943014     2429.5780943    0.527D-06 0.128D-12
          Norm of current diis error: 0.26613E-02
          max. resid. norm for Fia-block=  1.555D-04 for orbital     74a         
          max. resid. fock norm         =  1.723D-04 for orbital     74a         
          Delta Eig. =     0.0091980948 eV 
 
                                              current damping :  0.100
 ITERATION  ENERGY          1e-ENERGY        2e-ENERGY     RMS[dD(SAO)]   TOL
   7  -887.07629692180    -5497.4977086     2429.5815011    0.176D-06 0.122D-12
          Norm of current diis error: 0.10152E-02
          max. resid. norm for Fia-block=  7.406D-05 for orbital     74a         
          max. resid. fock norm         =  8.216D-05 for orbital     74a         
          Delta Eig. =     0.0036899683 eV 

 DENSITY CONVERGED !

 
                                              current damping :  0.150
 ITERATION  ENERGY          1e-ENERGY        2e-ENERGY     RMS[dD(SAO)]   TOL
   8  -887.07629697310    -5497.4968915     2429.5806840    0.780D-07 0.118D-12
          Norm of current diis error: 0.38990E-03
          max. resid. norm for Fia-block=  2.164D-05 for orbital     74a         
          max. resid. fock norm         =  2.348D-05 for orbital     74a         
          Delta Eig. =     0.0011363299 eV 

 ENERGY & DENSITY CONVERGED !

 
                                              current damping :  0.200
 ITERATION  ENERGY          1e-ENERGY        2e-ENERGY     RMS[dD(SAO)]   TOL
   9  -887.07629698044    -5497.4970443     2429.5808368    0.323D-07 0.115D-12
          max. resid. norm for Fia-block=  5.364D-06 for orbital     74a         
          max. resid. fock norm         =  6.945D-06 for orbital   3725a         

 convergence criteria satisfied after     9 iterations


                  ------------------------------------------ 
                 |  total energy      =   -887.07629698044  |
                  ------------------------------------------ 
                 :  kinetic energy    =    886.21794667961  :
                 :  potential energy  =  -1773.29424366005  :
                 :  virial theorem    =      1.99903238278  :
                 :  wavefunction norm =      1.00000000000  :
                  .......................................... 


 orbitals $scfmo  will be written to file mos

    irrep                 80a         81a         82a         83a         84a   
 eigenvalues H         -0.67834    -0.67484    -0.65220    -0.63229    -0.63220
            eV         -18.4587    -18.3635    -17.7474    -17.2057    -17.2031
 occupation              2.0000      2.0000      2.0000      2.0000      2.0000 

    irrep                 85a         86a         87a         88a         89a   
 eigenvalues H         -0.14064    -0.12574    -0.12572    -0.11786    -0.10936
            eV          -3.8269     -3.4216     -3.4209     -3.2070     -2.9759
 
 
 
 
 ==============================================================================
                           electrostatic moments
 ==============================================================================

 reference point for electrostatic moments:    0.00000   0.00000   0.00000

 
              nuc           elec       ->  total
 ------------------------------------------------------------------------------
                          charge      
 ------------------------------------------------------------------------------
         170.000000    -168.000000       2.000000
 
 ------------------------------------------------------------------------------
                       dipole moment  
 ------------------------------------------------------------------------------
   x       3.113242      -3.117051      -0.003809
   y      -0.030002       0.029543      -0.000459
   z      -0.032516       0.033192       0.000677
 
   | dipole moment | =     0.0039 a.u. =     0.0099 debye 
 
 ------------------------------------------------------------------------------
                     quadrupole moment
 ------------------------------------------------------------------------------
  xx     679.315784    -765.619853     -86.304069
  yy     680.307978    -766.596690     -86.288712
  zz    5541.607083   -5526.676138      14.930945
  xy       3.292615      -3.224451       0.068164
  xz     110.931188    -108.622631       2.308557
  yz     143.480328    -140.494742       2.985586
 
     1/3  trace=     -52.553946
     anisotropy=     101.438243
 
 ==============================================================================
 

    dscf profiling
  --------------------------------------------------------------------
             module   cpu total (s)       %  wall total (s)       %

          dscf.total         91886.9  100.00         41305.4  100.00
        dscf.prepare           556.0    0.61           197.0    0.48
      prepare.oneint             6.0    0.01             2.7    0.01
     prepare.moinput            50.9    0.06            50.9    0.12
     moinput_orthmos           496.6    0.54           140.4    0.34
            dscf.scf         91324.7   99.39         41101.8   99.51
             scf.pre             0.0    0.00             0.1    0.00
        scf.makedmat           377.4    0.41            68.1    0.16
          scf.shloop         76390.0   83.13         38124.7   92.30
          shloop_omp         76379.2   83.12         38113.9   92.27
          scf.symcar             8.2    0.01             8.2    0.02
        scf.makefock           151.3    0.16            24.1    0.06
          scf.newerg             9.4    0.01             0.5    0.00
          scf.newcnv          4281.1    4.66           228.0    0.55
           scf.fdiag          7455.6    8.11           373.6    0.90
         diag_tritrn          2578.4    2.81           129.2    0.31
          diag_rdiag          4847.4    5.28           242.7    0.59
          scf.modump          1905.1    2.07          1908.6    4.62
           ortho_all           490.8    0.53           135.5    0.33
            scf.post           249.6    0.27           230.0    0.56
        dscf.postscf             6.2    0.01             6.6    0.02
 


    ------------------------------------------------------------------------
         total  cpu-time :   1 days  1 hours 31 minutes and 29 seconds
         total wall-time : 11 hours 28 minutes and 28 seconds
    ------------------------------------------------------------------------

   ****  dscf : all done  ****


    2018-03-16 11:42:06.226 

