           Doing BLAS/Lapack in the master proc. with  8 CPUs.
           SMPCPUS    set: Shared-memory Parallelization with   8 CPUs.

           SMP Parallelization Reference:
           C. van Wullen, J. Comput. Chem. 32 (2011) 1195--1201
 operating system is UNIX !

 ridft (c-12-22.gp.local) : TURBOMOLE V7.2 ( 21454 ) 4 Oct 2017 at 12:48:15
 Copyright (C) 2017 TURBOMOLE GmbH, Karlsruhe


    2018-04-24 21:11:35.249 



                                  r i d f t

                        DFT program with RI approximation 
                                for coulomb part 




                                                 
                                 References:     
                                                 
          TURBOMOLE:                             
              R. Ahlrichs, M. Baer, M. Haeser, H. Horn, and
              C. Koelmel
              Electronic structure calculations on workstation
              computers: the program system TURBOMOLE
              Chem. Phys. Lett. 162: 165 (1989)
          Density Functional:                              
              O. Treutler and R. Ahlrichs                      
              Efficient Molecular Numerical Integration Schemes
              J. Chem. Phys. 102: 346 (1995)                   
          Parallel Version:                                
              Performance of parallel TURBOMOLE for Density    
              Functional Calculations                          
              M. v. Arnim and R. Ahlrichs                      
              J. Comp. Chem. 19: 1746 (1998)                   
          RI-J Method:                                     
              Auxiliary Basis Sets to approximate Coulomb      
              Potentials                                       
              Chem. Phys. Lett. 240: 283 (1995)                
              K. Eichkorn, O. Treutler, H. Oehm, M. Haeser     
              and R. Ahlrichs                                  
              Chem. Phys. Lett. 242: 652 (1995)                
                                                           
              Auxiliary Basis Sets for Main Row Atoms and their
              Use to approximate Coulomb Potentials            
              K. Eichkorn, F. Weigend, O. Treutler and         
              R. Ahlrichs                                      
              Theo. Chem. Acc. 97: 119 (1997)                   
                                                           
              Accurate Coulomb-fitting basis sets for H to Rn 
              F. Weigend                                        
              Phys. Chem. Chem. Phys. 8: 1057 (2006)            
                                                           
          Multipole accelerated RI-J (MARI-J):             
              Fast evaluation of the Coulomb potential for     
              electron densities using multipole accelerated   
              resolution of identity approximation             
              M. Sierka, A. Hogekamp and R. Ahlrichs           
              J. Chem. Phys. 118: 9136 (2003)                  
          RI-JK Method:                                     
              A fully direct RI-HF algorithm: Implementation,
              optimised auxiliary basis sets, demonstration of
              accuracy and efficiency                         
              F. Weigend                                      
              Phys. Chem. Chem. Phys. 4: 4285 (2002)           
          Two-component HF and DFT with spin-orbit coupling:  
              Self-consistent treatment of spin-orbit         
              interactions with efficient Hartree-Fock and    
              density functional methods                      
              M. K. Armbruster, F. Weigend, C. van Wüllen and 
              W. Klopper                                      
              Phys. Chem. Chem. Phys. 10: 1748 (2008)         
          Relativistic all-electron 2c calculations           
              An efficient implementation of two-component    
              relativistic exact-decoupling methods for large 
              molecules                                       
              D. Peng, N. Middendorf, F. Weigend, M. Reiher   
              J. Chem. Phys. 138, 184105 (2013)               
                                         




              +--------------------------------------------------+
              |      general information about current run       |
              +--------------------------------------------------+

 

 DENSITY CONVERGENCE CHECK SWITCHED ON !
 SCF CONVERGENCE IF RMS(delta[D]) <     0.1000000000E-06

 PBE functional
 exchange:    LDA + PBE
 correlation: LDA (PW) + PBE
 A DFT calculation using the RI-J approximation will be carried out.
 Allocatable memory for RI due to $ricore (MB):                   500


              +--------------------------------------------------+
              | Atomic coordinate, charge and isotop information |
              +--------------------------------------------------+

                    atomic coordinates            atom    charge  isotop
          2.60196602    1.58689273    1.38823995    n      7.000     0
          1.98763739    2.61958343    2.87872494    h      1.000     0
          2.47361884    2.75433218   -0.98389535    c      6.000     0
          1.73960886    4.93422189   -1.18292459    o      8.000     0
          3.80103848   -2.29263143   -0.18532888    n      7.000     0
          3.26409657    1.87242132   -4.93595627    h      1.000     0
          3.82808790   -1.31746269   -2.57833742    c      6.000     0
          4.34167788   -2.62872251   -4.05468202    h      1.000     0
          3.23995879    1.11860033   -3.04715924    c      6.000     0
          4.02408528   -4.16027159    0.10739148    h      1.000     0
          3.11038534   -0.91690641    1.92509860    c      6.000     0
          2.95008174   -1.83646680    4.02475582    o      8.000     0
         -2.56144987   -1.57989785    1.38823995    n      7.000     0
         -1.94712124   -2.61258855    2.87872494    h      1.000     0
         -2.43310269   -2.74733730   -0.98389535    c      6.000     0
         -1.69909272   -4.92722701   -1.18292459    o      8.000     0
         -3.76052233    2.29962631   -0.18532888    n      7.000     0
         -3.22358042   -1.86542644   -4.93595627    h      1.000     0
         -3.78757176    1.32445757   -2.57833742    c      6.000     0
         -4.30116174    2.63571739   -4.05468202    h      1.000     0
         -3.19944265   -1.11160545   -3.04715924    c      6.000     0
         -3.98356913    4.16726647    0.10739148    h      1.000     0
         -3.06986919    0.92390129    1.92509860    c      6.000     0
         -2.90956559    1.84346168    4.02475582    o      8.000     0
 
       center of nuclear mass  :    0.02025807    0.00349744    0.00000250
       center of nuclear charge:    0.02025807    0.00349744   -0.05095267

              +--------------------------------------------------+
              |               basis set information              |
              +--------------------------------------------------+

              we will work with the 1s 3p 5d 7f 9g ... basis set
              ...i.e. with spherical basis functions...

   type   atoms  prim   cont   basis
   ---------------------------------------------------------------------------
    n        4     77     55   cc-pVQZ   [5s4p3d2f1g|21s6p3d2f1g]
    h        8     32     30   cc-pVQZ   [4s3p2d1f|6s3p2d1f]
    c        8     77     55   cc-pVQZ   [5s4p3d2f1g|21s6p3d2f1g]
    o        4     77     55   cc-pVQZ   [5s4p3d2f1g|21s6p3d2f1g]
   ---------------------------------------------------------------------------
   total:   24   1488   1120
   ---------------------------------------------------------------------------

   total number of primitive shells          :  111
   total number of contracted shells         :  320
   total number of cartesian basis functions : 1400
   total number of SCF-basis functions       : 1120


 integral neglect threshold       :  0.24E-13
 integral storage threshold THIZE :  0.10E-04
 integral storage threshold THIME :         5

 RI-J AUXILIARY BASIS SET information:

              we will work with the 1s 3p 5d 7f 9g ... basis set
              ...i.e. with spherical basis functions...

   type   atoms  prim   cont   basis
   ---------------------------------------------------------------------------
    n        4     70     49   cc-pVQZ   [6s4p3d1f1g|12s5p4d2f1g]
    h        8     16     11   cc-pVQZ   [3s1p1d|5s2p1d]
    c        8     70     49   cc-pVQZ   [6s4p3d1f1g|12s5p4d2f1g]
    o        4     70     49   cc-pVQZ   [6s4p3d1f1g|12s5p4d2f1g]
   ---------------------------------------------------------------------------
   total:   24   1248    872
   ---------------------------------------------------------------------------

   total number of primitive shells          :   80
   total number of contracted shells         :  280
   total number of cartesian basis functions : 1072
   total number of SCF-basis functions       :  872


 symmetry group of the molecule :   c1 

 the group has the following generators :
   c1(z)

    1 symmetry operations found

 there are 1 real representations :   a   

 maximum number of shells which are related by symmetry :  1


    mo occupation :
   irrep   mo's   occupied
    a     1120       58
 
 number of basis functions   :                   1120
 number of occupied orbitals :                     58
 
  
           ------------------
           density functional
           ------------------
 PBE functional
 exchange:    LDA + PBE
 correlation: LDA (PW) + PBE

 iterations will be done with small grid
  
 spherical integration : Lebedev's spherical grid
 spherical gridsize    :                     5
    i.e. gridpoints    :                   590
 value for diffuse not defined
 radial integration    : Chebyshev 2nd kind (scaling 3)
 radial gridsize       :                     8
 integration cells     :                    24
 partition function    : becke
 partition sharpness   :                     3
  

 biggest AO integral is expected to be     4.785886462
  
           ------------------------
               RI-J - INFORMATION
           ------------------------
 Contributions to RI integral batches: 
  neglected integral batches:                 13302
  direct contribution:                        27861
  memory contribution:                 10197
 Memory core needed for (P|Q) and Cholesky      6 MByte
 Memory core minimum needed except of (P|Q)     1 MByte
 Total minimum memory core needed (sum)         7 MByte
  
 ****************************************
 Memory allocated for RI-J   364 MByte
 ****************************************
                                            

          ------------------------
          nuclear repulsion energy  :   1163.54572890    
          ------------------------


         -----------------
         -S,T+V- integrals
         -----------------

 1e-integrals will be neglected if expon. factor < 0.238712E-14
 Difference densities >>NOT<< switched on in parallel ridft!

 DIIS switched on: error vector is FDS-SDF
 Max. Iterations for DIIS is     :   4
 DIIS matrix (see manual) 
    Scaling factor of diagonals  :  1.200
    threshold for scaling factor :  0.000

 scf convergence criterion : increment of total energy < .1000000D-08
                  and increment of one-electron energy < .1000000D-05

  MOs are in ASCII format !


 automatic virtual orbital shift switched on 
      shift if e(lumo)-e(homo) < 0.10000000    


 reading orbital data $scfmo  from file mos
 orbital characterization : expanded
 mo provided and orthogonalized by Cholesky decomposition

 DSCF restart information will be dumped onto file mos


 Starting SCF iterations

          Overall gridpoints after grid construction =        124484

 ITERATION  ENERGY          1e-ENERGY        2e-ENERGY     RMS[dD(SAO)]   TOL
   1  -825.22926562550    -3418.8123357     1430.0373411    0.000D+00 0.238D-13
                            Exc = -107.131948435     Coul =  1537.16928956    
                              N = 115.99965144    
                            current damping = 0.700
 
          max. resid. norm for Fia-block=  4.579D-01 for orbital     40a         
          max. resid. fock norm         =  1.050D+01 for orbital   1029a         

 ITERATION  ENERGY          1e-ENERGY        2e-ENERGY     RMS[dD(SAO)]   TOL
   2  -828.55427793448    -3435.5526146     1443.4526078    0.577D-02 0.238D-13
                            Exc = -107.157773965     Coul =  1550.61038172    
                              N = 115.99970726    
                            current damping = 0.650
 
          Norm of current diis error:  4.4251    
          max. resid. norm for Fia-block=  1.657D-01 for orbital      1a         
          max. resid. fock norm         =  3.706D-01 for orbital   1016a         

 ITERATION  ENERGY          1e-ENERGY        2e-ENERGY     RMS[dD(SAO)]   TOL
   3  -828.96055449988    -3440.3811407     1447.8748573    0.267D-02 0.238D-13
                            Exc = -107.676758672     Coul =  1555.55161602    
                              N = 115.99974595    
                            current damping = 0.550
 
          Norm of current diis error:  2.1060    
          max. resid. norm for Fia-block=  6.628D-02 for orbital      1a         
          max. resid. fock norm         =  8.104D-02 for orbital    563a         

 ITERATION  ENERGY          1e-ENERGY        2e-ENERGY     RMS[dD(SAO)]   TOL
   4  -829.07578862790    -3441.5341071     1448.9125896    0.173D-02 0.238D-13
                            Exc = -107.515660409     Coul =  1556.42824997    
                              N = 115.99976083    
                            current damping = 0.450
 
          Norm of current diis error: 0.98740    
          max. resid. norm for Fia-block=  3.149D-02 for orbital     20a         
          max. resid. fock norm         =  6.878D-02 for orbital   1006a         

 ITERATION  ENERGY          1e-ENERGY        2e-ENERGY     RMS[dD(SAO)]   TOL
   5  -829.09573684620    -3441.6892032     1449.0477375    0.772D-03 0.238D-13
                            Exc = -107.678231030     Coul =  1556.72596850    
                              N = 115.99976692    
                            current damping = 0.300
 
          Norm of current diis error: 0.58447    
          max. resid. norm for Fia-block=  9.698D-03 for orbital     51a         
          max. resid. fock norm         =  1.255D-02 for orbital    878a         
          mo-orthogonalization: Cholesky decomposition

 ITERATION  ENERGY          1e-ENERGY        2e-ENERGY     RMS[dD(SAO)]   TOL
   6  -829.10504608186    -3442.5730593     1449.9222843    0.511D-03 0.238D-13
                            Exc = -107.681324913     Coul =  1557.60360925    
                              N = 115.99977248    
                            current damping = 0.200
 
          Norm of current diis error: 0.13334    
          max. resid. norm for Fia-block=  3.726D-03 for orbital     51a         
          max. resid. fock norm         =  5.785D-03 for orbital   1061a         

 ITERATION  ENERGY          1e-ENERGY        2e-ENERGY     RMS[dD(SAO)]   TOL
   7  -829.10521268626    -3442.0631528     1449.4122112    0.183D-03 0.238D-13
                            Exc = -107.638850061     Coul =  1557.05106126    
                              N = 115.99977252    
                            current damping = 0.250
 
          Norm of current diis error: 0.10704    
          max. resid. norm for Fia-block=  1.824D-03 for orbital     55a         
          max. resid. fock norm         =  3.519D-03 for orbital     41a         

 ITERATION  ENERGY          1e-ENERGY        2e-ENERGY     RMS[dD(SAO)]   TOL
   8  -829.10548091439    -3442.2157092     1449.5644994    0.343D-04 0.238D-13
                            Exc = -107.658363482     Coul =  1557.22286287    
                              N = 115.99977272    
                            current damping = 0.300
 
          Norm of current diis error: 0.31166E-01
          max. resid. norm for Fia-block=  9.031D-04 for orbital     56a         
          max. resid. fock norm         =  2.257D-03 for orbital   1117a         

 ITERATION  ENERGY          1e-ENERGY        2e-ENERGY     RMS[dD(SAO)]   TOL
   9  -829.10548497493    -3442.3223207     1449.6711069    0.304D-04 0.238D-13
                            Exc = -107.667660451     Coul =  1557.33876731    
                              N = 115.99977288    
                            current damping = 0.150
 
          Norm of current diis error: 0.26911E-01
          max. resid. norm for Fia-block=  6.455D-04 for orbital     56a         
          max. resid. fock norm         =  1.302D-03 for orbital   1117a         

 ITERATION  ENERGY          1e-ENERGY        2e-ENERGY     RMS[dD(SAO)]   TOL
  10  -829.10550068401    -3442.3049324     1449.6537028    0.236D-04 0.238D-13
                            Exc = -107.662173477     Coul =  1557.31587631    
                              N = 115.99977296    
                            current damping = 0.200
 
          Norm of current diis error: 0.16398E-01
          max. resid. norm for Fia-block=  2.236D-04 for orbital     56a         
          max. resid. fock norm         =  3.869D-04 for orbital    976a         
          mo-orthogonalization: Cholesky decomposition

 ITERATION  ENERGY          1e-ENERGY        2e-ENERGY     RMS[dD(SAO)]   TOL
  11  -829.10550764940    -3442.2822664     1449.6310298    0.534D-05 0.238D-13
                            Exc = -107.662855811     Coul =  1557.29388561    
                              N = 115.99977293    
                            current damping = 0.050
 
          Norm of current diis error: 0.21155E-02
          max. resid. norm for Fia-block=  5.721D-05 for orbital     49a         
          max. resid. fock norm         =  7.712D-05 for orbital   1111a         

 ITERATION  ENERGY          1e-ENERGY        2e-ENERGY     RMS[dD(SAO)]   TOL
  12  -829.10550763246    -3442.2876465     1449.6364100    0.877D-06 0.238D-13
                            Exc = -107.662874479     Coul =  1557.29928448    
                              N = 115.99977290    
                            current damping = 0.100
 
          Norm of current diis error: 0.22485E-02
          max. resid. norm for Fia-block=  3.000D-05 for orbital     49a         
          max. resid. fock norm         =  3.823D-05 for orbital   1111a         

 ITERATION  ENERGY          1e-ENERGY        2e-ENERGY     RMS[dD(SAO)]   TOL
  13  -829.10550773881    -3442.2870347     1449.6357980    0.428D-06 0.238D-13
                            Exc = -107.662880705     Coul =  1557.29867874    
                              N = 115.99977291    
                            current damping = 0.150
 
          Norm of current diis error: 0.45817E-03
          max. resid. norm for Fia-block=  8.613D-06 for orbital     50a         
          max. resid. fock norm         =  1.713D-05 for orbital   1107a         

 ITERATION  ENERGY          1e-ENERGY        2e-ENERGY     RMS[dD(SAO)]   TOL
  14  -829.10550773958    -3442.2853846     1449.6341480    0.263D-06 0.238D-13
                            Exc = -107.662839025     Coul =  1557.29698698    
                              N = 115.99977292    
                            current damping = 0.050
 
          Norm of current diis error: 0.36601E-03
          max. resid. norm for Fia-block=  6.078D-06 for orbital     57a         
          max. resid. fock norm         =  1.698D-05 for orbital   1117a         

 ITERATION  ENERGY          1e-ENERGY        2e-ENERGY     RMS[dD(SAO)]   TOL
  15  -829.10550774226    -3442.2857751     1449.6345385    0.199D-06 0.238D-13
                            Exc = -107.662863144     Coul =  1557.29740161    
                              N = 115.99977292    
                            current damping = 0.100
 
          Norm of current diis error: 0.16057E-03
          max. resid. norm for Fia-block=  3.021D-06 for orbital     57a         
          max. resid. fock norm         =  8.908D-06 for orbital   1117a         
          mo-orthogonalization: Cholesky decomposition

 DENSITY CONVERGED !


 ITERATION  ENERGY          1e-ENERGY        2e-ENERGY     RMS[dD(SAO)]   TOL
  16  -829.10550774279    -3442.2859696     1449.6347330    0.889D-07 0.238D-13
                            Exc = -107.662863218     Coul =  1557.29759621    
                              N = 115.99977292    
                            current damping = 0.050
 
          Norm of current diis error: 0.77251E-04
          max. resid. norm for Fia-block=  1.335D-06 for orbital     51a         
          max. resid. fock norm         =  3.330D-06 for orbital   1117a         

 DENSITY CONVERGED !


 ITERATION  ENERGY          1e-ENERGY        2e-ENERGY     RMS[dD(SAO)]   TOL
  17  -829.10550774293    -3442.2858400     1449.6346034    0.392D-07 0.238D-13
                            Exc = -107.662858900     Coul =  1557.29746230    
                              N = 115.99977292    
                            current damping = 0.100
 
          Norm of current diis error: 0.37501E-04
          max. resid. norm for Fia-block=  6.817D-07 for orbital     58a         
          max. resid. fock norm         =  1.537D-06 for orbital   1107a         

 DENSITY CONVERGED !


 ITERATION  ENERGY          1e-ENERGY        2e-ENERGY     RMS[dD(SAO)]   TOL
  18  -829.10550774294    -3442.2858585     1449.6346219    0.167D-07 0.238D-13
                            Exc = -107.662861253     Coul =  1557.29748312    
                              N = 115.99977292    
                            current damping = 0.150
 
          Norm of current diis error: 0.19306E-04
          max. resid. norm for Fia-block=  3.549D-07 for orbital     55a         
          max. resid. fock norm         =  6.206D-07 for orbital   1005a         

 ENERGY & DENSITY CONVERGED !

          Overall gridpoints after grid construction =        390260

 ITERATION  ENERGY          1e-ENERGY        2e-ENERGY     RMS[dD(SAO)]   TOL
  19  -829.10552824031    -3442.2858772     1449.6346200    0.699D-08 0.238D-13
                            Exc = -107.662880498     Coul =  1557.29750052    
                              N = 115.99997147    
                            current damping = 0.200
 
          Norm of current diis error: 0.10373E-04
          max. resid. norm for Fia-block=  2.188D-07 for orbital     53a         
          max. resid. fock norm         =  4.043D-07 for orbital   1119a         

 End of SCF iterations

   convergence criteria satisfied after    19 iterations


                  ------------------------------------------ 
                 |  total energy      =   -829.10552824031  |
                  ------------------------------------------ 
                 :  kinetic energy    =    826.09408214955  :
                 :  potential energy  =  -1655.19961038986  :
                 :  virial theorem    =      1.99636783740  :
                 :  wavefunction norm =      1.00000000000  :
                  .......................................... 


 <geterg> : there is no data group $energy 


 <skperg> : $end is missing 


 orbitals $scfmo  will be written to file mos

    irrep                 54a         55a         56a         57a         58a   
 eigenvalues H         -0.25717    -0.24234    -0.23240    -0.23140    -0.22733
            eV          -6.9980     -6.5944     -6.3241     -6.2966     -6.1861
 occupation              2.0000      2.0000      2.0000      2.0000      2.0000 

    irrep                 59a         60a         61a         62a         63a   
 eigenvalues H         -0.09138    -0.08432    -0.04394    -0.03843    -0.01585
            eV          -2.4867     -2.2944     -1.1957     -1.0458     -0.4312
 
 
 
 
 ==============================================================================
                           electrostatic moments
 ==============================================================================

 reference point for electrostatic moments:    0.00000   0.00000   0.00000

 
              nuc           elec       ->  total
 ------------------------------------------------------------------------------
                          charge      
 ------------------------------------------------------------------------------
         116.000000    -116.000000      -0.000000
 
 ------------------------------------------------------------------------------
                       dipole moment  
 ------------------------------------------------------------------------------
   x       2.349936      -2.349936      -0.000000
   y       0.405703      -0.405703      -0.000000
   z      -5.910510       4.086761      -1.823749
 
   | dipole moment | =     1.8237 a.u. =     4.6355 debye 
 
 ------------------------------------------------------------------------------
                     quadrupole moment
 ------------------------------------------------------------------------------
  xx    1061.524994   -1123.441677     -61.916683
  yy     758.108664    -832.854100     -74.745436
  zz     654.519414    -724.727500     -70.208086
  xy     -19.001985      11.085653      -7.916332
  xz      -0.119736       0.082790      -0.036946
  yz      -0.020672       0.014293      -0.006378
 
     1/3  trace=     -68.956735
     anisotropy=      17.747255
 
 ==============================================================================
 


    ------------------------------------------------------------------------
         total  cpu-time : 32 minutes and 42 seconds
         total wall-time :  6 minutes and 19 seconds
    ------------------------------------------------------------------------

   ****  ridft : all done  ****


    2018-04-24 21:17:53.753 

