
   OpenMP run-time library returned nthreads = 28
 operating system is UNIX !

 dscf (c-16-37) : TURBOMOLE V7.3 ( 22142 ) 4 Jul 2018 at 18:12:42
 Copyright (C) 2018 TURBOMOLE GmbH, Karlsruhe


    2019-04-01 23:55:39.730 



                             d s c f - program

                   idea & directorship : reinhart ahlrichs
                   program development : marco haeser
                                         michael baer
                           dft version : oliver treutler


                          quantum chemistry group
                          universitaet  karlsruhe
                                  germany




                          References             
                                                 
          TURBOMOLE:                             
              R. Ahlrichs, M. Baer, M. Haeser, H. Horn, and
              C. Koelmel
              Electronic structure calculations on workstation
              computers: the program system TURBOMOLE
              Chem. Phys. Lett. 162: 165 (1989)
          Density Functional:                              
              O. Treutler and R. Ahlrichs                      
              Efficient Molecular Numerical Integration Schemes
              J. Chem. Phys. 102: 346 (1995)                   
          Parallel Version:                                
              Performance of parallel TURBOMOLE for Density    
              Functional Calculations                          
              M. v. Arnim and R. Ahlrichs                      
              J. Comp. Chem. 19: 1746 (1998)                   
                                         




              +--------------------------------------------------+
              | Atomic coordinate, charge and isotop information |
              +--------------------------------------------------+

                    atomic coordinates            atom    charge  isotop
          3.07971469    0.95055591    0.51043750    c      0.000     0
          3.10212411    2.75756002   -0.46880866    h      0.000     0
          4.37531918   -0.34686812   -0.41117861    h      0.000     0
          3.72227981    1.22711302    2.44526980    h      0.000     0
          0.49478276   -0.25107132    0.59443642    c      0.000     0
          0.18756034   -2.47481562    1.15620995    o      0.000     0
         -1.46170742    1.32755556    0.04171741    n      0.000     0
         -1.07527567    3.14933587   -0.31334369    h      0.000     0
         -4.06293413    0.50260791    0.17962467    c      0.000     0
         -4.05296672   -1.54845568    0.19069624    h      0.000     0
         -4.98990345    1.16373181    1.89653750    h      0.000     0
         -5.11689448    1.17304958   -1.45180207    h      0.000     0
         -0.08646646    0.97887259    7.13601528    c      6.000     0
         -0.09569128    2.38137783    8.62111811    h      1.000     0
         -1.31201575    1.29590937    5.53223577    h      1.000     0
          1.36580754   -1.07518777    7.26793633    c      6.000     0
          2.58525720   -1.39989118    8.87444517    h      1.000     0
          1.35614729   -2.46451467    5.77068878    h      1.000     0
 
       center of nuclear mass  :   -0.09378948   -0.00268911    2.35739865
       center of nuclear charge:    0.63810900   -0.04781311    7.20138734

              +--------------------------------------------------+
              |               basis set information              |
              +--------------------------------------------------+

              we will work with the 1s 3p 5d 7f 9g ... basis set
              ...i.e. with spherical basis functions...

   type   atoms  prim   cont   basis
   ---------------------------------------------------------------------------
    c        5     50     30   cc-pVTZ   [4s3p2d1f|18s5p2d1f]
    h       11     16     14   cc-pVTZ   [3s2p1d|5s2p1d]
    o        1     50     30   cc-pVTZ   [4s3p2d1f|18s5p2d1f]
    n        1     50     30   cc-pVTZ   [4s3p2d1f|18s5p2d1f]
   ---------------------------------------------------------------------------
   total:   18    526    364
   ---------------------------------------------------------------------------

   total number of primitive shells          :   86
   total number of contracted shells         :  136
   total number of cartesian basis functions :  410
   total number of SCF-basis functions       :  364


 integral neglect threshold       :  0.81E-13
 integral storage threshold THIZE :  0.10E-04
 integral storage threshold THIME :         5


 DENSITY CONVERGENCE CHECK SWITCHED ON !
 SCF CONVERGENCE IF RMS(delta[D]) <     0.1000000000E-06


 symmetry group of the molecule :   c1 

 the group has the following generators :
   c1(z)

    1 symmetry operations found

 there are 1 real representations :   a   

 maximum number of shells which are related by symmetry :  1


    mo occupation :
   irrep   mo's   occupied
    a      364        8
 
 number of basis functions   :                    364
 number of occupied orbitals :                      8
 

 automatic virtual orbital shift switched on 
      shift if e(lumo)-e(homo) < 0.10000000    


          ------------------------
          nuclear repulsion energy  :   33.4189513800    
          ------------------------


         -----------------
         -S,T+V- integrals
         -----------------

 1e-integrals will be neglected if expon. factor < 0.815113E-14
 
   Difference densities algorithm switched on.
   The maximal number of linear combinations of
   difference densities is                    20 .

 DIIS switched on: error vector is FDS-SDF
 Max. Iterations for DIIS is     :   5
 DIIS matrix (see manual) 
    Scaling factor of diagonals  :  1.200
    threshold for scaling factor :  0.000

 scf convergence criterion : increment of total energy < .1000000D-08
                  and increment of one-electron energy < .1000000D-05

  MOs are in ASCII format !


 reading orbital data $scfmo  from file mos
 orbital characterization : scfconv=9

 DSCF restart information will be dumped onto file mos

 
                                              current damping :  0.700
 ITERATION  ENERGY          1e-ENERGY        2e-ENERGY     RMS[dD(SAO)]   TOL
   1  -78.046584332457    -170.44974829     58.984212574    0.000D+00 0.813D-13
          max. resid. norm for Fia-block=  9.037D-02 for orbital      2a         
          max. resid. fock norm         =  3.882D-01 for orbital    355a         
          Delta Eig. =    20.8259279177 eV 
 
                                              current damping :  0.650
 ITERATION  ENERGY          1e-ENERGY        2e-ENERGY     RMS[dD(SAO)]   TOL
   2  -78.060471698918    -170.16942223     58.689999151    0.414D-03 0.518D-13
          Norm of current diis error: 0.25420    
          max. resid. norm for Fia-block=  4.403D-02 for orbital      2a         
          max. resid. fock norm         =  1.014D-01 for orbital    356a         
          Delta Eig. =     9.7722400892 eV 
 
                                              current damping :  0.600
 ITERATION  ENERGY          1e-ENERGY        2e-ENERGY     RMS[dD(SAO)]   TOL
   3  -78.063256202833    -170.20066345     58.718455868    0.202D-03 0.393D-13
          Norm of current diis error: 0.11287    
          max. resid. norm for Fia-block=  1.804D-02 for orbital      2a         
          max. resid. fock norm         =  3.809D-02 for orbital    301a         
          Delta Eig. =     3.7476118292 eV 
 
                                              current damping :  0.650
 ITERATION  ENERGY          1e-ENERGY        2e-ENERGY     RMS[dD(SAO)]   TOL
   4  -78.063848061579    -170.18084602     58.698046579    0.916D-04 0.346D-13
          Norm of current diis error: 0.45700E-01
          max. resid. norm for Fia-block=  6.798D-03 for orbital      2a         
          max. resid. fock norm         =  1.473D-02 for orbital    303a         
          Delta Eig. =     1.3684035991 eV 
 
                                              current damping :  0.500
 ITERATION  ENERGY          1e-ENERGY        2e-ENERGY     RMS[dD(SAO)]   TOL
   5  -78.063945295763    -170.17517343     58.692276755    0.362D-04 0.318D-13
          Norm of current diis error: 0.19222E-01
          max. resid. norm for Fia-block=  2.644D-03 for orbital      2a         
          max. resid. fock norm         =  5.713D-03 for orbital    291a         
 mo-orthogonalization: Cholesky decomposition
          Delta Eig. =     0.5911142171 eV 
 
                                              current damping :  0.350
 ITERATION  ENERGY          1e-ENERGY        2e-ENERGY     RMS[dD(SAO)]   TOL
   6  -78.063963978350    -170.17266582     58.689750458    0.168D-04 0.292D-13
          Norm of current diis error: 0.69886E-02
          max. resid. norm for Fia-block=  9.348D-04 for orbital      8a         
          max. resid. fock norm         =  1.921D-03 for orbital    247a         
          Delta Eig. =     0.2175789405 eV 
 
                                              current damping :  0.200
 ITERATION  ENERGY          1e-ENERGY        2e-ENERGY     RMS[dD(SAO)]   TOL
   7  -78.063966718941    -170.17162859     58.688710486    0.691D-05 0.266D-13
          Norm of current diis error: 0.20728E-02
          max. resid. norm for Fia-block=  2.836D-04 for orbital      8a         
          max. resid. fock norm         =  4.872D-04 for orbital    247a         
          Delta Eig. =     0.0641065298 eV 
 
                                              current damping :  0.050
 ITERATION  ENERGY          1e-ENERGY        2e-ENERGY     RMS[dD(SAO)]   TOL
   8  -78.063966997345    -170.17140273     58.688484349    0.241D-05 0.241D-13
          Norm of current diis error: 0.46323E-03
          max. resid. norm for Fia-block=  6.971D-05 for orbital      8a         
          max. resid. fock norm         =  8.858D-05 for orbital    309a         
          Delta Eig. =     0.0117288132 eV 
 
                                              current damping :  0.050
 ITERATION  ENERGY          1e-ENERGY        2e-ENERGY     RMS[dD(SAO)]   TOL
   9  -78.063967015542    -170.17129454     58.688376141    0.696D-06 0.221D-13
          Norm of current diis error: 0.82635E-04
          max. resid. norm for Fia-block=  1.362D-05 for orbital      8a         
          max. resid. fock norm         =  1.362D-05 for orbital      8a         
          Delta Eig. =     0.0006641910 eV 
 
                                              current damping :  0.100
 ITERATION  ENERGY          1e-ENERGY        2e-ENERGY     RMS[dD(SAO)]   TOL
  10  -78.063967016328    -170.17129969     58.688381297    0.153D-06 0.211D-13
          Norm of current diis error: 0.22537E-04
          max. resid. norm for Fia-block=  4.980D-06 for orbital      8a         
          max. resid. fock norm         =  4.981D-06 for orbital      8a         
 mo-orthogonalization: Cholesky decomposition
          Delta Eig. =     0.0000597845 eV 

 DENSITY CONVERGED !

 
                                              current damping :  0.150
 ITERATION  ENERGY          1e-ENERGY        2e-ENERGY     RMS[dD(SAO)]   TOL
  11  -78.063967016390    -170.17129010     58.688371701    0.466D-07 0.232D-13
          Norm of current diis error: 0.68300E-05
          max. resid. norm for Fia-block=  1.274D-06 for orbital      8a         
          max. resid. fock norm         =  1.274D-06 for orbital      8a         
          Delta Eig. =     0.0000286335 eV 

 ENERGY & DENSITY CONVERGED !

 
                                              current damping :  0.200
 ITERATION  ENERGY          1e-ENERGY        2e-ENERGY     RMS[dD(SAO)]   TOL
  12  -78.063967016395    -170.17129296     58.688374560    0.126D-07 0.232D-13
          max. resid. norm for Fia-block=  2.706D-07 for orbital      8a         
          max. resid. fock norm         =  2.708D-07 for orbital      8a         

 convergence criteria satisfied after    12 iterations


                  ------------------------------------------ 
                 |  total energy      =    -78.06396701639  |
                  ------------------------------------------ 
                 :  kinetic energy    =     77.93873691141  :
                 :  potential energy  =   -156.00270392781  :
                 :  virial theorem    =      1.99839580142  :
                 :  wavefunction norm =      1.00000000000  :
                  .......................................... 


 orbitals $scfmo  will be written to file mos

    irrep                  4a          5a          6a          7a          8a   
 eigenvalues H         -0.79175    -0.64462    -0.58529    -0.50815    -0.37638
            eV         -21.5448    -17.5410    -15.9267    -13.8275    -10.2419
 occupation              2.0000      2.0000      2.0000      2.0000      2.0000 

    irrep                  9a         10a         11a         12a         13a   
 eigenvalues H          0.06688     0.10538     0.13880     0.15084     0.16330
            eV           1.8200      2.8676      3.7768      4.1046      4.4437
 
 
 
 
 ==============================================================================
                           electrostatic moments
 ==============================================================================

 reference point for electrostatic moments:    0.00000   0.00000   0.00000

 
              nuc           elec       ->  total
 ------------------------------------------------------------------------------
                          charge      
 ------------------------------------------------------------------------------
          16.000000     -16.000000       0.000000
 
 ------------------------------------------------------------------------------
                       dipole moment  
 ------------------------------------------------------------------------------
   x      10.209744     -10.218021      -0.008277
   y      -0.765010       0.761565      -0.003444
   z     115.222197    -115.206175       0.016022
 
   | dipole moment | =     0.0184 a.u. =     0.0467 debye 
 
 ------------------------------------------------------------------------------
                     quadrupole moment
 ------------------------------------------------------------------------------
  xx      21.490673     -32.085544     -10.594872
  yy      28.069191     -37.801990      -9.732799
  zz     839.459611    -848.973968      -9.514356
  xy     -18.208290      17.189249      -1.019040
  xz      78.542739     -77.671347       0.871392
  yz      -3.920668       4.513626       0.592958
 
     1/3  trace=      -9.947342
     anisotropy=       2.725307
 
 ==============================================================================
 


    ------------------------------------------------------------------------
         total  cpu-time : 13 minutes and 36 seconds
         total wall-time :  49.58 seconds
    ------------------------------------------------------------------------

   ****  dscf : all done  ****


    2019-04-01 23:56:29.244 

