           Doing BLAS/Lapack in the master proc. with  8 CPUs.
           SMPCPUS    set: Shared-memory Parallelization with   8 CPUs.

           SMP Parallelization Reference:
           C. van Wullen, J. Comput. Chem. 32 (2011) 1195--1201
 operating system is UNIX !

 ridft (c-18-263.gp.local) : TURBOMOLE V7.2 ( 21454 ) 4 Oct 2017 at 12:48:15
 Copyright (C) 2017 TURBOMOLE GmbH, Karlsruhe


    2018-04-24 21:16:46.587 



                                  r i d f t

                        DFT program with RI approximation 
                                for coulomb part 




                                                 
                                 References:     
                                                 
          TURBOMOLE:                             
              R. Ahlrichs, M. Baer, M. Haeser, H. Horn, and
              C. Koelmel
              Electronic structure calculations on workstation
              computers: the program system TURBOMOLE
              Chem. Phys. Lett. 162: 165 (1989)
          Density Functional:                              
              O. Treutler and R. Ahlrichs                      
              Efficient Molecular Numerical Integration Schemes
              J. Chem. Phys. 102: 346 (1995)                   
          Parallel Version:                                
              Performance of parallel TURBOMOLE for Density    
              Functional Calculations                          
              M. v. Arnim and R. Ahlrichs                      
              J. Comp. Chem. 19: 1746 (1998)                   
          RI-J Method:                                     
              Auxiliary Basis Sets to approximate Coulomb      
              Potentials                                       
              Chem. Phys. Lett. 240: 283 (1995)                
              K. Eichkorn, O. Treutler, H. Oehm, M. Haeser     
              and R. Ahlrichs                                  
              Chem. Phys. Lett. 242: 652 (1995)                
                                                           
              Auxiliary Basis Sets for Main Row Atoms and their
              Use to approximate Coulomb Potentials            
              K. Eichkorn, F. Weigend, O. Treutler and         
              R. Ahlrichs                                      
              Theo. Chem. Acc. 97: 119 (1997)                   
                                                           
              Accurate Coulomb-fitting basis sets for H to Rn 
              F. Weigend                                        
              Phys. Chem. Chem. Phys. 8: 1057 (2006)            
                                                           
          Multipole accelerated RI-J (MARI-J):             
              Fast evaluation of the Coulomb potential for     
              electron densities using multipole accelerated   
              resolution of identity approximation             
              M. Sierka, A. Hogekamp and R. Ahlrichs           
              J. Chem. Phys. 118: 9136 (2003)                  
          RI-JK Method:                                     
              A fully direct RI-HF algorithm: Implementation,
              optimised auxiliary basis sets, demonstration of
              accuracy and efficiency                         
              F. Weigend                                      
              Phys. Chem. Chem. Phys. 4: 4285 (2002)           
          Two-component HF and DFT with spin-orbit coupling:  
              Self-consistent treatment of spin-orbit         
              interactions with efficient Hartree-Fock and    
              density functional methods                      
              M. K. Armbruster, F. Weigend, C. van Wüllen and 
              W. Klopper                                      
              Phys. Chem. Chem. Phys. 10: 1748 (2008)         
          Relativistic all-electron 2c calculations           
              An efficient implementation of two-component    
              relativistic exact-decoupling methods for large 
              molecules                                       
              D. Peng, N. Middendorf, F. Weigend, M. Reiher   
              J. Chem. Phys. 138, 184105 (2013)               
                                         




              +--------------------------------------------------+
              |      general information about current run       |
              +--------------------------------------------------+

 

 DENSITY CONVERGENCE CHECK SWITCHED ON !
 SCF CONVERGENCE IF RMS(delta[D]) <     0.1000000000E-06

 TPSS meta-GGA functional
 exchange:    LDA + TPSS
 correlation: LDA (PW) + TPSS
 A DFT calculation using the RI-J approximation will be carried out.
 Allocatable memory for RI due to $ricore (MB):                   500


              +--------------------------------------------------+
              | Atomic coordinate, charge and isotop information |
              +--------------------------------------------------+

                    atomic coordinates            atom    charge  isotop
          2.60196602    1.58689273    1.38823995    n      7.000     0
          1.98763739    2.61958343    2.87872494    h      1.000     0
          2.47361884    2.75433218   -0.98389535    c      6.000     0
          1.73960886    4.93422189   -1.18292459    o      8.000     0
          3.80103848   -2.29263143   -0.18532888    n      7.000     0
          3.26409657    1.87242132   -4.93595627    h      1.000     0
          3.82808790   -1.31746269   -2.57833742    c      6.000     0
          4.34167788   -2.62872251   -4.05468202    h      1.000     0
          3.23995879    1.11860033   -3.04715924    c      6.000     0
          4.02408528   -4.16027159    0.10739148    h      1.000     0
          3.11038534   -0.91690641    1.92509860    c      6.000     0
          2.95008174   -1.83646680    4.02475582    o      8.000     0
         -2.56144987   -1.57989785    1.38823995    n      7.000     0
         -1.94712124   -2.61258855    2.87872494    h      1.000     0
         -2.43310269   -2.74733730   -0.98389535    c      6.000     0
         -1.69909272   -4.92722701   -1.18292459    o      8.000     0
         -3.76052233    2.29962631   -0.18532888    n      7.000     0
         -3.22358042   -1.86542644   -4.93595627    h      1.000     0
         -3.78757176    1.32445757   -2.57833742    c      6.000     0
         -4.30116174    2.63571739   -4.05468202    h      1.000     0
         -3.19944265   -1.11160545   -3.04715924    c      6.000     0
         -3.98356913    4.16726647    0.10739148    h      1.000     0
         -3.06986919    0.92390129    1.92509860    c      6.000     0
         -2.90956559    1.84346168    4.02475582    o      8.000     0
 
       center of nuclear mass  :    0.02025807    0.00349744    0.00000250
       center of nuclear charge:    0.02025807    0.00349744   -0.05095267

              +--------------------------------------------------+
              |               basis set information              |
              +--------------------------------------------------+

              we will work with the 1s 3p 5d 7f 9g ... basis set
              ...i.e. with spherical basis functions...

   type   atoms  prim   cont   basis
   ---------------------------------------------------------------------------
    n        4     77     55   cc-pVQZ   [5s4p3d2f1g|21s6p3d2f1g]
    h        8     32     30   cc-pVQZ   [4s3p2d1f|6s3p2d1f]
    c        8     77     55   cc-pVQZ   [5s4p3d2f1g|21s6p3d2f1g]
    o        4     77     55   cc-pVQZ   [5s4p3d2f1g|21s6p3d2f1g]
   ---------------------------------------------------------------------------
   total:   24   1488   1120
   ---------------------------------------------------------------------------

   total number of primitive shells          :  111
   total number of contracted shells         :  320
   total number of cartesian basis functions : 1400
   total number of SCF-basis functions       : 1120


 integral neglect threshold       :  0.24E-13
 integral storage threshold THIZE :  0.10E-04
 integral storage threshold THIME :         5

 RI-J AUXILIARY BASIS SET information:

              we will work with the 1s 3p 5d 7f 9g ... basis set
              ...i.e. with spherical basis functions...

   type   atoms  prim   cont   basis
   ---------------------------------------------------------------------------
    n        4     70     49   cc-pVQZ   [6s4p3d1f1g|12s5p4d2f1g]
    h        8     16     11   cc-pVQZ   [3s1p1d|5s2p1d]
    c        8     70     49   cc-pVQZ   [6s4p3d1f1g|12s5p4d2f1g]
    o        4     70     49   cc-pVQZ   [6s4p3d1f1g|12s5p4d2f1g]
   ---------------------------------------------------------------------------
   total:   24   1248    872
   ---------------------------------------------------------------------------

   total number of primitive shells          :   80
   total number of contracted shells         :  280
   total number of cartesian basis functions : 1072
   total number of SCF-basis functions       :  872


 symmetry group of the molecule :   c1 

 the group has the following generators :
   c1(z)

    1 symmetry operations found

 there are 1 real representations :   a   

 maximum number of shells which are related by symmetry :  1


    mo occupation :
   irrep   mo's   occupied
    a     1120       58
 
 number of basis functions   :                   1120
 number of occupied orbitals :                     58
 
  
           ------------------
           density functional
           ------------------
 TPSS meta-GGA functional
 exchange:    LDA + TPSS
 correlation: LDA (PW) + TPSS

 iterations will be done with small grid
  
 spherical integration : Lebedev's spherical grid
 spherical gridsize    :                     5
    i.e. gridpoints    :                   590
 value for diffuse not defined
 radial integration    : Chebyshev 2nd kind (scaling 3)
 radial gridsize       :                     8
 integration cells     :                    24
 partition function    : becke
 partition sharpness   :                     3
  

 biggest AO integral is expected to be     4.785886462
  
           ------------------------
               RI-J - INFORMATION
           ------------------------
 Contributions to RI integral batches: 
  neglected integral batches:                 13302
  direct contribution:                        27861
  memory contribution:                 10197
 Memory core needed for (P|Q) and Cholesky      6 MByte
 Memory core minimum needed except of (P|Q)     1 MByte
 Total minimum memory core needed (sum)         7 MByte
  
 ****************************************
 Memory allocated for RI-J   364 MByte
 ****************************************
                                            

          ------------------------
          nuclear repulsion energy  :   1163.54572890    
          ------------------------


         -----------------
         -S,T+V- integrals
         -----------------

 1e-integrals will be neglected if expon. factor < 0.238712E-14
 Difference densities >>NOT<< switched on in parallel ridft!

 DIIS switched on: error vector is FDS-SDF
 Max. Iterations for DIIS is     :   4
 DIIS matrix (see manual) 
    Scaling factor of diagonals  :  1.200
    threshold for scaling factor :  0.000

 scf convergence criterion : increment of total energy < .1000000D-08
                  and increment of one-electron energy < .1000000D-05

  MOs are in ASCII format !


 automatic virtual orbital shift switched on 
      shift if e(lumo)-e(homo) < 0.10000000    


 reading orbital data $scfmo  from file mos
 orbital characterization : expanded
 mo provided and orthogonalized by Cholesky decomposition

 DSCF restart information will be dumped onto file mos


 Starting SCF iterations

          Overall gridpoints after grid construction =        124484

 ITERATION  ENERGY          1e-ENERGY        2e-ENERGY     RMS[dD(SAO)]   TOL
   1  -826.30935438946    -3418.8123357     1428.9572524    0.000D+00 0.238D-13
                            Exc = -108.212037199     Coul =  1537.16928956    
                              N = 115.99965144    
                            current damping = 0.700
 
          max. resid. norm for Fia-block=  4.545D-01 for orbital     40a         
          max. resid. fock norm         =  1.060D+01 for orbital   1029a         

 ITERATION  ENERGY          1e-ENERGY        2e-ENERGY     RMS[dD(SAO)]   TOL
   2  -829.57609849203    -3435.4267538     1442.3049264    0.580D-02 0.238D-13
                            Exc = -108.251745035     Coul =  1550.55667145    
                              N = 115.99970448    
                            current damping = 0.650
 
          Norm of current diis error:  4.5315    
          max. resid. norm for Fia-block=  1.669D-01 for orbital      1a         
          max. resid. fock norm         =  3.673D-01 for orbital   1014a         

 ITERATION  ENERGY          1e-ENERGY        2e-ENERGY     RMS[dD(SAO)]   TOL
   3  -829.99230817755    -3440.3558386     1446.8178015    0.259D-02 0.238D-13
                            Exc = -108.786130359     Coul =  1555.60393184    
                              N = 115.99974357    
                            current damping = 0.550
 
          Norm of current diis error:  2.1496    
          max. resid. norm for Fia-block=  6.503D-02 for orbital      1a         
          max. resid. fock norm         =  8.901D-02 for orbital    564a         

 ITERATION  ENERGY          1e-ENERGY        2e-ENERGY     RMS[dD(SAO)]   TOL
   4  -830.11163146260    -3441.7395324     1448.0821721    0.163D-02 0.238D-13
                            Exc = -108.664756427     Coul =  1556.74692850    
                              N = 115.99975959    
                            current damping = 0.450
 
          Norm of current diis error: 0.95046    
          max. resid. norm for Fia-block=  3.142D-02 for orbital     20a         
          max. resid. fock norm         =  6.965D-02 for orbital   1001a         

 ITERATION  ENERGY          1e-ENERGY        2e-ENERGY     RMS[dD(SAO)]   TOL
   5  -830.12985054628    -3441.9456631     1448.2700837    0.707D-03 0.238D-13
                            Exc = -108.830443921     Coul =  1557.10052758    
                              N = 115.99976693    
                            current damping = 0.300
 
          Norm of current diis error: 0.57560    
          max. resid. norm for Fia-block=  9.643D-03 for orbital     51a         
          max. resid. fock norm         =  1.436D-02 for orbital   1103a         
          mo-orthogonalization: Cholesky decomposition

 ITERATION  ENERGY          1e-ENERGY        2e-ENERGY     RMS[dD(SAO)]   TOL
   6  -830.13905636369    -3442.7813046     1449.0965194    0.477D-03 0.238D-13
                            Exc = -108.824222373     Coul =  1557.92074175    
                              N = 115.99977258    
                            current damping = 0.200
 
          Norm of current diis error: 0.12182    
          max. resid. norm for Fia-block=  3.284D-03 for orbital     51a         
          max. resid. fock norm         =  5.866D-03 for orbital   1031a         

 ITERATION  ENERGY          1e-ENERGY        2e-ENERGY     RMS[dD(SAO)]   TOL
   7  -830.13925828587    -3442.3563556     1448.6713684    0.151D-03 0.238D-13
                            Exc = -108.796026274     Coul =  1557.46739465    
                              N = 115.99977329    
                            current damping = 0.250
 
          Norm of current diis error: 0.86112E-01
          max. resid. norm for Fia-block=  1.652D-03 for orbital     58a         
          max. resid. fock norm         =  3.168D-03 for orbital     41a         

 ITERATION  ENERGY          1e-ENERGY        2e-ENERGY     RMS[dD(SAO)]   TOL
   8  -830.13943026768    -3442.4990360     1448.8138768    0.295D-04 0.238D-13
                            Exc = -108.812181031     Coul =  1557.62605783    
                              N = 115.99977355    
                            current damping = 0.300
 
          Norm of current diis error: 0.28224E-01
          max. resid. norm for Fia-block=  7.035D-04 for orbital     56a         
          max. resid. fock norm         =  2.020D-03 for orbital   1117a         

 ITERATION  ENERGY          1e-ENERGY        2e-ENERGY     RMS[dD(SAO)]   TOL
   9  -830.13944032497    -3442.5839539     1448.8987847    0.225D-04 0.238D-13
                            Exc = -108.817941117     Coul =  1557.71672582    
                              N = 115.99977368    
                            current damping = 0.150
 
          Norm of current diis error: 0.19507E-01
          max. resid. norm for Fia-block=  5.611D-04 for orbital     56a         
          max. resid. fock norm         =  1.162D-03 for orbital   1117a         

 ITERATION  ENERGY          1e-ENERGY        2e-ENERGY     RMS[dD(SAO)]   TOL
  10  -830.13944627403    -3442.5604362     1448.8752610    0.195D-04 0.238D-13
                            Exc = -108.813039043     Coul =  1557.68830002    
                              N = 115.99977378    
                            current damping = 0.200
 
          Norm of current diis error: 0.15015E-01
          max. resid. norm for Fia-block=  2.216D-04 for orbital     56a         
          max. resid. fock norm         =  4.035D-04 for orbital    969a         
          mo-orthogonalization: Cholesky decomposition

 ITERATION  ENERGY          1e-ENERGY        2e-ENERGY     RMS[dD(SAO)]   TOL
  11  -830.13945241856    -3442.5466359     1448.8614546    0.544D-05 0.238D-13
                            Exc = -108.814217305     Coul =  1557.67567189    
                              N = 115.99977377    
                            current damping = 0.050
 
          Norm of current diis error: 0.17029E-02
          max. resid. norm for Fia-block=  4.829D-05 for orbital     49a         
          max. resid. fock norm         =  7.205D-05 for orbital   1112a         

 ITERATION  ENERGY          1e-ENERGY        2e-ENERGY     RMS[dD(SAO)]   TOL
  12  -830.13945240671    -3442.5508654     1448.8656841    0.822D-06 0.238D-13
                            Exc = -108.814227557     Coul =  1557.67991162    
                              N = 115.99977374    
                            current damping = 0.100
 
          Norm of current diis error: 0.18057E-02
          max. resid. norm for Fia-block=  2.433D-05 for orbital     49a         
          max. resid. fock norm         =  3.048D-05 for orbital   1111a         

 ITERATION  ENERGY          1e-ENERGY        2e-ENERGY     RMS[dD(SAO)]   TOL
  13  -830.13945247619    -3442.5509198     1448.8657385    0.300D-06 0.238D-13
                            Exc = -108.814309482     Coul =  1557.68004793    
                              N = 115.99977375    
                            current damping = 0.050
 
          Norm of current diis error: 0.38632E-03
          max. resid. norm for Fia-block=  8.736D-06 for orbital     58a         
          max. resid. fock norm         =  2.003D-05 for orbital   1107a         

 ITERATION  ENERGY          1e-ENERGY        2e-ENERGY     RMS[dD(SAO)]   TOL
  14  -830.13945247637    -3442.5493923     1448.8642109    0.206D-06 0.238D-13
                            Exc = -108.814251708     Coul =  1557.67846258    
                              N = 115.99977376    
                            current damping = 0.100
 
          Norm of current diis error: 0.35220E-03
          max. resid. norm for Fia-block=  6.218D-06 for orbital     58a         
          max. resid. fock norm         =  1.343D-05 for orbital   1107a         

 DENSITY CONVERGED !


 ITERATION  ENERGY          1e-ENERGY        2e-ENERGY     RMS[dD(SAO)]   TOL
  15  -830.13945247908    -3442.5496962     1448.8645148    0.869D-07 0.238D-13
                            Exc = -108.814269774     Coul =  1557.67878462    
                              N = 115.99977376    
                            current damping = 0.150
 
          Norm of current diis error: 0.10319E-03
          max. resid. norm for Fia-block=  2.200D-06 for orbital     58a         
          max. resid. fock norm         =  4.296D-06 for orbital   1112a         
          mo-orthogonalization: Cholesky decomposition

 DENSITY CONVERGED !


 ITERATION  ENERGY          1e-ENERGY        2e-ENERGY     RMS[dD(SAO)]   TOL
  16  -830.13945247924    -3442.5499137     1448.8647323    0.477D-07 0.238D-13
                            Exc = -108.814273476     Coul =  1557.67900582    
                              N = 115.99977376    
                            current damping = 0.050
 
          Norm of current diis error: 0.60549E-04
          max. resid. norm for Fia-block=  8.758D-07 for orbital     52a         
          max. resid. fock norm         =  2.107D-06 for orbital   1113a         

 DENSITY CONVERGED !


 ITERATION  ENERGY          1e-ENERGY        2e-ENERGY     RMS[dD(SAO)]   TOL
  17  -830.13945247934    -3442.5498612     1448.8646799    0.222D-07 0.238D-13
                            Exc = -108.814276680     Coul =  1557.67895654    
                              N = 115.99977376    
                            current damping = 0.100
 
          Norm of current diis error: 0.24745E-04
          max. resid. norm for Fia-block=  4.485D-07 for orbital     53a         
          max. resid. fock norm         =  1.036D-06 for orbital   1116a         

 DENSITY CONVERGED !


 ITERATION  ENERGY          1e-ENERGY        2e-ENERGY     RMS[dD(SAO)]   TOL
  18  -830.13945247934    -3442.5498333     1448.8646519    0.880D-08 0.238D-13
                            Exc = -108.814271795     Coul =  1557.67892369    
                              N = 115.99977376    
                            current damping = 0.050
 
          Norm of current diis error: 0.98388E-05
          max. resid. norm for Fia-block=  1.852D-07 for orbital     53a         
          max. resid. fock norm         =  3.527D-07 for orbital   1119a         

 ENERGY & DENSITY CONVERGED !

          Overall gridpoints after grid construction =        390260

 ITERATION  ENERGY          1e-ENERGY        2e-ENERGY     RMS[dD(SAO)]   TOL
  19  -830.13925611571    -3442.5498536     1448.8648686    0.457D-08 0.238D-13
                            Exc = -108.814078171     Coul =  1557.67894676    
                              N = 115.99997204    
                            current damping = 0.100
 
          Norm of current diis error: 0.58441E-05
          max. resid. norm for Fia-block=  8.046D-08 for orbital     49a         
          max. resid. fock norm         =  1.434D-07 for orbital     50a         

 End of SCF iterations

   convergence criteria satisfied after    19 iterations


                  ------------------------------------------ 
                 |  total energy      =   -830.13925611571  |
                  ------------------------------------------ 
                 :  kinetic energy    =    827.19439932556  :
                 :  potential energy  =  -1657.33365544126  :
                 :  virial theorem    =      1.99645257495  :
                 :  wavefunction norm =      1.00000000000  :
                  .......................................... 


 <geterg> : there is no data group $energy 


 <skperg> : $end is missing 


 orbitals $scfmo  will be written to file mos

    irrep                 54a         55a         56a         57a         58a   
 eigenvalues H         -0.25936    -0.24207    -0.23479    -0.23394    -0.22700
            eV          -7.0575     -6.5872     -6.3891     -6.3660     -6.1771
 occupation              2.0000      2.0000      2.0000      2.0000      2.0000 

    irrep                 59a         60a         61a         62a         63a   
 eigenvalues H         -0.08536    -0.07833    -0.03709    -0.03144    -0.00719
            eV          -2.3228     -2.1315     -1.0094     -0.8556     -0.1958
 
 
 
 
 ==============================================================================
                           electrostatic moments
 ==============================================================================

 reference point for electrostatic moments:    0.00000   0.00000   0.00000

 
              nuc           elec       ->  total
 ------------------------------------------------------------------------------
                          charge      
 ------------------------------------------------------------------------------
         116.000000    -116.000000      -0.000000
 
 ------------------------------------------------------------------------------
                       dipole moment  
 ------------------------------------------------------------------------------
   x       2.349936      -2.349936      -0.000000
   y       0.405703      -0.405703       0.000000
   z      -5.910510       4.058924      -1.851586
 
   | dipole moment | =     1.8516 a.u. =     4.7063 debye 
 
 ------------------------------------------------------------------------------
                     quadrupole moment
 ------------------------------------------------------------------------------
  xx    1061.524994   -1123.066992     -61.541999
  yy     758.108664    -832.702998     -74.594334
  zz     654.519414    -724.507212     -69.987798
  xy     -19.001985      11.076023      -7.925962
  xz      -0.119736       0.082226      -0.037510
  yz      -0.020672       0.014196      -0.006476
 
     1/3  trace=     -68.708043
     anisotropy=      17.886435
 
 ==============================================================================
 


    ------------------------------------------------------------------------
         total  cpu-time : 36 minutes and 52 seconds
         total wall-time :  5 minutes and 13 seconds
    ------------------------------------------------------------------------

   ****  ridft : all done  ****


    2018-04-24 21:21:59.809 

