
   OpenMP run-time library returned nthreads = 28
 operating system is UNIX !

 dscf (c-19-412) : TURBOMOLE V7.3 ( 22142 ) 4 Jul 2018 at 18:12:42
 Copyright (C) 2018 TURBOMOLE GmbH, Karlsruhe


    2019-03-26 19:47:23.378 



                             d s c f - program

                   idea & directorship : reinhart ahlrichs
                   program development : marco haeser
                                         michael baer
                           dft version : oliver treutler


                          quantum chemistry group
                          universitaet  karlsruhe
                                  germany




                          References             
                                                 
          TURBOMOLE:                             
              R. Ahlrichs, M. Baer, M. Haeser, H. Horn, and
              C. Koelmel
              Electronic structure calculations on workstation
              computers: the program system TURBOMOLE
              Chem. Phys. Lett. 162: 165 (1989)
          Density Functional:                              
              O. Treutler and R. Ahlrichs                      
              Efficient Molecular Numerical Integration Schemes
              J. Chem. Phys. 102: 346 (1995)                   
          Parallel Version:                                
              Performance of parallel TURBOMOLE for Density    
              Functional Calculations                          
              M. v. Arnim and R. Ahlrichs                      
              J. Comp. Chem. 19: 1746 (1998)                   
                                         




              +--------------------------------------------------+
              | Atomic coordinate, charge and isotop information |
              +--------------------------------------------------+

                    atomic coordinates            atom    charge  isotop
         -2.86614385    0.50730076    0.00000000    c      6.000     0
         -2.35868435   -4.10118003    0.00000000    c      6.000     0
         -6.22007703   -2.54675178    0.00000000    c      6.000     0
         -5.50322076   -0.05275926    0.00000000    c      6.000     0
         -9.48081459    0.00062550    0.00000000    c      6.000     0
         -1.43115007   -1.70294749    0.00000000    n      7.000     0
         -4.76389754   -4.62925266    0.00000000    n      7.000     0
         -7.59671039    1.50604370    0.00000000    n      7.000     0
         -8.77716940   -2.50497750    0.00000000    n      7.000     0
         -0.65378855   -5.96273979    0.00000000    n      7.000     0
         -1.81438653    2.53911162    0.00000000    o      8.000     0
          0.45590021   -1.44738660    0.00000000    h      1.000     0
        -11.42969860    0.54723256    0.00000000    h      1.000     0
         -9.89513516   -4.01115348    0.00000000    h      1.000     0
         -1.30933455   -7.71737697    0.00000000    h      1.000     0
          1.21098753   -5.64747111    0.00000000    h      1.000     0
          5.71905583   -2.73330933    0.00000000    c      6.000     0
          9.34454077    0.00005480    0.00000000    c      6.000     0
          7.87541665    2.05488631    0.00000000    c      6.000     0
          5.17778724    1.61591426    0.00000000    c      6.000     0
          8.31202654   -2.33919749    0.00000000    n      7.000     0
          4.21541208   -0.67433743    0.00000000    n      7.000     0
          3.60926731    3.56229061    0.00000000    n      7.000     0
          4.94584793   -4.88457923    0.00000000    o      8.000     0
          9.37925504   -3.88610085    0.00000000    h      1.000     0
         11.37159519    0.09310681    0.00000000    h      1.000     0
          8.64799150    3.92634068    0.00000000    h      1.000     0
          4.26422182    5.31735297    0.00000000    h      1.000     0
          1.72740244    3.27472720    0.00000000    h      1.000     0
 
       center of nuclear mass  :   -0.05467987   -1.10127937    0.00000000
       center of nuclear charge:   -0.00000025   -1.09604124    0.00000000

              +--------------------------------------------------+
              |               basis set information              |
              +--------------------------------------------------+

              we will work with the 1s 3p 5d 7f 9g ... basis set
              ...i.e. with spherical basis functions...

   type   atoms  prim   cont   basis
   ---------------------------------------------------------------------------
    c        9     50     30   cc-pVTZ   [4s3p2d1f|18s5p2d1f]
    n        8     50     30   cc-pVTZ   [4s3p2d1f|18s5p2d1f]
    o        2     50     30   cc-pVTZ   [4s3p2d1f|18s5p2d1f]
    h       10     16     14   cc-pVTZ   [3s2p1d|5s2p1d]
   ---------------------------------------------------------------------------
   total:   29   1110    710
   ---------------------------------------------------------------------------

   total number of primitive shells          :   86
   total number of contracted shells         :  250
   total number of cartesian basis functions :  815
   total number of SCF-basis functions       :  710


 integral neglect threshold       :  0.41E-13
 integral storage threshold THIZE :  0.10E-04
 integral storage threshold THIME :         5


 DENSITY CONVERGENCE CHECK SWITCHED ON !
 SCF CONVERGENCE IF RMS(delta[D]) <     0.1000000000E-06


 symmetry group of the molecule :   c1 

 the group has the following generators :
   c1(z)

    1 symmetry operations found

 there are 1 real representations :   a   

 maximum number of shells which are related by symmetry :  1


    mo occupation :
   irrep   mo's   occupied
    a      710       68
 
 number of basis functions   :                    710
 number of occupied orbitals :                     68
 

 automatic virtual orbital shift switched on 
      shift if e(lumo)-e(homo) < 0.10000000    


          ------------------------
          nuclear repulsion energy  :   1391.97690407    
          ------------------------


         -----------------
         -S,T+V- integrals
         -----------------

 1e-integrals will be neglected if expon. factor < 0.410057E-14
 
   Difference densities algorithm switched on.
   The maximal number of linear combinations of
   difference densities is                    20 .

 DIIS switched on: error vector is FDS-SDF
 Max. Iterations for DIIS is     :   5
 DIIS matrix (see manual) 
    Scaling factor of diagonals  :  1.200
    threshold for scaling factor :  0.000

 scf convergence criterion : increment of total energy < .1000000D-08
                  and increment of one-electron energy < .1000000D-05

  MOs are in ASCII format !


 reading orbital data $scfmo  from file mos
 orbital characterization : expanded
 mo provided and orthogonalized by Cholesky decomposition

 DSCF restart information will be dumped onto file mos

 
                                              current damping :  0.700
 ITERATION  ENERGY          1e-ENERGY        2e-ENERGY     RMS[dD(SAO)]   TOL
   1  -928.40529023165    -4020.1350320     1699.7528377    0.000D+00 0.409D-13
          max. resid. norm for Fia-block=  3.665D-01 for orbital     57a         
          max. resid. fock norm         =  4.967D+00 for orbital    677a         
          Delta Eig. =   219.9533975360 eV 
 
                                              current damping :  0.650
 ITERATION  ENERGY          1e-ENERGY        2e-ENERGY     RMS[dD(SAO)]   TOL
   2  -931.50920720921    -4031.4436930     1707.9575818    0.302D-02 0.270D-13
          Norm of current diis error:  4.6684    
          max. resid. norm for Fia-block=  1.815D-01 for orbital      2a         
          max. resid. fock norm         =  2.777D-01 for orbital    696a         
          Delta Eig. =    95.3919931477 eV 
 
                                              current damping :  0.550
 ITERATION  ENERGY          1e-ENERGY        2e-ENERGY     RMS[dD(SAO)]   TOL
   3  -932.15687686420    -4036.3586927     1712.2249118    0.163D-02 0.206D-13
          Norm of current diis error:  2.2085    
          max. resid. norm for Fia-block=  8.613D-02 for orbital     22a         
          max. resid. fock norm         =  9.166D-02 for orbital     22a         
          Delta Eig. =    40.6667695373 eV 
 
                                              current damping :  0.450
 ITERATION  ENERGY          1e-ENERGY        2e-ENERGY     RMS[dD(SAO)]   TOL
   4  -932.34061047785    -4038.0418380     1713.7243234    0.109D-02 0.171D-13
          Norm of current diis error: 0.92618    
          max. resid. norm for Fia-block=  3.818D-02 for orbital     22a         
          max. resid. fock norm         =  4.358D-02 for orbital     22a         
          Delta Eig. =    15.4741462853 eV 
 
                                              current damping :  0.350
 ITERATION  ENERGY          1e-ENERGY        2e-ENERGY     RMS[dD(SAO)]   TOL
   5  -932.38158036776    -4038.7101221     1714.3516377    0.658D-03 0.150D-13
          Norm of current diis error: 0.34731    
          max. resid. norm for Fia-block=  1.463D-02 for orbital     58a         
          max. resid. fock norm         =  1.611D-02 for orbital     22a         
 mo-orthogonalization: Cholesky decomposition
          Delta Eig. =     5.1514224854 eV 
 
                                              current damping :  0.200
 ITERATION  ENERGY          1e-ENERGY        2e-ENERGY     RMS[dD(SAO)]   TOL
   6  -932.38913116062    -4038.9554562     1714.5894210    0.343D-03 0.138D-13
          Norm of current diis error: 0.11751    
          max. resid. norm for Fia-block=  5.724D-03 for orbital     68a         
          max. resid. fock norm         =  5.971D-03 for orbital     58a         
          Delta Eig. =     1.4994404951 eV 
 
                                              current damping :  0.050
 ITERATION  ENERGY          1e-ENERGY        2e-ENERGY     RMS[dD(SAO)]   TOL
   7  -932.39036727916    -4039.0218988     1714.6546275    0.155D-03 0.129D-13
          Norm of current diis error: 0.38145E-01
          max. resid. norm for Fia-block=  2.787D-03 for orbital     68a         
          max. resid. fock norm         =  2.842D-03 for orbital     73a         
          Delta Eig. =     0.2831765278 eV 
 
                                              current damping :  0.050
 ITERATION  ENERGY          1e-ENERGY        2e-ENERGY     RMS[dD(SAO)]   TOL
   8  -932.39056906652    -4039.0354513     1714.6679782    0.610D-04 0.124D-13
          Norm of current diis error: 0.14050E-01
          max. resid. norm for Fia-block=  1.333D-03 for orbital     68a         
          max. resid. fock norm         =  1.347D-03 for orbital     68a         
          Delta Eig. =     0.0733378872 eV 
 
                                              current damping :  0.100
 ITERATION  ENERGY          1e-ENERGY        2e-ENERGY     RMS[dD(SAO)]   TOL
   9  -932.39060187844    -4039.0307449     1714.6632390    0.189D-04 0.120D-13
          Norm of current diis error: 0.62763E-02
          max. resid. norm for Fia-block=  6.788D-04 for orbital     68a         
          max. resid. fock norm         =  7.274D-04 for orbital     68a         
          Delta Eig. =     0.0396676792 eV 
 
                                              current damping :  0.150
 ITERATION  ENERGY          1e-ENERGY        2e-ENERGY     RMS[dD(SAO)]   TOL
  10  -932.39060823568    -4039.0316629     1714.6641506    0.668D-05 0.117D-13
          Norm of current diis error: 0.34462E-02
          max. resid. norm for Fia-block=  3.428D-04 for orbital     68a         
          max. resid. fock norm         =  3.799D-04 for orbital     62a         
 mo-orthogonalization: Cholesky decomposition
          Delta Eig. =     0.0247963183 eV 
 
                                              current damping :  0.200
 ITERATION  ENERGY          1e-ENERGY        2e-ENERGY     RMS[dD(SAO)]   TOL
  11  -932.39060977678    -4039.0294586     1714.6619447    0.410D-05 0.115D-13
          Norm of current diis error: 0.11546E-02
          max. resid. norm for Fia-block=  1.715D-04 for orbital     68a         
          max. resid. fock norm         =  1.751D-04 for orbital     68a         
          Delta Eig. =     0.0026890341 eV 
 
                                              current damping :  0.050
 ITERATION  ENERGY          1e-ENERGY        2e-ENERGY     RMS[dD(SAO)]   TOL
  12  -932.39061004500    -4039.0292435     1714.6617294    0.182D-05 0.113D-13
          Norm of current diis error: 0.43382E-03
          max. resid. norm for Fia-block=  6.563D-05 for orbital     68a         
          max. resid. fock norm         =  6.607D-05 for orbital     68a         
          Delta Eig. =     0.0010903824 eV 
 
                                              current damping :  0.050
 ITERATION  ENERGY          1e-ENERGY        2e-ENERGY     RMS[dD(SAO)]   TOL
  13  -932.39061008408    -4039.0289370     1714.6614229    0.859D-06 0.111D-13
          Norm of current diis error: 0.14365E-03
          max. resid. norm for Fia-block=  1.554D-05 for orbital     68a         
          max. resid. fock norm         =  1.671D-05 for orbital     66a         
          Delta Eig. =     0.0007359396 eV 
 
                                              current damping :  0.050
 ITERATION  ENERGY          1e-ENERGY        2e-ENERGY     RMS[dD(SAO)]   TOL
  14  -932.39061008719    -4039.0289157     1714.6614015    0.250D-06 0.110D-13
          Norm of current diis error: 0.67111E-04
          max. resid. norm for Fia-block=  3.900D-06 for orbital     68a         
          max. resid. fock norm         =  5.643D-06 for orbital    702a         
          Delta Eig. =     0.0003842188 eV 

 DENSITY CONVERGED !

 
                                              current damping :  0.050
 ITERATION  ENERGY          1e-ENERGY        2e-ENERGY     RMS[dD(SAO)]   TOL
  15  -932.39061008756    -4039.0288883     1714.6613742    0.464D-07 0.109D-13
          Norm of current diis error: 0.26223E-04
          max. resid. norm for Fia-block=  2.655D-06 for orbital     66a         
          max. resid. fock norm         =  2.925D-06 for orbital     66a         
 mo-orthogonalization: Cholesky decomposition
          Delta Eig. =     0.0000969743 eV 

 ENERGY & DENSITY CONVERGED !

 
                                              current damping :  0.050
 ITERATION  ENERGY          1e-ENERGY        2e-ENERGY     RMS[dD(SAO)]   TOL
  16  -932.39061008764    -4039.0288862     1714.6613720    0.275D-07 0.117D-13
          max. resid. norm for Fia-block=  5.505D-07 for orbital     67a         
          max. resid. fock norm         =  8.470D-07 for orbital    706a         

 convergence criteria satisfied after    16 iterations


                  ------------------------------------------ 
                 |  total energy      =   -932.39061008764  |
                  ------------------------------------------ 
                 :  kinetic energy    =    931.79840914541  :
                 :  potential energy  =  -1864.18901923306  :
                 :  virial theorem    =      1.99936485746  :
                 :  wavefunction norm =      1.00000000000  :
                  .......................................... 


 <geterg> : there is no data group $energy 


 orbitals $scfmo  will be written to file mos

    irrep                 64a         65a         66a         67a         68a   
 eigenvalues H         -0.40699    -0.38969    -0.38816    -0.36198    -0.27950
            eV         -11.0748    -10.6042    -10.5624     -9.8500     -7.6057
 occupation              2.0000      2.0000      2.0000      2.0000      2.0000 

    irrep                 69a         70a         71a         72a         73a   
 eigenvalues H          0.09692     0.11540     0.13838     0.14833     0.16468
            eV           2.6375      3.1402      3.7656      4.0363      4.4813
 
 
 
 
 ==============================================================================
                           electrostatic moments
 ==============================================================================

 reference point for electrostatic moments:    0.00000   0.00000   0.00000

 
              nuc           elec       ->  total
 ------------------------------------------------------------------------------
                          charge      
 ------------------------------------------------------------------------------
         136.000000    -136.000000      -0.000000
 
 ------------------------------------------------------------------------------
                       dipole moment  
 ------------------------------------------------------------------------------
   x      -0.000034       2.423041       2.423007
   y    -149.061609     148.736221      -0.325388
   z       0.000000      -0.000000      -0.000000
 
   | dipole moment | =     2.4448 a.u. =     6.2140 debye 
 
 ------------------------------------------------------------------------------
                     quadrupole moment
 ------------------------------------------------------------------------------
  xx    4874.835189   -4914.707135     -39.871946
  yy    1258.439663   -1337.953148     -79.513485
  zz       0.000000     -83.525614     -83.525614
  xy     238.934914    -225.310280      13.624634
  xz       0.000000       0.000000       0.000000
  yz       0.000000       0.000000       0.000000
 
     1/3  trace=     -67.637015
     anisotropy=      47.994663
 
 ==============================================================================
 


    ------------------------------------------------------------------------
         total  cpu-time :  1 hours 11 minutes and 39 seconds
         total wall-time :  2 minutes and 44 seconds
    ------------------------------------------------------------------------

   ****  dscf : all done  ****


    2019-03-26 19:50:07.168 

