STARTING ridft ON 16 PROCESSORS!
RUNNING PROGRAM /sopt/TURBOMOLE/7.3-official/bin/em64t-unknown-linux-gnu_smp/ridft_mpi.
           SMPCPUS    set: Shared-memory Parallelization with  16 CPUs.

           SMP Parallelization Reference:
           C. van Wullen, J. Comput. Chem. 32 (2011) 1195--1201
 operating system is UNIX !

 ridft (c-15-42) : TURBOMOLE V7.3 ( 22118 ) 1 Jul 2018 at 20:38:15
 Copyright (C) 2018 TURBOMOLE GmbH, Karlsruhe


    2019-03-12 22:52:29.372 



                                  r i d f t

                        DFT program with RI approximation 
                                for coulomb part 




                                                 
                                 References:     
                                                 
          TURBOMOLE:                             
              R. Ahlrichs, M. Baer, M. Haeser, H. Horn, and
              C. Koelmel
              Electronic structure calculations on workstation
              computers: the program system TURBOMOLE
              Chem. Phys. Lett. 162: 165 (1989)
          Density Functional:                              
              O. Treutler and R. Ahlrichs                      
              Efficient Molecular Numerical Integration Schemes
              J. Chem. Phys. 102: 346 (1995)                   
          Parallel Version:                                
              Performance of parallel TURBOMOLE for Density    
              Functional Calculations                          
              M. v. Arnim and R. Ahlrichs                      
              J. Comp. Chem. 19: 1746 (1998)                   
          RI-J Method:                                     
              Auxiliary Basis Sets to approximate Coulomb      
              Potentials                                       
              Chem. Phys. Lett. 240: 283 (1995)                
              K. Eichkorn, O. Treutler, H. Oehm, M. Haeser     
              and R. Ahlrichs                                  
              Chem. Phys. Lett. 242: 652 (1995)                
                                                           
              Auxiliary Basis Sets for Main Row Atoms and their
              Use to approximate Coulomb Potentials            
              K. Eichkorn, F. Weigend, O. Treutler and         
              R. Ahlrichs                                      
              Theo. Chem. Acc. 97: 119 (1997)                   
                                                           
              Accurate Coulomb-fitting basis sets for H to Rn 
              F. Weigend                                        
              Phys. Chem. Chem. Phys. 8: 1057 (2006)            
                                                           
          Multipole accelerated RI-J (MARI-J):             
              Fast evaluation of the Coulomb potential for     
              electron densities using multipole accelerated   
              resolution of identity approximation             
              M. Sierka, A. Hogekamp and R. Ahlrichs           
              J. Chem. Phys. 118: 9136 (2003)                  
          RI-JK Method:                                     
              A fully direct RI-HF algorithm: Implementation,
              optimised auxiliary basis sets, demonstration of
              accuracy and efficiency                         
              F. Weigend                                      
              Phys. Chem. Chem. Phys. 4: 4285 (2002)           
          Two-component HF and DFT with spin-orbit coupling:  
              Self-consistent treatment of spin-orbit         
              interactions with efficient Hartree-Fock and    
              density functional methods                      
              M. K. Armbruster, F. Weigend, C. van Wüllen and 
              W. Klopper                                      
              Phys. Chem. Chem. Phys. 10: 1748 (2008)         
          Two-component difference density and DIIS algorithm 
              Efficient two-component self-consistent field   
              procedures and gradients: implementation in     
              TURBOMOLE and application to Au20-              
              A. Baldes, F. Weigend                           
              Mol. Phys. 111: 2617 (2013)                     
          Relativistic all-electron 2c calculations           
              An efficient implementation of two-component    
              relativistic exact-decoupling methods for large 
              molecules                                       
              D. Peng, N. Middendorf, F. Weigend, M. Reiher   
              J. Chem. Phys. 138: 184105 (2013)               
          Finite nucleus model and SNSO approximation         
              Efficient implementation of one- and two-       
              component analytical energy gradients in exact  
              two-component theory                            
              Y. J. Franzke, N. Middendorf, F. Weigend        
              J. Chem. Phys. 148: 104110 (2018)               
                                         




              +--------------------------------------------------+
              |      general information about current run       |
              +--------------------------------------------------+

 
 PBE functional
 exchange:    LDA + PBE
 correlation: LDA (PW) + PBE
 A DFT calculation using the RI-J approximation will be carried out.
 Allocatable memory for RI due to $ricore (MB):                  5000


              +--------------------------------------------------+
              | Atomic coordinate, charge and isotop information |
              +--------------------------------------------------+

                    atomic coordinates            atom    charge  isotop
          1.33764612   -0.32560399    6.19140678    c      6.000     0
          3.21946993   -0.99454031    5.97556466    h      1.000     0
         -0.82534213    0.40469520    6.39208028    c      6.000     0
         -2.72429496    1.02584882    6.58174107    h      1.000     0
 
       center of nuclear mass  :    0.25548891    0.03769588    6.29073002
       center of nuclear charge:    0.25492849    0.03613255    6.28987344

              +--------------------------------------------------+
              |               basis set information              |
              +--------------------------------------------------+

              we will work with the 1s 3p 5d 7f 9g ... basis set
              ...i.e. with spherical basis functions...

   type   atoms  prim   cont   basis
   ---------------------------------------------------------------------------
    c        2     68     48   def2-QZVP   [7s4p3d2f|15s8p3d2f]
    h        2     26     23   def2-QZVP   [4s3p2d|7s3p2d]
   ---------------------------------------------------------------------------
   total:    4    188    142
   ---------------------------------------------------------------------------

   total number of primitive shells          :   40
   total number of contracted shells         :   50
   total number of cartesian basis functions :  164
   total number of SCF-basis functions       :  142


 integral neglect threshold       :  0.20E-10
 integral storage threshold THIZE :  0.10E-04
 integral storage threshold THIME :         5

 RI-J AUXILIARY BASIS SET information:

              we will work with the 1s 3p 5d 7f 9g ... basis set
              ...i.e. with spherical basis functions...

   type   atoms  prim   cont   basis
   ---------------------------------------------------------------------------
    c        2     70     49   def2-QZVP   [6s4p3d1f1g|12s5p4d2f1g]
    h        2     16     11   def2-QZVP   [3s1p1d|5s2p1d]
   ---------------------------------------------------------------------------
   total:    4    172    120
   ---------------------------------------------------------------------------

   total number of primitive shells          :   32
   total number of contracted shells         :   40
   total number of cartesian basis functions :  146
   total number of SCF-basis functions       :  120


 symmetry group of the molecule :   c1 

 the group has the following generators :
   c1(z)

    1 symmetry operations found

 there are 1 real representations :   a   

 maximum number of shells which are related by symmetry :  1


    mo occupation :
   irrep   mo's   occupied
    a      142        7
 
 number of basis functions   :                    142
 number of occupied orbitals :                      7
 
  
           ------------------
           density functional
           ------------------
 PBE functional
 exchange:    LDA + PBE
 correlation: LDA (PW) + PBE

 iterations will be done with small grid
  
 spherical integration : Lebedev's spherical grid
 spherical gridsize    :                     4
    i.e. gridpoints    :                   434
 value for diffuse not defined
 radial integration    : Chebyshev 2nd kind (scaling 3)
 radial gridsize       :                     6
 integration cells     :                     4
 partition function    : becke
 partition sharpness   :                     3
  

 biggest AO integral is expected to be     5.262544080
  
           ------------------------
               RI-J - INFORMATION
           ------------------------
 Contributions to RI integral batches: 
  neglected integral batches:                    31
  direct contribution:                            0
  memory contribution:                  1244
 Memory core needed for (P|Q) and Cholesky      1 MByte
 Memory core minimum needed except of (P|Q)     1 MByte
 Total minimum memory core needed (sum)         1 MByte
  
 ****************************************
 Memory allocated for RI-J    16 MByte
 ****************************************
                                            

          ------------------------
          nuclear repulsion energy  :   24.6345997845    
          ------------------------

  _________________________________
 |                                 |
 |         DFTD3 V3.1 Rev 0        |
 | S.Grimme, University Bonn       |
 |            June  2014           |
 |   see standalone version        |
 |       dftd3 -h for options      |
 |_________________________________|
 
 Please cite DFT-D3 work done with this code as:
 S. Grimme, J. Antony, S. Ehrlich and H. Krieg,
 J. Chem. Phys, 132 (2010), 154104.
 If used with BJ-damping cite also
 S. Grimme, S. Ehrlich and L. Goerigk,
 J. Comput. Chem. 32 (2011), 1456-1465
 For DFT-D2 the reference is
 S. Grimme, J. Comput. Chem., 27 (2006), 1787-1799
 
C6 coefficients used:
                     2  C6 for element                      1
Z=  1 CN= 0.912     C6(AA)=    3.03
Z=  1 CN= 0.000     C6(AA)=    7.59
                     5  C6 for element                      6
Z=  6 CN= 0.000     C6(AA)=   49.11
Z=  6 CN= 0.987     C6(AA)=   43.25
Z=  6 CN= 1.998     C6(AA)=   29.36
Z=  6 CN= 2.999     C6(AA)=   25.78
Z=  6 CN= 3.984     C6(AA)=   18.21

#           XYZ [au]              R0(AA) [Ang.]  CN          C6(AA)     C8(AA)   C10(AA) [au]
  1   1.33765  -0.32560   6.19141   c   0.610  1.998        29.5       853.0     30221.4
  2   3.21947  -0.99454   5.97556   h   0.395  0.998         3.1        37.4       553.4
  3  -0.82534   0.40470   6.39208   c   0.610  1.998        29.5       853.0     30221.2
  4  -2.72429   1.02585   6.58174   h   0.395  0.998         3.1        37.4       553.4

molecular C6(AA) [au] =       206.68

           DFT-D V3(BJ)
 DF pbe                                               
 parameters
 s6       :    1.0000
 s8       :    0.7875
 a1       :    0.4289
 a2       :    4.4407
 k1-k3    :   16.0000    1.3333   -4.0000
 
 Edisp /kcal,au:    -0.8233 -0.00131205

 E6    /kcal :    -0.5809
 E8    /kcal :    -0.2424
 % E8        : 29.44
 nuclear repulsion energy                  =      24.634599784
 empirical dispersive energy correction    =      -0.001312049
 nuclear repulsion + dispersion correction =      24.633287735


         -----------------
         -S,T+V- integrals
         -----------------

 1e-integrals will be neglected if expon. factor < 0.203778E-11
 Difference densities >>NOT<< switched on in parallel ridft!

 DIIS switched on: error vector is FDS-SDF
 Max. Iterations for DIIS is     :   4
 DIIS matrix (see manual) 
    Scaling factor of diagonals  :  1.200
    threshold for scaling factor :  0.000

 scf convergence criterion : increment of total energy < .1000000D-06
                  and increment of one-electron energy < .1000000D-03

  MOs are in ASCII format !


 automatic virtual orbital shift switched on 
      shift if e(lumo)-e(homo) < 0.10000000    


 reading orbital data $scfmo  from file mos
 orbital characterization : expanded
 mo provided and orthogonalized by Cholesky decomposition

 DSCF restart information will be dumped onto file mos


 Starting SCF iterations

          Overall gridpoints after grid construction =         11026

 ITERATION  ENERGY          1e-ENERGY        2e-ENERGY     NORM[dD(SAO)]  TOL
   1  -76.934866936656    -148.44796254     46.879807872    0.000D+00 0.203D-10
                            Exc = -10.9707558044     Coul =  57.8505636766    
                              N = 13.999996870    
                            current damping = 0.700
 
          max. resid. norm for Fia-block=  4.713D-01 for orbital      3a         
          max. resid. fock norm         =  5.688D+01 for orbital    130a         

 ITERATION  ENERGY          1e-ENERGY        2e-ENERGY     NORM[dD(SAO)]  TOL
   2  -77.192164600840    -150.67054457     48.845092230    0.000D+00 0.203D-10
                            Exc = -11.2336594262     Coul =  60.0787516566    
                              N = 13.999998381    
                            current damping = 0.650
 
          Norm of current diis error:  1.6243    
          max. resid. norm for Fia-block=  1.400D-01 for orbital      2a         
          max. resid. fock norm         =  1.490D-01 for orbital     10a         

 ITERATION  ENERGY          1e-ENERGY        2e-ENERGY     NORM[dD(SAO)]  TOL
   3  -77.241753079636    -151.20157431     49.326533494    0.000D+00 0.203D-10
                            Exc = -11.3078938971     Coul =  60.6344273914    
                              N = 13.999999255    
                            current damping = 0.500
 
          Norm of current diis error: 0.74554    
          max. resid. norm for Fia-block=  5.617D-02 for orbital      2a         
          max. resid. fock norm         =  5.888D-02 for orbital      2a         

 ITERATION  ENERGY          1e-ENERGY        2e-ENERGY     NORM[dD(SAO)]  TOL
   4  -77.256287452989    -151.54811485     49.658539659    0.000D+00 0.203D-10
                            Exc = -11.3564085605     Coul =  61.0149482194    
                              N = 14.000000504    
                            current damping = 0.350
 
          Norm of current diis error: 0.26201    
          max. resid. norm for Fia-block=  1.922D-02 for orbital      2a         
          max. resid. fock norm         =  2.121D-02 for orbital      3a         

 ITERATION  ENERGY          1e-ENERGY        2e-ENERGY     NORM[dD(SAO)]  TOL
   5  -77.258605101742    -151.64734405     49.755451210    0.000D+00 0.203D-10
                            Exc = -11.3719194182     Coul =  61.1273706286    
                              N = 14.000001423    
                            current damping = 0.200
 
          Norm of current diis error: 0.73107E-01
          max. resid. norm for Fia-block=  5.300D-03 for orbital      3a         
          max. resid. fock norm         =  5.997D-03 for orbital      3a         
          mo-orthogonalization: Cholesky decomposition

 ITERATION  ENERGY          1e-ENERGY        2e-ENERGY     NORM[dD(SAO)]  TOL
   6  -77.258813741145    -151.69602173     49.803920255    0.000D+00 0.203D-10
                            Exc = -11.3786686599     Coul =  61.1825889153    
                              N = 14.000001750    
                            current damping = 0.050
 
          Norm of current diis error: 0.12255E-01
          max. resid. norm for Fia-block=  8.969D-04 for orbital      3a         
          max. resid. fock norm         =  1.225D-03 for orbital     42a         

 ITERATION  ENERGY          1e-ENERGY        2e-ENERGY     NORM[dD(SAO)]  TOL
   7  -77.258815378465    -151.68573151     49.793628392    0.000D+00 0.203D-10
                            Exc = -11.3778159320     Coul =  61.1714443241    
                              N = 14.000001844    
                            current damping = 0.100
 
          Norm of current diis error: 0.13363E-01
          max. resid. norm for Fia-block=  4.434D-04 for orbital      6a         
          max. resid. fock norm         =  8.614D-04 for orbital    141a         

 ITERATION  ENERGY          1e-ENERGY        2e-ENERGY     NORM[dD(SAO)]  TOL
   8  -77.258818368519    -151.69209854     49.799992438    0.000D+00 0.203D-10
                            Exc = -11.3785292775     Coul =  61.1785217155    
                              N = 14.000001839    
                            current damping = 0.150
 
          Norm of current diis error: 0.79794E-02
          max. resid. norm for Fia-block=  2.353D-04 for orbital      6a         
          max. resid. fock norm         =  4.458D-04 for orbital    141a         

 ITERATION  ENERGY          1e-ENERGY        2e-ENERGY     NORM[dD(SAO)]  TOL
   9  -77.258819831812    -151.69555309     49.803445526    0.000D+00 0.203D-10
                            Exc = -11.3789091124     Coul =  61.1823546389    
                              N = 14.000001834    
                            current damping = 0.050
 
          Norm of current diis error: 0.20754E-02
          max. resid. norm for Fia-block=  6.727D-05 for orbital      6a         
          max. resid. fock norm         =  9.486D-05 for orbital    141a         

 ITERATION  ENERGY          1e-ENERGY        2e-ENERGY     NORM[dD(SAO)]  TOL
  10  -77.258819933865    -151.69368532     49.801577650    0.000D+00 0.203D-10
                            Exc = -11.3786956510     Coul =  61.1802733008    
                              N = 14.000001837    
                            current damping = 0.100
 
          Norm of current diis error: 0.57118E-03
          max. resid. norm for Fia-block=  1.762D-05 for orbital      6a         
          max. resid. fock norm         =  2.368D-05 for orbital    116a         
          mo-orthogonalization: Cholesky decomposition

 ITERATION  ENERGY          1e-ENERGY        2e-ENERGY     NORM[dD(SAO)]  TOL
  11  -77.258819942381    -151.69420299     49.802095314    0.000D+00 0.203D-10
                            Exc = -11.3787558236     Coul =  61.1808511380    
                              N = 14.000001836    
                            current damping = 0.150
 
          Norm of current diis error: 0.49954E-04
          max. resid. norm for Fia-block=  2.404D-06 for orbital      5a         
          max. resid. fock norm         =  3.194D-06 for orbital     75a         

 ENERGY CONVERGED !

          Overall gridpoints after grid construction =         40321

 ITERATION  ENERGY          1e-ENERGY        2e-ENERGY     NORM[dD(SAO)]  TOL
  12  -77.258804972178    -151.69412676     49.802034054    0.000D+00 0.203D-10
                            Exc = -11.3787318248     Coul =  61.1807658786    
                              N = 13.999999369    
                            current damping = 0.200
 
          Norm of current diis error: 0.24879E-04
          max. resid. norm for Fia-block=  6.638D-07 for orbital      6a         
          max. resid. fock norm         =  1.169D-06 for orbital    141a         

 End of SCF iterations

   convergence criteria satisfied after    12 iterations


                  ------------------------------------------ 
                 |  total energy      =    -77.25880497218  |
                  ------------------------------------------ 
                 :  kinetic energy    =     76.89451521091  :
                 :  potential energy  =   -154.15332018309  :
                 :  virial theorem    =      1.99528481237  :
                 :  wavefunction norm =      1.00000000000  :
                  .......................................... 


 orbitals $scfmo  will be written to file mos

    irrep                  3a          4a          5a          6a          7a   
 eigenvalues H         -0.68198    -0.51783    -0.44836    -0.26299    -0.26299
            eV         -18.5577    -14.0909    -12.2007     -7.1564     -7.1563
 occupation              2.0000      2.0000      2.0000      2.0000      2.0000 

    irrep                  8a          9a         10a         11a         12a   
 eigenvalues H         -0.01536    -0.01528     0.02941     0.03916     0.09490
            eV          -0.4180     -0.4159      0.8004      1.0656      2.5823
 
 
 
 
 ==============================================================================
                           electrostatic moments
 ==============================================================================

 reference point for electrostatic moments:    0.00000   0.00000   0.00000

 
              nuc           elec       ->  total
 ------------------------------------------------------------------------------
                          charge      
 ------------------------------------------------------------------------------
          14.000000     -14.000000      -0.000000
 
 ------------------------------------------------------------------------------
                       dipole moment  
 ------------------------------------------------------------------------------
   x       3.568999      -3.572811      -0.003813
   y       0.505856      -0.516070      -0.010214
   z      88.058228     -88.063837      -0.005608
 
   | dipole moment | =     0.0123 a.u. =     0.0312 debye 
 
 ------------------------------------------------------------------------------
                     quadrupole moment
 ------------------------------------------------------------------------------
  xx      32.609690     -38.476315      -5.866625
  yy       3.660253     -13.369221      -9.708968
  zz     554.179938    -564.415782     -10.235844
  xy     -10.613937       9.133001      -1.480936
  xz      19.345095     -19.817043      -0.471948
  yz       4.234316      -4.146682       0.087634
 
     1/3  trace=      -8.603812
     anisotropy=       4.933193
 
 ==============================================================================
 


    ------------------------------------------------------------------------
         total  cpu-time :   8.51 seconds
         total wall-time :   2.54 seconds
    ------------------------------------------------------------------------

   ****  ridft : all done  ****


    2019-03-12 22:52:31.885 

