Using Slurm to start processes with PMI2
STARTING ridft ON 8 PROCESSORS!
RUNNING PROGRAM /beegfs/modfac/apps/TURBOMOLE/7.0_intel_GA/bin/em64t-unknown-linux-gnu_mpi/ridft_mpi.
PLEASE WAIT UNTIL ridft HAS FINISHED.
Look for the output in slave1.output.
  this is node-proc. number 1 running on node c-8-251.local
  the total number of node-proc. spawned is            8
  parallel platform: MPP, or cluster with fast interconnect

 ridft (c-8-251.local) : TURBOMOLE V7.0.2( ) 15 Jan 2016 at 17:47:42
 Copyright (C) 2016 TURBOMOLE GmbH, Karlsruhe


    2017-11-20 19:11:18.953 



                                  r i d f t

                        DFT program with RI approximation 
                                for coulomb part 




                                                 
                                 References:     
                                                 
          TURBOMOLE:                             
              R. Ahlrichs, M. Baer, M. Haeser, H. Horn, and
              C. Koelmel
              Electronic structure calculations on workstation
              computers: the program system TURBOMOLE
              Chem. Phys. Lett. 162: 165 (1989)
          Density Functional:                              
              O. Treutler and R. Ahlrichs                      
              Efficient Molecular Numerical Integration Schemes
              J. Chem. Phys. 102: 346 (1995)                   
          Parallel Version:                                
              Performance of parallel TURBOMOLE for Density    
              Functional Calculations                          
              M. v. Arnim and R. Ahlrichs                      
              J. Comp. Chem. 19: 1746 (1998)                   
          RI-J Method:                                     
              Auxiliary Basis Sets to approximate Coulomb      
              Potentials                                       
              Chem. Phys. Lett. 240: 283 (1995)                
              K. Eichkorn, O. Treutler, H. Oehm, M. Haeser     
              and R. Ahlrichs                                  
              Chem. Phys. Lett. 242: 652 (1995)                
                                                           
              Auxiliary Basis Sets for Main Row Atoms and their
              Use to approximate Coulomb Potentials            
              K. Eichkorn, F. Weigend, O. Treutler and         
              R. Ahlrichs                                      
              Theo. Chem. Acc. 97: 119 (1997)                   
                                                           
              Accurate Coulomb-fitting basis sets for H to Rn 
              F. Weigend                                        
              Phys. Chem. Chem. Phys. 8: 1057 (2006)            
                                                           
          Multipole accelerated RI-J (MARI-J):             
              Fast evaluation of the Coulomb potential for     
              electron densities using multipole accelerated   
              resolution of identity approximation             
              M. Sierka, A. Hogekamp and R. Ahlrichs           
              J. Chem. Phys. 118: 9136 (2003)                  
          RI-JK Method:                                     
              A fully direct RI-HF algorithm: Implementation,
              optimised auxiliary basis sets, demonstration of
              accuracy and efficiency                         
              F. Weigend                                      
              Phys. Chem. Chem. Phys. 4: 4285 (2002)           
          Two-component HF and DFT with spin-orbit coupling:  
              Self-consistent treatment of spin-orbit         
              interactions with efficient Hartree-Fock and    
              density functional methods                      
              M. K. Armbruster, F. Weigend, C. van Wüllen and 
              W. Klopper                                      
              Phys. Chem. Chem. Phys. 10: 1748 (2008)         
          Relativistic all-electron 2c calculations           
              An efficient implementation of two-component    
              relativistic exact-decoupling methods for large 
              molecules                                       
              D. Peng, N. Middendorf, F. Weigend, M. Reiher   
              J. Chem. Phys. 138, 184105 (2013)               
                                         


 


              +--------------------------------------------------+
              |      general information about current run       |
              +--------------------------------------------------+

 

 SCF run will be profiled !


 DENSITY CONVERGENCE CHECK SWITCHED ON !
 SCF CONVERGENCE IF RMS(delta[D]) <     0.1000000000E-06

 PBE functional
 exchange:    LDA + PBE
 correlation: LDA (PW) + PBE
 A DFT calculation using the RI-J approximation will be carried out.
 Allocatable memory for RI due to $ricore (MB):       13000


              +--------------------------------------------------+
              | Atomic coordinate, charge and isotop information |
              +--------------------------------------------------+

                    atomic coordinates            atom    charge  isotop
          0.12641946    0.84327464    1.85072377    c      6.000     0
          0.62417666    3.15239373    1.95379794    o      8.000     0
          0.09726621   -0.73161656    4.25299077    c      6.000     0
         -0.34183391   -0.33569482   -0.23102396    o      8.000     0
          1.71111944   -2.02673592    4.21447903    h      1.000     0
         -1.61899500   -1.87693380    4.32292944    h      1.000     0
          0.23542234    0.46209330    5.92860916    h      1.000     0
 
       center of nuclear mass  :    0.12760086    0.72720165    1.95541152
       center of nuclear charge:    0.12672267    0.63748269    2.09259667

              +--------------------------------------------------+
              |               basis set information              |
              +--------------------------------------------------+

              we will work with the 1s 3p 5d 7f 9g ... basis set
              ...i.e. with spherical basis functions...

   type   atoms  prim   cont   basis
   ---------------------------------------------------------------------------
    c        2     77     55   cc-pVQZ   [5s4p3d2f1g|21s6p3d2f1g]
    o        2     77     55   cc-pVQZ   [5s4p3d2f1g|21s6p3d2f1g]
    h        3     32     30   cc-pVQZ   [4s3p2d1f|6s3p2d1f]
   ---------------------------------------------------------------------------
   total:    7    404    310
   ---------------------------------------------------------------------------

   total number of primitive shells          :   78
   total number of contracted shells         :   90
   total number of cartesian basis functions :  385
   total number of SCF-basis functions       :  310


 integral neglect threshold       :  0.87E-13
 integral storage threshold THIZE :  0.10E-04
 integral storage threshold THIME :         5

 RI-J AUXILIARY BASIS SET information:

              we will work with the 1s 3p 5d 7f 9g ... basis set
              ...i.e. with spherical basis functions...

   type   atoms  prim   cont   basis
   ---------------------------------------------------------------------------
    c        2     70     49   cc-pVQZ   [6s4p3d1f1g|12s5p4d2f1g]
    o        2     70     49   cc-pVQZ   [6s4p3d1f1g|12s5p4d2f1g]
    h        3     16     11   cc-pVQZ   [3s1p1d|5s2p1d]
   ---------------------------------------------------------------------------
   total:    7    328    229
   ---------------------------------------------------------------------------

   total number of primitive shells          :   56
   total number of contracted shells         :   75
   total number of cartesian basis functions :  280
   total number of SCF-basis functions       :  229


 symmetry group of the molecule :   c1 

 the group has the following generators :
   c1(z)

    1 symmetry operations found

 there are 1 real representations :   a   

 maximum number of shells which are related by symmetry :  1


    mo occupation :
   irrep   mo's   occupied
    a      310       16
 
 number of basis functions   :          310
 number of occupied orbitals :           16
 
  
           ------------------
           density functional
           ------------------
 PBE functional
 exchange:    LDA + PBE
 correlation: LDA (PW) + PBE
 grinp -> nfun, dfgga, dfhybrid 
           6 T F
 iterations will be done with small grid
  
 spherical integration : Lebedev's spherical grid
 spherical gridsize    :           5
    i.e. gridpoints    :         590
 value for diffuse not defined
 radial integration    : Chebyshev 2nd kind (scaling 3)
 radial gridsize       :           8
 integration cells     :           7
 partition function    : becke
 partition sharpness   :           3
  

 <rddim> : input of entry tasksize
           from data group '$pardft' failed !

               Default values taken

 <rddim> : input of entry memdiv
           from data group '$pardft' failed !

               Default values taken
  RIDFT: memory allocation for DFT gridpoints
  MEMORY is divided by 1 as DEFAULT
 Each node can hold at most  the            1 -th part
 of the gridpoints    

 biggest AO integral is expected to be     4.785886462
  
           ------------------------
               RI-J - INFORMATION
           ------------------------
 
 
 **************************************************
 *      MEMORY ALLOCATION FOR PARALLEL RI-DFT     *
 **************************************************
 
 
MEMORY FOR (MU NU/ ALPHA), SEQUENTIAL RUN              13000 MByte
 
            DIFFERENCE IN MEMORY NEED:       DIAG./SLAVE  
 
      TOTAL DIFFERENCE :                      5 MByte
 
      difference in xcore:                    1 MByte
      difference in fatmat:                   2 MByte
      getcor calls skipped by slaves:         3 MByte
 
 
           Integral memory available for diagonal.     13000 MByte
 
           Integral memory available for slave             0 MByte
 
         MEMORY FOR (MU NU/ ALPHA) ON DIAGONALIZER     13000 MByte
 
         MEMORY FOR (MU NU/ ALPHA) ON ONE SLAVE            0 MByte
 
         TOTAL MEMORY FOR (MU NU/ ALPHA),ALL NODES     13000 MByte
 
 Contributions to RI integral batches: 
  neglected integral batches:         213
  direct contribution:                  0
  memory contribution:        3882
 Memory core needed for (P|Q) and Cholesky      1 MByte
 Memory core minimum needed except of (P|Q)     1 MByte
 Total minimum memory core needed (sum)         2 MByte
  
 ****************************************
 Memory allocated for RI-J 13001 MByte
 ****************************************
                                            

          ------------------------
          nuclear repulsion energy  :   111.688925611    
          ------------------------

 
          -----------------
          -S integrals
          -----------------

 1e-integrals will be neglected if expon. factor < 0.868042E-14
 
          -----------------
          -T+V integrals
          -----------------

 1e-integrals will be neglected if expon. factor < 0.868042E-14
 Difference densities >>NOT<< switched on in parallel ridft!

 automatic virtual orbital shift switched on 
      shift if e(lumo)-e(homo) < 0.10000000    


 DIIS switched on: error vector is FDS-SDF
 Max. Iterations for DIIS is     :   4
 DIIS matrix (see manual) 
    Scaling factor of diagonals  :  1.200
    threshold for scaling factor :  0.000

 scf convergence criterion : increment of total energy < .1000000D-08
                  and increment of one-electron energy < .1000000D-05


 <geterg> : there is no data group $energy 

  MOs are in ASCII format !


 reading orbital data $scfmo  from file mos . 

 orbital characterization : expanded
 
 mo provided and orthogonalized by Cholesky decomposition

 DSCF restart information will be dumped onto file mos


 Starting SCF iterations


 ITERATION  ENERGY          1e-ENERGY        2e-ENERGY     RMS[dD(SAO)]   TOL
   1  -227.21427025299    -540.45220348     201.54900761    0.000D+00 0.866D-13
                            Exc = -29.4248526934     Coul =  230.973860308    
                              N = 32.000006204    
                            current damping = 0.700
 
          max. resid. norm for Fia-block=  4.249D-01 for orbital      9a         
          max. resid. fock norm         =  1.306D+01 for orbital    288a         

 ITERATION  ENERGY          1e-ENERGY        2e-ENERGY     RMS[dD(SAO)]   TOL
   2  -228.21696110031    -540.69598634     200.79009963    0.544D-02 0.866D-13
                            Exc = -29.0704357207     Coul =  229.860535346    
                              N = 32.000004049    
                            current damping = 0.650
 
          Norm of current diis error:  1.9470    
          max. resid. norm for Fia-block=  1.523D-01 for orbital      1a         
          max. resid. fock norm         =  3.121D-01 for orbital    230a         

 ITERATION  ENERGY          1e-ENERGY        2e-ENERGY     RMS[dD(SAO)]   TOL
   3  -228.33232529896    -541.52289267     201.50164176    0.379D-02 0.866D-13
                            Exc = -29.1709872715     Coul =  230.672629033    
                              N = 32.000002626    
                            current damping = 0.600
 
          Norm of current diis error: 0.83582    
          max. resid. norm for Fia-block=  6.187D-02 for orbital      1a         
          max. resid. fock norm         =  9.736D-02 for orbital    145a         

 ITERATION  ENERGY          1e-ENERGY        2e-ENERGY     RMS[dD(SAO)]   TOL
   4  -228.36307660207    -540.82629462     200.77429241    0.416D-02 0.866D-13
                            Exc = -29.0906100468     Coul =  229.864902458    
                              N = 32.000000803    
                            current damping = 0.650
 
          Norm of current diis error: 0.34969    
          max. resid. norm for Fia-block=  2.990D-02 for orbital      5a         
          max. resid. fock norm         =  5.885D-02 for orbital    294a         

 ITERATION  ENERGY          1e-ENERGY        2e-ENERGY     RMS[dD(SAO)]   TOL
   5  -228.36865649322    -541.17882371     201.12124161    0.270D-02 0.866D-13
                            Exc = -29.1364337044     Coul =  230.257675310    
                              N = 31.999999463    
                            current damping = 0.700
 
          Norm of current diis error: 0.15060    
          max. resid. norm for Fia-block=  9.761D-03 for orbital      1a         
          max. resid. fock norm         =  1.336D-02 for orbital    159a         
          mo-orthogonalization: Cholesky decomposition

 ITERATION  ENERGY          1e-ENERGY        2e-ENERGY     RMS[dD(SAO)]   TOL
   6  -228.37000347857    -540.98494944     200.92602035    0.226D-02 0.866D-13
                            Exc = -29.1143410259     Coul =  230.040361374    
                              N = 31.999998282    
                            current damping = 0.750
 
          Norm of current diis error: 0.64453E-01
          max. resid. norm for Fia-block=  4.791D-03 for orbital      5a         
          max. resid. fock norm         =  9.436D-03 for orbital    274a         

 ITERATION  ENERGY          1e-ENERGY        2e-ENERGY     RMS[dD(SAO)]   TOL
   7  -228.37018014527    -540.98841877     200.92931302    0.887D-03 0.866D-13
                            Exc = -29.1174854862     Coul =  230.046798503    
                              N = 31.999997767    
                            current damping = 0.800
 
          Norm of current diis error: 0.39568E-01
          max. resid. norm for Fia-block=  2.320D-03 for orbital      5a         
          max. resid. fock norm         =  4.465D-03 for orbital    262a         

 ITERATION  ENERGY          1e-ENERGY        2e-ENERGY     RMS[dD(SAO)]   TOL
   8  -228.37024335977    -541.00476861     200.94559964    0.386D-03 0.866D-13
                            Exc = -29.1194909225     Coul =  230.065090562    
                              N = 31.999997591    
                            current damping = 0.650
 
          Norm of current diis error: 0.15725E-01
          max. resid. norm for Fia-block=  7.545D-04 for orbital      5a         
          max. resid. fock norm         =  1.551D-03 for orbital    263a         

 ITERATION  ENERGY          1e-ENERGY        2e-ENERGY     RMS[dD(SAO)]   TOL
   9  -228.37025498622    -541.00975992     200.95057932    0.201D-03 0.866D-13
                            Exc = -29.1195134300     Coul =  230.070092752    
                              N = 31.999997477    
                            current damping = 0.500
 
          Norm of current diis error: 0.63661E-02
          max. resid. norm for Fia-block=  3.802D-04 for orbital     15a         
          max. resid. fock norm         =  6.714D-04 for orbital    161a         

 ITERATION  ENERGY          1e-ENERGY        2e-ENERGY     RMS[dD(SAO)]   TOL
  10  -228.37025660880    -540.99557318     200.93639096    0.129D-03 0.866D-13
                            Exc = -29.1184222397     Coul =  230.054813202    
                              N = 31.999997406    
                            current damping = 0.550
 
          Norm of current diis error: 0.29256E-02
          max. resid. norm for Fia-block=  2.195D-04 for orbital      5a         
          max. resid. fock norm         =  4.623D-04 for orbital    263a         
          mo-orthogonalization: Cholesky decomposition

 ITERATION  ENERGY          1e-ENERGY        2e-ENERGY     RMS[dD(SAO)]   TOL
  11  -228.37025671070    -541.00440948     200.94522716    0.805D-05 0.866D-13
                            Exc = -29.1195504080     Coul =  230.064777568    
                              N = 31.999997404    
                            current damping = 0.600
 
          Norm of current diis error: 0.26832E-02
          max. resid. norm for Fia-block=  1.197D-04 for orbital     14a         
          max. resid. fock norm         =  2.089D-04 for orbital    309a         

 ITERATION  ENERGY          1e-ENERGY        2e-ENERGY     RMS[dD(SAO)]   TOL
  12  -228.37025687061    -541.00324745     200.94406497    0.164D-04 0.866D-13
                            Exc = -29.1192776667     Coul =  230.063342634    
                              N = 31.999997398    
                            current damping = 0.650
 
          Norm of current diis error: 0.15516E-02
          max. resid. norm for Fia-block=  7.671D-05 for orbital     14a         
          max. resid. fock norm         =  1.579D-04 for orbital    310a         

 ITERATION  ENERGY          1e-ENERGY        2e-ENERGY     RMS[dD(SAO)]   TOL
  13  -228.37025694279    -541.00158410     200.94240155    0.893D-05 0.866D-13
                            Exc = -29.1190853793     Coul =  230.061486928    
                              N = 31.999997392    
                            current damping = 0.500
 
          Norm of current diis error: 0.65736E-03
          max. resid. norm for Fia-block=  2.004D-05 for orbital     13a         
          max. resid. fock norm         =  3.562D-05 for orbital    159a         

 ITERATION  ENERGY          1e-ENERGY        2e-ENERGY     RMS[dD(SAO)]   TOL
  14  -228.37025695420    -541.00116689     200.94198433    0.269D-05 0.866D-13
                            Exc = -29.1190778632     Coul =  230.061062191    
                              N = 31.999997391    
                            current damping = 0.350
 
          Norm of current diis error: 0.14957E-03
          max. resid. norm for Fia-block=  6.542D-06 for orbital     16a         
          max. resid. fock norm         =  1.420D-05 for orbital    263a         

 ITERATION  ENERGY          1e-ENERGY        2e-ENERGY     RMS[dD(SAO)]   TOL
  15  -228.37025695502    -541.00163438     200.94245181    0.714D-06 0.866D-13
                            Exc = -29.1191258305     Coul =  230.061577644    
                              N = 31.999997391    
                            current damping = 0.400
 
          Norm of current diis error: 0.35160E-04
          max. resid. norm for Fia-block=  1.566D-06 for orbital     16a         
          max. resid. fock norm         =  1.831D-06 for orbital    309a         
          mo-orthogonalization: Cholesky decomposition

 ITERATION  ENERGY          1e-ENERGY        2e-ENERGY     RMS[dD(SAO)]   TOL
  16  -228.37025695506    -541.00156280     200.94238023    0.406D-06 0.866D-13
                            Exc = -29.1191182796     Coul =  230.061498514    
                              N = 31.999997391    
                            current damping = 0.450
 
          Norm of current diis error: 0.73649E-05
          max. resid. norm for Fia-block=  4.827D-07 for orbital     14a         
          max. resid. fock norm         =  8.944D-07 for orbital    310a         

 DENSITY CONVERGED !


 ITERATION  ENERGY          1e-ENERGY        2e-ENERGY     RMS[dD(SAO)]   TOL
  17  -228.37025695507    -541.00154965     200.94236709    0.951D-07 0.866D-13
                            Exc = -29.1191175362     Coul =  230.061484625    
                              N = 31.999997391    
                            current damping = 0.300
 
          Norm of current diis error: 0.85315E-05
          max. resid. norm for Fia-block=  3.332D-07 for orbital     14a         
          max. resid. fock norm         =  6.927D-07 for orbital    310a         

 ENERGY & DENSITY CONVERGED !


 ITERATION  ENERGY          1e-ENERGY        2e-ENERGY     RMS[dD(SAO)]   TOL
  18  -228.37026683067    -541.00155278     200.94236034    0.270D-07 0.866D-13
                            Exc = -29.1191277824     Coul =  230.061488123    
                              N = 32.000000318    
                            current damping = 0.350
 
          Norm of current diis error: 0.37473E-05
          max. resid. norm for Fia-block=  1.232D-07 for orbital     13a         
          max. resid. fock norm         =  1.846D-07 for orbital    310a         

 End of SCF iterations

   convergence criteria satisfied after   18 iterations


                  ------------------------------------------ 
                 |  total energy      =   -228.37026683067  |
                  ------------------------------------------ 
                 :  kinetic energy    =    227.55952582495  :
                 :  potential energy  =   -455.92979265562  :
                 :  virial theorem    =      1.99644988370  :
                 :  wavefunction norm =      1.00000000000  :
                  .......................................... 


 <geterg> : there is no data group $energy 


 <skperg> : $end is missing 


 orbitals $scfmo  will be written to file mos

    irrep                 12a         13a         14a         15a         16a   
 eigenvalues H         -0.12139    -0.10649     0.00476     0.01106     0.03637
            eV          -3.3033     -2.8977      0.1294      0.3009      0.9896
 occupation              2.0000      2.0000      2.0000      2.0000      2.0000 

    irrep                 17a         18a         19a         20a         21a   
 eigenvalues H          0.16791     0.20275     0.22658     0.25211     0.27148
            eV           4.5692      5.5170      6.1656      6.8604      7.3875
 

    !!!!!!!!!!!!!!!!!!!!!!!!!!!!!!!!!!!!!!!!!!!!!!!!!!!!!!!!!!!!!!!!!!!!!!!
    !                                                                     !
    ! WARNING : ORBITAL ENERGIES SHOULD BE NEGATIVE FOR OCCUPIED ORBITALS !
    !                                                                     !
    !      orbital energy (   0.00476) of occupied MO  14a    is > 0      !
    !      orbital energy (   0.01106) of occupied MO  15a    is > 0      !
    !      orbital energy (   0.03637) of occupied MO  16a    is > 0      !
    !!!!!!!!!!!!!!!!!!!!!!!!!!!!!!!!!!!!!!!!!!!!!!!!!!!!!!!!!!!!!!!!!!!!!!!

 
 ! grave: sending quit signal to master process
 
 
 
 
 ==============================================================================
                           electrostatic moments
 ==============================================================================

 reference point for electrostatic moments:    0.00000   0.00000   0.00000

 
              nuc           elec       ->  total
 ------------------------------------------------------------------------------
                          charge      
 ------------------------------------------------------------------------------
          31.000000     -32.000000      -1.000000
 
 ------------------------------------------------------------------------------
                       dipole moment  
 ------------------------------------------------------------------------------
   x       3.928403      -4.045133      -0.116731
   y      19.761963     -21.090666      -1.328702
   z      64.870497     -65.732628      -0.862131
 
   | dipole moment | =     1.5882 a.u. =     4.0368 debye 
 
 ------------------------------------------------------------------------------
                     quadrupole moment
 ------------------------------------------------------------------------------
  xx       9.808729     -29.189057     -19.380328
  yy      95.724536    -122.255415     -26.530878
  zz     231.642201    -255.778052     -24.135851
  xy      16.551434     -18.093773      -1.542339
  xz      15.882137     -16.796160      -0.914023
  yz      26.672293     -29.470787      -2.798494
 
     1/3  trace=     -23.349019
     anisotropy=       8.536874
 
 ==============================================================================
 

    ridft profiling
  --------------------------------------------------------------------
             module   cpu total (s)       %  wall total (s)       %

               RIDFT            20.6  100.00            20.7  100.00
         Ridft_b_scf             1.9    9.01             1.9    9.33
        b_scf_prelim             0.0    0.00             0.0    0.01
        b_scf_molinp             0.0    0.06             0.0    0.08
         b_scf_init0             0.0    0.00             0.0    0.00
        b_scf_auxbas             0.0    0.05             0.0    0.06
      b_scf_symmetry             0.0    0.01             0.0    0.01
         b_scf_cosmo             0.0    0.00             0.0    0.00
        b_scf_params             0.4    1.93             0.4    1.95
          b_scf_ri-j             1.3    6.29             1.4    6.55
    b_scf_ri-j_auxpq             1.3    6.29             1.4    6.55
     ri-j_auxpq_chol             0.0    0.02             0.0    0.03
         b_scf_1elec             0.0    0.20             0.0    0.20
       b_scf_moinput             0.1    0.45             0.1    0.46
     moinput_orthmos             0.1    0.42             0.1    0.43
    b_scf_dft-dstmax             0.0    0.00             0.0    0.00
           Ridft_scf            18.7   90.86            18.7   90.48
          Scf_b_loop             0.0    0.02             0.0    0.01
                noga             0.0    0.00             0.0    0.00
            Scf_loop            18.6   90.47            18.6   90.10
     scf_loop_mkdmat             0.1    0.31             0.1    0.31
       scf_loop_ri-j             2.8   13.45             2.8   13.40
      parlp1.bc.dens             0.9    4.42             0.9    4.39
        parlp1.gs.gp             0.0    0.00             0.0    0.01
        parlp2.bc.gq             0.0    0.00             0.0    0.00
        scf_loop_dft            12.4   60.04            12.4   59.81
      pardft.bc.dens             0.0    0.00             0.0    0.00
        dft_grid_con             0.0    0.10             0.0    0.08
           dft_xcrhf            11.6   56.14            11.6   55.95
          dft_getval             1.2    5.64             1.2    5.71
          funct2 dst             0.0    0.08             0.0    0.10
      funct2 f2loop1             0.5    2.50             0.5    2.40
      funct2 f2loop2             0.3    1.36             0.3    1.49
          funct2 s+c             0.3    1.41             0.3    1.44
        funct2 cmf_2             0.2    1.09             0.2    1.19
          dft_mkdens             5.3   25.91             5.3   25.81
         dft_gga-fun             0.0    0.22             0.0    0.20
          dft_mkfock             5.0   24.06             4.9   23.94
     pardft.red.fock             1.2    5.80             1.2    5.78
     scf_loop_energy             0.0    0.03             0.0    0.01
     scf_loop_mkfock             0.0    0.01             0.0    0.01
       scf_loop_diis             0.4    2.14             0.4    2.14
       scf_loop_diag             1.8    8.55             1.8    8.51
         diag_tritrn             0.4    1.95             0.4    1.94
          diag_rdiag             1.3    6.56             1.3    6.52
     scf_loop_modump             1.1    5.15             1.1    5.12
      scf_loop_ortho             0.1    0.62             0.1    0.62
          Scf_a_loop             0.1    0.37             0.1    0.37
         Ridft_a_scf             0.0    0.12             0.0    0.18
         a_scf_fanal             0.0    0.11             0.0    0.12
 


    ------------------------------------------------------------------------
         total  cpu-time :  20.70 seconds
         total wall-time :  20.83 seconds
    ------------------------------------------------------------------------


   ****  ridft : all done  ****


    2017-11-20 19:11:39.768 

