Using OpenMPI from /sopt/mpi/openmpi-1.8.6/intel_15.0.3/bin/mpiexec
STARTING ridft ON 8 PROCESSORS!
RUNNING PROGRAM /beegfs/modfac/apps/TURBOMOLE/7.0_intel/bin/em64t-unknown-linux-gnu_mpi/ridft_mpi.
PLEASE WAIT UNTIL ridft HAS FINISHED.
Look for the output in slave1.output.
  this is node-proc. number 1 running on node c-5-31.local
  the total number of node-proc. spawned is            7
  parallel platform: MPP, or cluster with fast interconnect

 ridft (c-5-31.local) : TURBOMOLE V7.0( ) 6 Jul 2015 at 19:34:44
 Copyright (C) 2015 TURBOMOLE GmbH, Karlsruhe


    2017-11-09 10:35:57.054 



                                  r i d f t

                        DFT program with RI approximation 
                                for coulomb part 




                                                 
                                 References:     
                                                 
          TURBOMOLE:                             
              R. Ahlrichs, M. Baer, M. Haeser, H. Horn, and
              C. Koelmel
              Electronic structure calculations on workstation
              computers: the program system TURBOMOLE
              Chem. Phys. Lett. 162: 165 (1989)
          Density Functional:                              
              O. Treutler and R. Ahlrichs                      
              Efficient Molecular Numerical Integration Schemes
              J. Chem. Phys. 102: 346 (1995)                   
          Parallel Version:                                
              Performance of parallel TURBOMOLE for Density    
              Functional Calculations                          
              M. v. Arnim and R. Ahlrichs                      
              J. Comp. Chem. 19: 1746 (1998)                   
          RI-J Method:                                     
              Auxiliary Basis Sets to approximate Coulomb      
              Potentials                                       
              Chem. Phys. Lett. 240: 283 (1995)                
              K. Eichkorn, O. Treutler, H. Oehm, M. Haeser     
              and R. Ahlrichs                                  
              Chem. Phys. Lett. 242: 652 (1995)                
                                                           
              Auxiliary Basis Sets for Main Row Atoms and their
              Use to approximate Coulomb Potentials            
              K. Eichkorn, F. Weigend, O. Treutler and         
              R. Ahlrichs                                      
              Theo. Chem. Acc. 97: 119 (1997)                   
                                                           
              Accurate Coulomb-fitting basis sets for H to Rn 
              F. Weigend                                        
              Phys. Chem. Chem. Phys. 8: 1057 (2006)            
                                                           
          Multipole accelerated RI-J (MARI-J):             
              Fast evaluation of the Coulomb potential for     
              electron densities using multipole accelerated   
              resolution of identity approximation             
              M. Sierka, A. Hogekamp and R. Ahlrichs           
              J. Chem. Phys. 118: 9136 (2003)                  
          RI-JK Method:                                     
              A fully direct RI-HF algorithm: Implementation,
              optimised auxiliary basis sets, demonstration of
              accuracy and efficiency                         
              F. Weigend                                      
              Phys. Chem. Chem. Phys. 4: 4285 (2002)           
          Two-component HF and DFT with spin-orbit coupling:  
              Self-consistent treatment of spin-orbit         
              interactions with efficient Hartree-Fock and    
              density functional methods                      
              M. K. Armbruster, F. Weigend, C. van Wüllen and 
              W. Klopper                                      
              Phys. Chem. Chem. Phys. 10: 1748 (2008)         
          Relativistic all-electron 2c calculations           
              An efficient implementation of two-component    
              relativistic exact-decoupling methods for large 
              molecules                                       
              D. Peng, N. Middendorf, F. Weigend, M. Reiher   
              J. Chem. Phys. 138, 184105 (2013)               
                                         


 


              +--------------------------------------------------+
              |      general information about current run       |
              +--------------------------------------------------+

 

 SCF run will be profiled !


 DENSITY CONVERGENCE CHECK SWITCHED ON !
 SCF CONVERGENCE IF RMS(delta[D]) <     0.1000000000E-06

 PBE functional
 exchange:    LDA + PBE
 correlation: LDA (PW) + PBE
 A DFT calculation using the RI-J approximation will be carried out.
 Allocatable memory for RI due to $ricore (MB):       13000


              +--------------------------------------------------+
              | Atomic coordinate, charge and isotop information |
              +--------------------------------------------------+

                    atomic coordinates            atom    charge  isotop
          6.05659189   -0.94048895   -4.35480813    c      6.000     0
          7.49962662   -2.53265446   -5.84947775    c      6.000     0
          6.18012529   -4.87531841   -6.04637788    c      6.000     0
          3.96656005   -4.66464663   -4.65960429    c      6.000     0
          6.42436698    1.79798203   -3.59417940    c      6.000     0
          9.07738196    2.66591966   -4.49760076    c      6.000     0
          4.43700767    3.41137206   -4.89113411    c      6.000     0
          4.50257883    4.42215176   -7.30482428    c      6.000     0
          1.88514808   -6.56016261   -4.13169381    c      6.000     0
          1.73699803   -7.08664932   -1.25279560    c      6.000     0
          2.51832904   -9.05559727   -5.48368597    c      6.000     0
         -0.64075295   -5.59626660   -5.09386150    c      6.000     0
         -1.99428580   -6.23438912   -7.24654003    c      6.000     0
          3.92163817   -2.26122403   -3.65805003    n      7.000     0
          2.11854219    4.01750368   -3.85982585    n      7.000     0
         -2.06216339   -3.83183561   -3.80426755    n      7.000     0
         -3.91783079    4.84255687   -4.57716225    c      6.000     0
         -6.49117714    5.35603384   -4.40570077    c      6.000     0
         -7.79988974    3.00395119   -4.33751600    c      6.000     0
         -6.01029284    1.08346078   -4.43579244    c      6.000     0
         -1.74797667    6.70337984   -4.89577494    c      6.000     0
         -1.42553625    8.27662569   -2.43621438    c      6.000     0
         -2.47096983    8.55352329   -7.03988900    c      6.000     0
          0.72535695    5.44738358   -5.55838143    c      6.000     0
          2.17770611    5.69745616   -7.72232265    c      6.000     0
         -6.37705258   -1.73026089   -3.95463425    c      6.000     0
         -8.94169076   -2.54048547   -5.12766108    c      6.000     0
         -4.30254376   -3.36355888   -5.05971943    c      6.000     0
         -4.29310159   -4.83827197   -7.22400518    c      6.000     0
         -3.67566487    2.24167950   -4.56805342    n      7.000     0
          6.38858894    2.07426602   -0.73596175    c      6.000     0
          6.36277500    4.21756192    0.82399973    c      6.000     0
          6.83851488    0.02927768    0.75978099    n      7.000     0
          6.84100511    3.39257236    3.33556150    c      6.000     0
          7.12616251    0.75961049    3.25103206    c      6.000     0
         -6.55501806   -2.12478905   -1.09642806    c      6.000     0
         -6.51959921   -4.28526775    0.41638225    c      6.000     0
         -7.02010736   -0.08550083    0.43477021    n      7.000     0
         -7.07490658   -3.51386973    2.94265858    c      6.000     0
         -7.39764716   -0.89298541    2.90946676    c      6.000     0
          7.64410523   -1.05781758    5.21820343    c      6.000     0
         -7.76535338    0.91165175    4.91149480    c      6.000     0
          8.05623684   -0.57723657    7.45297736    o      8.000     0
         -8.35156648    0.48033527    7.10358177    o      8.000     0
          7.64428665   -3.46725220    4.27852444    o      8.000     0
         -7.33950547    3.36065213    4.05036823    o      8.000     0
         -7.80979450    5.37854477    5.88685588    c      6.000     0
          8.16515392   -5.48501931    6.07708097    c      6.000     0
         -6.87136406    7.81209282    4.70474429    c      6.000     0
          7.43599124   -7.95100247    4.81528474    c      6.000     0
         -7.15695316   -5.21084738    5.20910747    c      6.000     0
          6.96452503    5.04158557    5.63832198    c      6.000     0
          4.43782184    5.14437392    7.07591983    c      6.000     0
         -4.55158175   -5.51188746    6.46645904    c      6.000     0
         -6.01187267   -6.95325655   -0.39750406    c      6.000     0
          5.95720012    6.90800520    0.02134905    c      6.000     0
          9.28565613   -2.06932957   -6.72633419    h      1.000     0
          6.79321048   -6.52714517   -7.08117689    h      1.000     0
          9.37092176    4.64626899   -3.99670878    h      1.000     0
          9.25944118    2.46053765   -6.54473838    h      1.000     0
         10.52759429    1.51461458   -3.58182930    h      1.000     0
          6.05144490    4.26291571   -8.62750194    h      1.000     0
          0.27982670   -8.50438954   -0.86582365    h      1.000     0
          1.29265351   -5.37395795   -0.18598621    h      1.000     0
          3.56089979   -7.80730168   -0.59452269    h      1.000     0
          2.69181223   -8.78824248   -7.52610908    h      1.000     0
          1.03007454  -10.44399733   -5.12328603    h      1.000     0
          4.30965795   -9.80198284   -4.76987810    h      1.000     0
         -1.41868545   -7.59066178   -8.66231010    h      1.000     0
          2.57356174   -1.58252655   -2.43153520    h      1.000     0
          1.50846242    3.56438868   -2.07498195    h      1.000     0
         -1.52444497   -2.96927802   -2.15453012    h      1.000     0
         -7.34447551    7.21300451   -4.45711214    h      1.000     0
         -9.82595381    2.75349830   -4.23634640    h      1.000     0
         -0.03208176    9.77368137   -2.73859505    h      1.000     0
         -0.74610593    7.10366656   -0.87359857    h      1.000     0
         -3.22303730    9.16990622   -1.92035885    h      1.000     0
         -2.76745327    7.54429127   -8.81873341    h      1.000     0
         -0.97296619    9.95460907   -7.29972141    h      1.000     0
         -4.21638726    9.54412258   -6.55212251    h      1.000     0
          1.64796304    6.73091949   -9.40282530    h      1.000     0
         -8.92269148   -2.23985922   -7.17117518    h      1.000     0
        -10.47974873   -1.43506770   -4.30717737    h      1.000     0
         -9.28166111   -4.53743262   -4.73455741    h      1.000     0
         -5.79670197   -4.95706858   -8.60287613    h      1.000     0
         -1.99662600    1.31515907   -4.61185182    h      1.000     0
          6.96297247   -1.77329282    0.13383818    h      1.000     0
         -7.85907237    1.47963155   -0.30429348    h      1.000     0
         -6.80560794    4.91755805    7.62909624    h      1.000     0
         -9.83801452    5.43325233    6.26877102    h      1.000     0
          7.07441050   -5.13118966    7.79448202    h      1.000     0
         10.17804572   -5.42364362    6.55270679    h      1.000     0
         -4.81349990    7.78559081    4.43759822    h      1.000     0
         -7.28545848    9.39743953    5.96327192    h      1.000     0
         -7.81805652    8.18461347    2.90008922    h      1.000     0
          5.41727994   -7.97830075    4.36471608    h      1.000     0
          7.84188395   -9.52262344    6.09853259    h      1.000     0
          8.50913504   -8.23602480    3.07031263    h      1.000     0
         -7.85924735   -7.06987279    4.62290866    h      1.000     0
         -8.49428123   -4.44789121    6.58775211    h      1.000     0
          7.50517407    6.95760353    5.06300307    h      1.000     0
          8.43286051    4.33632749    6.91350534    h      1.000     0
          2.91723795    5.81407688    5.84346925    h      1.000     0
          4.57682062    6.41539211    8.70577975    h      1.000     0
          3.91792017    3.26151990    7.74681143    h      1.000     0
         -3.16477089   -6.27087100    5.13349873    h      1.000     0
         -4.67172345   -6.79492574    8.08647037    h      1.000     0
         -3.85279099   -3.68449622    7.12510105    h      1.000     0
         -5.91542246   -7.10980179   -2.45297909    h      1.000     0
         -7.50152793   -8.21941343    0.28654148    h      1.000     0
         -4.21575455   -7.64081271    0.36993221    h      1.000     0
          6.09687785    7.11359742   -2.02839699    h      1.000     0
          7.35662936    8.16073709    0.89359529    h      1.000     0
          4.08350239    7.59033417    0.58730028    h      1.000     0
 
       center of nuclear mass  :    0.01170311   -0.00327703   -0.83448980
       center of nuclear charge:    0.01380908   -0.00247902   -0.80958522

              +--------------------------------------------------+
              |               basis set information              |
              +--------------------------------------------------+

              we will work with the 1s 3p 5d 7f 9g ... basis set
              ...i.e. with spherical basis functions...

   type   atoms  prim   cont   basis
   ---------------------------------------------------------------------------
    c       46     50     30   cc-pVTZ   [4s3p2d1f|18s5p2d1f]
    n        6     50     30   cc-pVTZ   [4s3p2d1f|18s5p2d1f]
    o        4     50     30   cc-pVTZ   [4s3p2d1f|18s5p2d1f]
    h       58     16     14   cc-pVTZ   [3s2p1d|5s2p1d]
   ---------------------------------------------------------------------------
   total:  114   3728   2492
   ---------------------------------------------------------------------------

   total number of primitive shells          :   86
   total number of contracted shells         :  908
   total number of cartesian basis functions : 2830
   total number of SCF-basis functions       : 2492


 integral neglect threshold       :  0.12E-13
 integral storage threshold THIZE :  0.10E-04
 integral storage threshold THIME :         5

 RI-J AUXILIARY BASIS SET information:

              we will work with the 1s 3p 5d 7f 9g ... basis set
              ...i.e. with spherical basis functions...

   type   atoms  prim   cont   basis
   ---------------------------------------------------------------------------
    c       46     70     49   cc-pVTZ   [6s4p3d1f1g|12s5p4d2f1g]
    n        6     70     49   cc-pVTZ   [6s4p3d1f1g|12s5p4d2f1g]
    o        4     70     49   cc-pVTZ   [6s4p3d1f1g|12s5p4d2f1g]
    h       58     16     11   cc-pVTZ   [3s1p1d|5s2p1d]
   ---------------------------------------------------------------------------
   total:  114   4848   3382
   ---------------------------------------------------------------------------

   total number of primitive shells          :   80
   total number of contracted shells         : 1130
   total number of cartesian basis functions : 4112
   total number of SCF-basis functions       : 3382


 symmetry group of the molecule :   c1 

 the group has the following generators :
   c1(z)

    1 symmetry operations found

 there are 1 real representations :   a   

 maximum number of shells which are related by symmetry :  1


    mo occupation :
   irrep   mo's   occupied
    a     2492      204
 
 number of basis functions   :         2492
 number of occupied orbitals :          204
 
  
           ------------------
           density functional
           ------------------
 PBE functional
 exchange:    LDA + PBE
 correlation: LDA (PW) + PBE
 grinp -> nfun, dfgga, dfhybrid 
           6 T F
 iterations will be done with small grid
  
 spherical integration : Lebedev's spherical grid
 spherical gridsize    :           5
    i.e. gridpoints    :         590
 value for diffuse not defined
 radial integration    : Chebyshev 2nd kind (scaling 3)
 radial gridsize       :           8
 integration cells     :         114
 partition function    : becke
 partition sharpness   :           3
  

 <rddim> : input of entry tasksize
           from data group '$pardft' failed !

               Default values taken

 <rddim> : input of entry memdiv
           from data group '$pardft' failed !

               Default values taken
  RIDFT: memory allocation for DFT gridpoints
  MEMORY is divided by 1 as DEFAULT
 Each node can hold at most  the            1 -th part
 of the gridpoints    

 biggest AO integral is expected to be     4.866064444
  
           ------------------------
               RI-J - INFORMATION
           ------------------------
 
 
 **************************************************
 *      MEMORY ALLOCATION FOR PARALLEL RI-DFT     *
 **************************************************
 
 
MEMORY FOR (MU NU/ ALPHA), SEQUENTIAL RUN              12909 MByte
 
            DIFFERENCE IN MEMORY NEED:       DIAG./SLAVE  
 
      TOTAL DIFFERENCE :                    339 MByte
 
      difference in xcore:                   92 MByte
      difference in fatmat:                  92 MByte
      getcor calls skipped by slaves:       156 MByte
 
 
           Integral memory available for diagonal.     12909 MByte
 
           Integral memory available for slave             0 MByte
 
         MEMORY FOR (MU NU/ ALPHA) ON DIAGONALIZER     12909 MByte
 
         MEMORY FOR (MU NU/ ALPHA) ON ONE SLAVE            0 MByte
 
         TOTAL MEMORY FOR (MU NU/ ALPHA),ALL NODES     12909 MByte
 
 Contributions to RI integral batches: 
  neglected integral batches:      244682
  direct contribution:              84230
  memory contribution:       83774
 Memory core needed for (P|Q) and Cholesky     88 MByte
 Memory core minimum needed except of (P|Q)     8 MByte
 Total minimum memory core needed (sum)        95 MByte
     number of direct tasks:         140
  
 ****************************************
 Memory allocated for RI-J 13003 MByte
 ****************************************
                                            

          ------------------------
          nuclear repulsion energy  :   8472.36893125    
          ------------------------

 
          -----------------
          -S integrals
          -----------------

 1e-integrals will be neglected if expon. factor < 0.118091E-14
 
          -----------------
          -T+V integrals
          -----------------

 1e-integrals will be neglected if expon. factor < 0.118091E-14
 Difference densities >>NOT<< switched on in parallel ridft!

 automatic virtual orbital shift switched on 
      shift if e(lumo)-e(homo) < 0.10000000    


 DIIS switched on: error vector is FDS-SDF
 Max. Iterations for DIIS is     :   4
 DIIS matrix (see manual) 
    Scaling factor of diagonals  :  1.200
    threshold for scaling factor :  0.000

 scf convergence criterion : increment of total energy < .1000000D-08
                  and increment of one-electron energy < .1000000D-05


 <geterg> : there is no data group $energy 

  MOs are in ASCII format !


 reading orbital data $scfmo  from file mos . 

 orbital characterization : expanded
 
 mo provided and orthogonalized by Cholesky decomposition

 DSCF restart information will be dumped onto file mos


 Starting SCF iterations


 ITERATION  ENERGY          1e-ENERGY        2e-ENERGY     RMS[dD(SAO)]   TOL
   1  -2407.1115158215    -20067.347719     9187.8672720    0.000D+00 0.118D-13
                            Exc = -338.242693097     Coul =  9526.10996506    
                              N = 407.99924182    
                            current damping = 0.700
 
          max. resid. norm for Fia-block=  3.340D-01 for orbital      1a         
          max. resid. fock norm         =  4.214D+00 for orbital   2358a         

 ITERATION  ENERGY          1e-ENERGY        2e-ENERGY     RMS[dD(SAO)]   TOL
   2  -2413.4299877682    -20130.339925     9244.5410058    0.168D-02 0.118D-13
                            Exc = -341.684034669     Coul =  9586.22504045    
                              N = 407.99934072    
                            current damping = 0.650
 
          Norm of current diis error:  5.9999    
          max. resid. norm for Fia-block=  1.573D-01 for orbital      3a         
          max. resid. fock norm         =  3.267D-01 for orbital   2443a         

 ITERATION  ENERGY          1e-ENERGY        2e-ENERGY     RMS[dD(SAO)]   TOL
   3  -2414.5912457582    -20146.212537     9259.2523596    0.921D-03 0.118D-13
                            Exc = -343.397037393     Coul =  9602.64939699    
                              N = 407.99942488    
                            current damping = 0.550
 
          Norm of current diis error:  3.0297    
          max. resid. norm for Fia-block=  6.732D-02 for orbital    187a         
          max. resid. fock norm         =  6.946D-02 for orbital    188a         

 ITERATION  ENERGY          1e-ENERGY        2e-ENERGY     RMS[dD(SAO)]   TOL
   4  -2414.9746032393    -20156.059188     9268.7156539    0.710D-03 0.118D-13
                            Exc = -343.682142759     Coul =  9612.39779661    
                              N = 407.99946056    
                            current damping = 0.450
 
          Norm of current diis error:  1.2845    
          max. resid. norm for Fia-block=  5.317D-02 for orbital     65a         
          max. resid. fock norm         =  8.683D-02 for orbital   2454a         

 ITERATION  ENERGY          1e-ENERGY        2e-ENERGY     RMS[dD(SAO)]   TOL
   5  -2415.0249710444    -20158.522052     9271.1281494    0.326D-03 0.118D-13
                            Exc = -344.410842712     Coul =  9615.53899208    
                              N = 407.99950388    
                            current damping = 0.350
 
          Norm of current diis error: 0.85032    
          max. resid. norm for Fia-block=  2.657D-02 for orbital    191a         
          max. resid. fock norm         =  3.269D-02 for orbital    191a         
          mo-orthogonalization: Cholesky decomposition

 ITERATION  ENERGY          1e-ENERGY        2e-ENERGY     RMS[dD(SAO)]   TOL
   6  -2415.0546882150    -20163.184844     9275.7612246    0.257D-03 0.118D-13
                            Exc = -344.379934398     Coul =  9620.14115899    
                              N = 407.99949805    
                            current damping = 0.250
 
          Norm of current diis error: 0.40792    
          max. resid. norm for Fia-block=  1.468D-02 for orbital    189a         
          max. resid. fock norm         =  2.331D-02 for orbital   2432a         

 ITERATION  ENERGY          1e-ENERGY        2e-ENERGY     RMS[dD(SAO)]   TOL
   7  -2415.0586491847    -20159.835518     9272.4079379    0.107D-03 0.118D-13
                            Exc = -344.299246739     Coul =  9616.70718466    
                              N = 407.99949915    
                            current damping = 0.300
 
          Norm of current diis error: 0.29011    
          max. resid. norm for Fia-block=  6.324D-03 for orbital    190a         
          max. resid. fock norm         =  1.013D-02 for orbital   2445a         

 ITERATION  ENERGY          1e-ENERGY        2e-ENERGY     RMS[dD(SAO)]   TOL
   8  -2415.0620255807    -20161.199566     9273.7686094    0.422D-04 0.118D-13
                            Exc = -344.364688357     Coul =  9618.13329778    
                              N = 407.99950134    
                            current damping = 0.350
 
          Norm of current diis error: 0.55889E-01
          max. resid. norm for Fia-block=  1.646D-03 for orbital    198a         
          max. resid. fock norm         =  2.923D-03 for orbital   2456a         

 ITERATION  ENERGY          1e-ENERGY        2e-ENERGY     RMS[dD(SAO)]   TOL
   9  -2415.0619941648    -20161.393442     9273.9625167    0.162D-04 0.118D-13
                            Exc = -344.384513484     Coul =  9618.34703019    
                              N = 407.99950158    
                            current damping = 0.400
 
          Norm of current diis error: 0.62726E-01
          max. resid. norm for Fia-block=  6.517D-04 for orbital    201a         
          max. resid. fock norm         =  1.127D-03 for orbital   2456a         

 ITERATION  ENERGY          1e-ENERGY        2e-ENERGY     RMS[dD(SAO)]   TOL
  10  -2415.0621271239    -20161.449900     9274.0188416    0.764D-05 0.118D-13
                            Exc = -344.377656896     Coul =  9618.39649850    
                              N = 407.99950130    
                            current damping = 0.250
 
          Norm of current diis error: 0.22115E-01
          max. resid. norm for Fia-block=  3.380D-04 for orbital    198a         
          max. resid. fock norm         =  5.840D-04 for orbital   2457a         
          mo-orthogonalization: Cholesky decomposition

 ITERATION  ENERGY          1e-ENERGY        2e-ENERGY     RMS[dD(SAO)]   TOL
  11  -2415.0621434188    -20161.345111     9273.9140361    0.399D-05 0.118D-13
                            Exc = -344.373617733     Coul =  9618.28765387    
                              N = 407.99950134    
                            current damping = 0.300
 
          Norm of current diis error: 0.79661E-02
          max. resid. norm for Fia-block=  1.705D-04 for orbital    189a         
          max. resid. fock norm         =  2.637D-04 for orbital   2432a         

 ITERATION  ENERGY          1e-ENERGY        2e-ENERGY     RMS[dD(SAO)]   TOL
  12  -2415.0621444254    -20161.365708     9273.9346324    0.201D-05 0.118D-13
                            Exc = -344.374234999     Coul =  9618.30886741    
                              N = 407.99950136    
                            current damping = 0.350
 
          Norm of current diis error: 0.61197E-02
          max. resid. norm for Fia-block=  9.626D-05 for orbital    194a         
          max. resid. fock norm         =  1.365D-04 for orbital   2454a         

 ITERATION  ENERGY          1e-ENERGY        2e-ENERGY     RMS[dD(SAO)]   TOL
  13  -2415.0621458384    -20161.365675     9273.9345983    0.889D-06 0.118D-13
                            Exc = -344.373762879     Coul =  9618.30836118    
                              N = 407.99950132    
                            current damping = 0.400
 
          Norm of current diis error: 0.15171E-02
          max. resid. norm for Fia-block=  3.893D-05 for orbital    198a         
          max. resid. fock norm         =  6.507D-05 for orbital   2415a         

 ITERATION  ENERGY          1e-ENERGY        2e-ENERGY     RMS[dD(SAO)]   TOL
  14  -2415.0621459121    -20161.361308     9273.9302303    0.327D-06 0.118D-13
                            Exc = -344.373839517     Coul =  9618.30406986    
                              N = 407.99950134    
                            current damping = 0.250
 
          Norm of current diis error: 0.70128E-03
          max. resid. norm for Fia-block=  1.628D-05 for orbital    198a         
          max. resid. fock norm         =  2.423D-05 for orbital   2474a         

 ITERATION  ENERGY          1e-ENERGY        2e-ENERGY     RMS[dD(SAO)]   TOL
  15  -2415.0621459260    -20161.361357     9273.9302803    0.127D-06 0.118D-13
                            Exc = -344.373876189     Coul =  9618.30415649    
                              N = 407.99950134    
                            current damping = 0.300
 
          Norm of current diis error: 0.36168E-03
          max. resid. norm for Fia-block=  6.863D-06 for orbital    190a         
          max. resid. fock norm         =  1.323D-05 for orbital   2443a         
          mo-orthogonalization: Cholesky decomposition

 DENSITY CONVERGED !


 ITERATION  ENERGY          1e-ENERGY        2e-ENERGY     RMS[dD(SAO)]   TOL
  16  -2415.0621459307    -20161.362287     9273.9312096    0.711D-07 0.118D-13
                            Exc = -344.373831934     Coul =  9618.30504157    
                              N = 407.99950133    
                            current damping = 0.150
 
          Norm of current diis error: 0.12829E-03
          max. resid. norm for Fia-block=  2.169D-06 for orbital    202a         
          max. resid. fock norm         =  4.139D-06 for orbital   2415a         

 DENSITY CONVERGED !


 ITERATION  ENERGY          1e-ENERGY        2e-ENERGY     RMS[dD(SAO)]   TOL
  17  -2415.0621459309    -20161.361874     9273.9307966    0.309D-07 0.118D-13
                            Exc = -344.373833082     Coul =  9618.30462964    
                              N = 407.99950134    
                            current damping = 0.200
 
          Norm of current diis error: 0.97266E-04
          max. resid. norm for Fia-block=  1.274D-06 for orbital    189a         
          max. resid. fock norm         =  2.428D-06 for orbital   2444a         

 DENSITY CONVERGED !


 ITERATION  ENERGY          1e-ENERGY        2e-ENERGY     RMS[dD(SAO)]   TOL
  18  -2415.0621459312    -20161.362083     9273.9310057    0.164D-07 0.118D-13
                            Exc = -344.373843670     Coul =  9618.30484940    
                              N = 407.99950134    
                            current damping = 0.250
 
          Norm of current diis error: 0.28242E-04
          max. resid. norm for Fia-block=  5.942D-07 for orbital    189a         
          max. resid. fock norm         =  1.035D-06 for orbital   2444a         

 DENSITY CONVERGED !


 ITERATION  ENERGY          1e-ENERGY        2e-ENERGY     RMS[dD(SAO)]   TOL
  19  -2415.0621459312    -20161.361967     9273.9308902    0.640D-08 0.118D-13
                            Exc = -344.373837381     Coul =  9618.30472757    
                              N = 407.99950134    
                            current damping = 0.300
 
          Norm of current diis error: 0.17090E-04
          max. resid. norm for Fia-block=  3.294D-07 for orbital    203a         
          max. resid. fock norm         =  5.144D-07 for orbital   2449a         

 DENSITY CONVERGED !


 ITERATION  ENERGY          1e-ENERGY        2e-ENERGY     RMS[dD(SAO)]   TOL
  20  -2415.0621459313    -20161.362026     9273.9309485    0.333D-08 0.118D-13
                            Exc = -344.373838133     Coul =  9618.30478659    
                              N = 407.99950134    
                            current damping = 0.350
 
          Norm of current diis error: 0.85007E-05
          max. resid. norm for Fia-block=  1.260D-07 for orbital    203a         
          max. resid. fock norm         =  1.872D-07 for orbital   2444a         
          mo-orthogonalization: Cholesky decomposition

 ENERGY & DENSITY CONVERGED !


 ITERATION  ENERGY          1e-ENERGY        2e-ENERGY     RMS[dD(SAO)]   TOL
  21  -2415.0621704679    -20161.362024     9273.9309223    0.153D-08 0.118D-13
                            Exc = -344.373863754     Coul =  9618.30478609    
                              N = 407.99993320    
                            current damping = 0.400
 
          Norm of current diis error: 0.29533E-05
          max. resid. norm for Fia-block=  6.134D-08 for orbital    198a         
          max. resid. fock norm         =  1.151D-07 for orbital   2474a         

 End of SCF iterations

   convergence criteria satisfied after   21 iterations


                  ------------------------------------------ 
                 |  total energy      =  -2415.06217046790  |
                  ------------------------------------------ 
                 :  kinetic energy    =   2398.78402595519  :
                 :  potential energy  =  -4813.84619642309  :
                 :  virial theorem    =      1.99325974101  :
                 :  wavefunction norm =      1.00000000000  :
                  .......................................... 


 <geterg> : there is no data group $energy 


 <skperg> : $end is missing 


 orbitals $scfmo  will be written to file mos

    irrep                200a        201a        202a        203a        204a   
 eigenvalues H         -0.19647    -0.19198    -0.18627    -0.18391    -0.17640
            eV          -5.3461     -5.2242     -5.0688     -5.0044     -4.8002
 occupation              2.0000      2.0000      2.0000      2.0000      2.0000 

    irrep                205a        206a        207a        208a        209a   
 eigenvalues H         -0.06157    -0.05763    -0.04437    -0.02866    -0.01579
            eV          -1.6755     -1.5682     -1.2073     -0.7798     -0.4296
 
 
 ! grave: sending quit signal to master process
 
 
 
 
 ==============================================================================
                           electrostatic moments
 ==============================================================================

 reference point for electrostatic moments:    0.00000   0.00000   0.00000

 
              nuc           elec       ->  total
 ------------------------------------------------------------------------------
                          charge      
 ------------------------------------------------------------------------------
         408.000000    -408.000000      -0.000000
 
 ------------------------------------------------------------------------------
                       dipole moment  
 ------------------------------------------------------------------------------
   x       5.634103      -5.305919       0.328183
   y      -1.011441       0.857441      -0.154000
   z    -330.310768     329.037415      -1.273353
 
   | dipole moment | =     1.3240 a.u. =     3.3651 debye 
 
 ------------------------------------------------------------------------------
                     quadrupole moment
 ------------------------------------------------------------------------------
  xx   14716.874194  -14971.236260    -254.362066
  yy    9896.533296  -10126.913052    -230.379756
  zz    9776.764783  -10046.014883    -269.250100
  xy    -263.665974     255.054972      -8.611002
  xz     171.014378    -169.955241       1.059136
  yz    -158.188747     157.744768      -0.443979
 
     1/3  trace=    -251.330641
     anisotropy=      37.151836
 
 ==============================================================================
 

    ridft profiling
  --------------------------------------------------------------------
             module   cpu total (s)       %  wall total (s)       %

               RIDFT          4048.5  100.00          4050.9  100.00
         Ridft_b_scf          1397.4   34.52          1396.4   34.47
        b_scf_prelim             0.0    0.00             0.0    0.00
        b_scf_molinp             0.0    0.00             0.0    0.00
         b_scf_init0             0.0    0.00             0.0    0.00
        b_scf_auxbas             0.0    0.00             0.0    0.00
      b_scf_symmetry             0.0    0.00             0.0    0.00
         b_scf_cosmo             0.0    0.00             0.0    0.00
        b_scf_params          1314.6   32.47          1313.6   32.43
          b_scf_ri-j            61.4    1.52            61.3    1.51
    b_scf_ri-j_auxpq            61.3    1.51            61.3    1.51
     ri-j_auxpq_chol             3.4    0.08             3.4    0.08
         b_scf_1elec             2.3    0.06             2.3    0.06
       b_scf_moinput            19.1    0.47            19.1    0.47
     moinput_orthmos            18.8    0.46            18.7    0.46
    b_scf_dft-dstmax             0.0    0.00             0.0    0.00
           Ridft_scf          2650.2   65.46          2653.6   65.51
          Scf_b_loop             0.0    0.00             0.0    0.00
                noga             0.0    0.00             0.0    0.00
            Scf_loop          2647.7   65.40          2651.1   65.45
     scf_loop_mkdmat            10.3    0.26            10.3    0.25
       scf_loop_ri-j           334.5    8.26           334.2    8.25
      parlp1.bc.dens             1.5    0.04             1.5    0.04
        parlp1.gs.gp             5.0    0.12             5.0    0.12
        parlp2.bc.gq             0.0    0.00             0.0    0.00
        scf_loop_dft          1993.7   49.25          1997.2   49.30
      pardft.bc.dens             0.0    0.00             0.0    0.00
        dft_grid_con             7.4    0.18             7.4    0.18
           dft_xcrhf          1933.8   47.77          1937.3   47.83
          dft_getval           534.9   13.21           537.3   13.26
          funct2 dst             3.0    0.08             3.1    0.08
      funct2 f2loop1           103.5    2.56           103.7    2.56
      funct2 f2loop2           387.8    9.58           389.6    9.62
          funct2 s+c            34.7    0.86            35.1    0.87
        funct2 cmf_2            32.6    0.81            33.1    0.82
          dft_mkdens           549.0   13.56           549.6   13.57
         dft_gga-fun             1.0    0.02             1.0    0.02
          dft_mkfock           787.2   19.44           787.6   19.44
     pardft.red.fock           206.7    5.11           207.1    5.11
     scf_loop_energy             0.1    0.00             0.1    0.00
     scf_loop_mkfock             0.2    0.00             0.2    0.00
       scf_loop_diis           124.9    3.09           124.9    3.08
       scf_loop_diag           113.2    2.80           113.1    2.79
         diag_tritrn            40.2    0.99            40.1    0.99
          diag_rdiag            72.7    1.80            72.6    1.79
     scf_loop_modump            44.0    1.09            44.3    1.09
      scf_loop_ortho            25.0    0.62            25.0    0.62
          Scf_a_loop             2.4    0.06             2.5    0.06
         Ridft_a_scf             0.9    0.02             0.9    0.02
         a_scf_fanal             0.7    0.02             0.7    0.02
 


    ------------------------------------------------------------------------
         total  cpu-time :  1 hours  7 minutes and 31 seconds
         total wall-time :  1 hours  7 minutes and 34 seconds
    ------------------------------------------------------------------------


   ****  ridft : all done  ****


    2017-11-09 11:43:30.929 

