
   OpenMP run-time library returned nthreads = 16
 operating system is UNIX !

 dscf (c-3-41) : TURBOMOLE V7.3 ( 22142 ) 4 Jul 2018 at 18:12:42
 Copyright (C) 2018 TURBOMOLE GmbH, Karlsruhe


    2019-04-03 02:32:15.088 



                             d s c f - program

                   idea & directorship : reinhart ahlrichs
                   program development : marco haeser
                                         michael baer
                           dft version : oliver treutler


                          quantum chemistry group
                          universitaet  karlsruhe
                                  germany




                          References             
                                                 
          TURBOMOLE:                             
              R. Ahlrichs, M. Baer, M. Haeser, H. Horn, and
              C. Koelmel
              Electronic structure calculations on workstation
              computers: the program system TURBOMOLE
              Chem. Phys. Lett. 162: 165 (1989)
          Density Functional:                              
              O. Treutler and R. Ahlrichs                      
              Efficient Molecular Numerical Integration Schemes
              J. Chem. Phys. 102: 346 (1995)                   
          Parallel Version:                                
              Performance of parallel TURBOMOLE for Density    
              Functional Calculations                          
              M. v. Arnim and R. Ahlrichs                      
              J. Comp. Chem. 19: 1746 (1998)                   
                                         




              +--------------------------------------------------+
              | Atomic coordinate, charge and isotop information |
              +--------------------------------------------------+

                    atomic coordinates            atom    charge  isotop
          0.36987532   -1.59623135    1.55684410    n      7.000     0
          0.85112799   -3.39537099    1.98377392    h      1.000     0
         -2.22808008   -1.08410641    1.43521579    c      6.000     0
         -3.76744541   -2.75194253    1.82717744    o      8.000     0
         -2.79058637    1.53286207    0.82686765    c      6.000     0
         -4.73632628    2.10827408    0.68766131    h      1.000     0
         -0.88460499    3.18033812    0.44387935    c      6.000     0
         -1.20646772    5.14315983   -0.01164846    h      1.000     0
          1.59800634    2.46796558    0.61762016    n      7.000     0
          3.00408357    3.72064255    0.35141308    h      1.000     0
          2.37021068    0.03677760    1.20232686    c      6.000     0
          4.57749189   -0.57016135    1.38305178    o      8.000     0
          1.99691733   -1.63179800    8.31242086    c      6.000     0
          2.85457428   -1.80575909    6.44540440    h      1.000     0
          3.02587794   -2.88653887    9.57702118    h      1.000     0
          2.09955492    1.13844980    9.13055129    c      6.000     0
          3.91046056    2.03209928    8.73234010    h      1.000     0
          1.74406855    1.29272240   11.15864909    h      1.000     0
         -0.10641987    2.29650134    7.67400481    c      6.000     0
          0.41194009    2.46427425    5.68323196    h      1.000     0
         -0.64388524    4.16948662    8.33849680    h      1.000     0
         -2.21713907    0.33577458    7.99720149    c      6.000     0
         -3.58820960    0.38039830    6.46393078    h      1.000     0
         -3.24531190    0.72259615    9.73999880    h      1.000     0
         -0.85079839   -2.24662656    8.19308462    c      6.000     0
         -1.30936793   -3.46390523    6.59936580    h      1.000     0
         -1.44626286   -3.24327269    9.89211172    h      1.000     0
 
       center of nuclear mass  :    0.04821890    0.04989841    3.90307206
       center of nuclear charge:    0.04302214    0.08278725    4.05957296

              +--------------------------------------------------+
              |               basis set information              |
              +--------------------------------------------------+

              we will work with the 1s 3p 5d 7f 9g ... basis set
              ...i.e. with spherical basis functions...

   type   atoms  prim   cont   basis
   ---------------------------------------------------------------------------
    n        2     77     57   def2-QZVP   [7s4p3d2f1g|15s8p3d2f1g]
    h       14     33     30   def2-QZVP   [4s3p2d1f|7s3p2d1f]
    c        9     77     57   def2-QZVP   [7s4p3d2f1g|15s8p3d2f1g]
    o        2     77     57   def2-QZVP   [7s4p3d2f1g|15s8p3d2f1g]
   ---------------------------------------------------------------------------
   total:   27   1463   1161
   ---------------------------------------------------------------------------

   total number of primitive shells          :  100
   total number of contracted shells         :  361
   total number of cartesian basis functions : 1426
   total number of SCF-basis functions       : 1161


 integral neglect threshold       :  0.23E-13
 integral storage threshold THIZE :  0.10E-04
 integral storage threshold THIME :         5


 DENSITY CONVERGENCE CHECK SWITCHED ON !
 SCF CONVERGENCE IF RMS(delta[D]) <     0.1000000000E-06


 symmetry group of the molecule :   c1 

 the group has the following generators :
   c1(z)

    1 symmetry operations found

 there are 1 real representations :   a   

 maximum number of shells which are related by symmetry :  1


    mo occupation :
   irrep   mo's   occupied
    a     1161       49
 
 number of basis functions   :                   1161
 number of occupied orbitals :                     49
 

 automatic virtual orbital shift switched on 
      shift if e(lumo)-e(homo) < 0.10000000    


          ------------------------
          nuclear repulsion energy  :   830.516595447    
          ------------------------


         -----------------
         -S,T+V- integrals
         -----------------

 1e-integrals will be neglected if expon. factor < 0.234359E-14
 
   Difference densities algorithm switched on.
   The maximal number of linear combinations of
   difference densities is                    20 .

 DIIS switched on: error vector is FDS-SDF
 Max. Iterations for DIIS is     :   5
 DIIS matrix (see manual) 
    Scaling factor of diagonals  :  1.200
    threshold for scaling factor :  0.000

 scf convergence criterion : increment of total energy < .1000000D-08
                  and increment of one-electron energy < .1000000D-05

  MOs are in ASCII format !


 reading orbital data $scfmo  from file mos
 orbital characterization : scfconv=9

 DSCF restart information will be dumped onto file mos

 
                                              current damping :  0.700
 ITERATION  ENERGY          1e-ENERGY        2e-ENERGY     RMS[dD(SAO)]   TOL
   1  -607.74029034509    -2477.9652038     1039.7083180    0.000D+00 0.234D-13
          max. resid. norm for Fia-block=  2.612D-01 for orbital      2a         
          max. resid. fock norm         =  8.016D-01 for orbital   1161a         
          Delta Eig. =    62.2319491310 eV 
 
                                              current damping :  0.650
 ITERATION  ENERGY          1e-ENERGY        2e-ENERGY     RMS[dD(SAO)]   TOL
   2  -607.85969638174    -2476.0899214     1037.7136295    0.601D-03 0.154D-13
          Norm of current diis error:  1.1048    
          max. resid. norm for Fia-block=  1.130D-01 for orbital      2a         
          max. resid. fock norm         =  3.305D-01 for orbital   1161a         
          Delta Eig. =    26.8727190250 eV 
 
                                              current damping :  0.600
 ITERATION  ENERGY          1e-ENERGY        2e-ENERGY     RMS[dD(SAO)]   TOL
   3  -607.88462164977    -2476.5648042     1038.1635871    0.283D-03 0.115D-13
          Norm of current diis error: 0.49796    
          max. resid. norm for Fia-block=  4.773D-02 for orbital      2a         
          max. resid. fock norm         =  1.278D-01 for orbital   1160a         
          Delta Eig. =    10.0254263521 eV 
 
                                              current damping :  0.650
 ITERATION  ENERGY          1e-ENERGY        2e-ENERGY     RMS[dD(SAO)]   TOL
   4  -607.89056740144    -2476.3591007     1037.9519379    0.136D-03 0.102D-13
          Norm of current diis error: 0.20361    
          max. resid. norm for Fia-block=  1.728D-02 for orbital      1a         
          max. resid. fock norm         =  4.968D-02 for orbital   1161a         
          Delta Eig. =     4.1479929349 eV 
 
                                              current damping :  0.500
 ITERATION  ENERGY          1e-ENERGY        2e-ENERGY     RMS[dD(SAO)]   TOL
   5  -607.89166944241    -2476.3469195     1037.9386546    0.507D-04 0.945D-14
          Norm of current diis error: 0.89512E-01
          max. resid. norm for Fia-block=  6.973D-03 for orbital      2a         
          max. resid. fock norm         =  1.917D-02 for orbital   1160a         
 mo-orthogonalization: Cholesky decomposition
          Delta Eig. =     1.6623586185 eV 
 
                                              current damping :  0.350
 ITERATION  ENERGY          1e-ENERGY        2e-ENERGY     RMS[dD(SAO)]   TOL
   6  -607.89193584304    -2476.3373880     1037.9288567    0.260D-04 0.884D-14
          Norm of current diis error: 0.36819E-01
          max. resid. norm for Fia-block=  2.275D-03 for orbital      1a         
          max. resid. fock norm         =  6.450D-03 for orbital   1161a         
          Delta Eig. =     0.6391523056 eV 
 
                                              current damping :  0.200
 ITERATION  ENERGY          1e-ENERGY        2e-ENERGY     RMS[dD(SAO)]   TOL
   7  -607.89199626866    -2476.3321761     1037.9235844    0.117D-04 0.824D-14
          Norm of current diis error: 0.14250E-01
          max. resid. norm for Fia-block=  9.158D-04 for orbital     30a         
          max. resid. fock norm         =  1.652D-03 for orbital   1160a         
          Delta Eig. =     0.1796047712 eV 
 
                                              current damping :  0.050
 ITERATION  ENERGY          1e-ENERGY        2e-ENERGY     RMS[dD(SAO)]   TOL
   8  -607.89200886381    -2476.3310967     1037.9224924    0.508D-05 0.769D-14
          Norm of current diis error: 0.52008E-02
          max. resid. norm for Fia-block=  4.159D-04 for orbital     49a         
          max. resid. fock norm         =  4.612D-04 for orbital     51a         
          Delta Eig. =     0.0396050831 eV 
 
                                              current damping :  0.050
 ITERATION  ENERGY          1e-ENERGY        2e-ENERGY     RMS[dD(SAO)]   TOL
   9  -607.89201110645    -2476.3310566     1037.9224501    0.212D-05 0.721D-14
          Norm of current diis error: 0.17450E-02
          max. resid. norm for Fia-block=  1.332D-04 for orbital     49a         
          max. resid. fock norm         =  1.501D-04 for orbital     51a         
          Delta Eig. =     0.0077031052 eV 
 
                                              current damping :  0.050
 ITERATION  ENERGY          1e-ENERGY        2e-ENERGY     RMS[dD(SAO)]   TOL
  10  -607.89201133016    -2476.3306593     1037.9220526    0.709D-06 0.691D-14
          Norm of current diis error: 0.73189E-03
          max. resid. norm for Fia-block=  5.747D-05 for orbital     48a         
          max. resid. fock norm         =  7.322D-05 for orbital     48a         
 mo-orthogonalization: Cholesky decomposition
          Delta Eig. =     0.0045322326 eV 
 
                                              current damping :  0.100
 ITERATION  ENERGY          1e-ENERGY        2e-ENERGY     RMS[dD(SAO)]   TOL
  11  -607.89201135689    -2476.3310935     1037.9224867    0.207D-06 0.676D-14
          Norm of current diis error: 0.37961E-03
          max. resid. norm for Fia-block=  1.846D-05 for orbital     46a         
          max. resid. fock norm         =  2.930D-05 for orbital   1104a         
          Delta Eig. =     0.0015924014 eV 
 
                                              current damping :  0.150
 ITERATION  ENERGY          1e-ENERGY        2e-ENERGY     RMS[dD(SAO)]   TOL
  12  -607.89201136279    -2476.3309494     1037.9223426    0.101D-06 0.663D-14
          Norm of current diis error: 0.86579E-04
          max. resid. norm for Fia-block=  8.385D-06 for orbital     48a         
          max. resid. fock norm         =  8.483D-06 for orbital     48a         
          Delta Eig. =     0.0000949837 eV 

 DENSITY CONVERGED !

 
                                              current damping :  0.200
 ITERATION  ENERGY          1e-ENERGY        2e-ENERGY     RMS[dD(SAO)]   TOL
  13  -607.89201136351    -2476.3309957     1037.9223889    0.364D-07 0.649D-14
          Norm of current diis error: 0.40943E-04
          max. resid. norm for Fia-block=  4.182D-06 for orbital     48a         
          max. resid. fock norm         =  4.214D-06 for orbital     48a         
          Delta Eig. =     0.0000687275 eV 

 DENSITY CONVERGED !

 
                                              current damping :  0.250
 ITERATION  ENERGY          1e-ENERGY        2e-ENERGY     RMS[dD(SAO)]   TOL
  14  -607.89201136366    -2476.3309831     1037.9223763    0.183D-07 0.667D-14
          Norm of current diis error: 0.18322E-04
          max. resid. norm for Fia-block=  2.068D-06 for orbital     48a         
          max. resid. fock norm         =  2.092D-06 for orbital     48a         
          Delta Eig. =     0.0000418283 eV 

 DENSITY CONVERGED !

 
                                              current damping :  0.300
 ITERATION  ENERGY          1e-ENERGY        2e-ENERGY     RMS[dD(SAO)]   TOL
  15  -607.89201136371    -2476.3309955     1037.9223886    0.931D-08 0.666D-14
          Norm of current diis error: 0.76221E-05
          max. resid. norm for Fia-block=  8.921D-07 for orbital     48a         
          max. resid. fock norm         =  8.973D-07 for orbital     48a         
 mo-orthogonalization: Cholesky decomposition
          Delta Eig. =     0.0000183331 eV 

 ENERGY & DENSITY CONVERGED !

 
                                              current damping :  0.350
 ITERATION  ENERGY          1e-ENERGY        2e-ENERGY     RMS[dD(SAO)]   TOL
  16  -607.89201136370    -2476.3309926     1037.9223858    0.414D-08 0.666D-14
          max. resid. norm for Fia-block=  1.692D-07 for orbital     48a         
          max. resid. fock norm         =  1.752D-07 for orbital     48a         

 convergence criteria satisfied after    16 iterations


                  ------------------------------------------ 
                 |  total energy      =   -607.89201136370  |
                  ------------------------------------------ 
                 :  kinetic energy    =    607.22900915294  :
                 :  potential energy  =  -1215.12102051664  :
                 :  virial theorem    =      1.99890934212  :
                 :  wavefunction norm =      1.00000000000  :
                  .......................................... 


 orbitals $scfmo  will be written to file mos

    irrep                 45a         46a         47a         48a         49a   
 eigenvalues H         -0.45876    -0.45191    -0.44580    -0.43753    -0.37009
            eV         -12.4836    -12.2973    -12.1310    -11.9060    -10.0708
 occupation              2.0000      2.0000      2.0000      2.0000      2.0000 

    irrep                 50a         51a         52a         53a         54a   
 eigenvalues H          0.07109     0.08083     0.10870     0.11190     0.11665
            eV           1.9344      2.1996      2.9580      3.0449      3.1741
 
 
 
 
 ==============================================================================
                           electrostatic moments
 ==============================================================================

 reference point for electrostatic moments:    0.00000   0.00000   0.00000

 
              nuc           elec       ->  total
 ------------------------------------------------------------------------------
                          charge      
 ------------------------------------------------------------------------------
          98.000000     -98.000000      -0.000000
 
 ------------------------------------------------------------------------------
                       dipole moment  
 ------------------------------------------------------------------------------
   x       4.216170      -4.217049      -0.000879
   y       8.113150      -6.257530       1.855620
   z     397.838150    -398.285847      -0.447697
 
   | dipole moment | =     1.9089 a.u. =     4.8518 debye 
 
 ------------------------------------------------------------------------------
                     quadrupole moment
 ------------------------------------------------------------------------------
  xx     596.275654    -665.713565     -69.437911
  yy     412.163569    -465.791324     -53.627755
  zz    2861.026776   -2920.753735     -59.726959
  xy      50.588158     -53.101569      -2.513411
  xz      69.443444     -69.253629       0.189815
  yz     -61.686727      62.039282       0.352555
 
     1/3  trace=     -60.930875
     anisotropy=      14.497056
 
 ==============================================================================
 


    ------------------------------------------------------------------------
         total  cpu-time :  9 hours 58 minutes and 59 seconds
         total wall-time : 38 minutes and 13 seconds
    ------------------------------------------------------------------------

   ****  dscf : all done  ****


    2019-04-03 03:10:28.475 

