Using Slurm to start processes with PMI2
STARTING ridft ON 8 PROCESSORS!
RUNNING PROGRAM /beegfs/modfac/apps/TURBOMOLE/7.0_intel_GA/bin/em64t-unknown-linux-gnu_mpi/ridft_mpi.
PLEASE WAIT UNTIL ridft HAS FINISHED.
Look for the output in slave1.output.
  this is node-proc. number 1 running on node c-5-24.local
  the total number of node-proc. spawned is            8
  parallel platform: MPP, or cluster with fast interconnect

 ridft (c-5-24.local) : TURBOMOLE V7.0.2( ) 15 Jan 2016 at 17:47:42
 Copyright (C) 2016 TURBOMOLE GmbH, Karlsruhe


    2017-11-20 19:11:15.299 



                                  r i d f t

                        DFT program with RI approximation 
                                for coulomb part 




                                                 
                                 References:     
                                                 
          TURBOMOLE:                             
              R. Ahlrichs, M. Baer, M. Haeser, H. Horn, and
              C. Koelmel
              Electronic structure calculations on workstation
              computers: the program system TURBOMOLE
              Chem. Phys. Lett. 162: 165 (1989)
          Density Functional:                              
              O. Treutler and R. Ahlrichs                      
              Efficient Molecular Numerical Integration Schemes
              J. Chem. Phys. 102: 346 (1995)                   
          Parallel Version:                                
              Performance of parallel TURBOMOLE for Density    
              Functional Calculations                          
              M. v. Arnim and R. Ahlrichs                      
              J. Comp. Chem. 19: 1746 (1998)                   
          RI-J Method:                                     
              Auxiliary Basis Sets to approximate Coulomb      
              Potentials                                       
              Chem. Phys. Lett. 240: 283 (1995)                
              K. Eichkorn, O. Treutler, H. Oehm, M. Haeser     
              and R. Ahlrichs                                  
              Chem. Phys. Lett. 242: 652 (1995)                
                                                           
              Auxiliary Basis Sets for Main Row Atoms and their
              Use to approximate Coulomb Potentials            
              K. Eichkorn, F. Weigend, O. Treutler and         
              R. Ahlrichs                                      
              Theo. Chem. Acc. 97: 119 (1997)                   
                                                           
              Accurate Coulomb-fitting basis sets for H to Rn 
              F. Weigend                                        
              Phys. Chem. Chem. Phys. 8: 1057 (2006)            
                                                           
          Multipole accelerated RI-J (MARI-J):             
              Fast evaluation of the Coulomb potential for     
              electron densities using multipole accelerated   
              resolution of identity approximation             
              M. Sierka, A. Hogekamp and R. Ahlrichs           
              J. Chem. Phys. 118: 9136 (2003)                  
          RI-JK Method:                                     
              A fully direct RI-HF algorithm: Implementation,
              optimised auxiliary basis sets, demonstration of
              accuracy and efficiency                         
              F. Weigend                                      
              Phys. Chem. Chem. Phys. 4: 4285 (2002)           
          Two-component HF and DFT with spin-orbit coupling:  
              Self-consistent treatment of spin-orbit         
              interactions with efficient Hartree-Fock and    
              density functional methods                      
              M. K. Armbruster, F. Weigend, C. van Wüllen and 
              W. Klopper                                      
              Phys. Chem. Chem. Phys. 10: 1748 (2008)         
          Relativistic all-electron 2c calculations           
              An efficient implementation of two-component    
              relativistic exact-decoupling methods for large 
              molecules                                       
              D. Peng, N. Middendorf, F. Weigend, M. Reiher   
              J. Chem. Phys. 138, 184105 (2013)               
                                         


 


              +--------------------------------------------------+
              |      general information about current run       |
              +--------------------------------------------------+

 

 SCF run will be profiled !


 DENSITY CONVERGENCE CHECK SWITCHED ON !
 SCF CONVERGENCE IF RMS(delta[D]) <     0.1000000000E-06

 PBE functional
 exchange:    LDA + PBE
 correlation: LDA (PW) + PBE
 A DFT calculation using the RI-J approximation will be carried out.
 Allocatable memory for RI due to $ricore (MB):       13000


              +--------------------------------------------------+
              | Atomic coordinate, charge and isotop information |
              +--------------------------------------------------+

                    atomic coordinates            atom    charge  isotop
          7.50692779    0.49846164    2.36346490    c      6.000     0
          8.62078804    0.33290276   -2.00597125    c      6.000     0
          5.95819788   -0.05647426   -3.01401356    c      6.000     0
          4.67770151    0.14224075    2.00197627    c      6.000     0
          3.96939402   -1.75974743   -0.77643697    s     16.000     0
          8.64833883    1.79137476    0.27536561    o      8.000     0
          3.86277564   -0.88265374    3.59788085    h      1.000     0
          6.00096551   -1.22493620   -4.71658316    h      1.000     0
          5.08432889    1.76184990   -3.46516245    h      1.000     0
          3.72100414    1.96827378    1.84572995    h      1.000     0
          8.44060540   -1.33869743    2.63880990    h      1.000     0
          9.54137452   -1.49520974   -1.65532081    h      1.000     0
          9.75438189    1.40172679   -3.36242583    h      1.000     0
          7.87100102    1.69123866    4.01077685    h      1.000     0
 
       center of nuclear mass  :    6.16111026   -0.14256489   -0.28286864
       center of nuclear charge:    6.20634184   -0.11501042   -0.27238613

              +--------------------------------------------------+
              |               basis set information              |
              +--------------------------------------------------+

              we will work with the 1s 3p 5d 7f 9g ... basis set
              ...i.e. with spherical basis functions...

   type   atoms  prim   cont   basis
   ---------------------------------------------------------------------------
    c        4     77     55   cc-pVQZ   [5s4p3d2f1g|21s6p3d2f1g]
    s        1    137     59   cc-pVQZ   [6s5p3d2f1g|42s19p3d2f1g]
    o        1     77     55   cc-pVQZ   [5s4p3d2f1g|21s6p3d2f1g]
    h        8     32     30   cc-pVQZ   [4s3p2d1f|6s3p2d1f]
   ---------------------------------------------------------------------------
   total:   14    778    574
   ---------------------------------------------------------------------------

   total number of primitive shells          :  145
   total number of contracted shells         :  172
   total number of cartesian basis functions :  704
   total number of SCF-basis functions       :  574


 integral neglect threshold       :  0.47E-13
 integral storage threshold THIZE :  0.10E-04
 integral storage threshold THIME :         5

 RI-J AUXILIARY BASIS SET information:

              we will work with the 1s 3p 5d 7f 9g ... basis set
              ...i.e. with spherical basis functions...

   type   atoms  prim   cont   basis
   ---------------------------------------------------------------------------
    c        4     70     49   cc-pVQZ   [6s4p3d1f1g|12s5p4d2f1g]
    s        1     77     51   cc-pVQZ   [8s4p3d1f1g|14s5p5d2f1g]
    o        1     70     49   cc-pVQZ   [6s4p3d1f1g|12s5p4d2f1g]
    h        8     16     11   cc-pVQZ   [3s1p1d|5s2p1d]
   ---------------------------------------------------------------------------
   total:   14    555    384
   ---------------------------------------------------------------------------

   total number of primitive shells          :   83
   total number of contracted shells         :  132
   total number of cartesian basis functions :  464
   total number of SCF-basis functions       :  384


 symmetry group of the molecule :   c1 

 the group has the following generators :
   c1(z)

    1 symmetry operations found

 there are 1 real representations :   a   

 maximum number of shells which are related by symmetry :  1


    mo occupation :
   irrep   mo's   occupied
    a      574       28
 
 number of basis functions   :          574
 number of occupied orbitals :           28
 
  
           ------------------
           density functional
           ------------------
 PBE functional
 exchange:    LDA + PBE
 correlation: LDA (PW) + PBE
 grinp -> nfun, dfgga, dfhybrid 
           6 T F
 iterations will be done with small grid
  
 spherical integration : Lebedev's spherical grid
 spherical gridsize    :           5
    i.e. gridpoints    :         590
 value for diffuse not defined
 radial integration    : Chebyshev 2nd kind (scaling 3)
 radial gridsize       :           8
 integration cells     :          14
 partition function    : becke
 partition sharpness   :           3
  

 <rddim> : input of entry tasksize
           from data group '$pardft' failed !

               Default values taken

 <rddim> : input of entry memdiv
           from data group '$pardft' failed !

               Default values taken
  RIDFT: memory allocation for DFT gridpoints
  MEMORY is divided by 1 as DEFAULT
 Each node can hold at most  the            1 -th part
 of the gridpoints    

 biggest AO integral is expected to be     9.680000706
  
           ------------------------
               RI-J - INFORMATION
           ------------------------
 
 
 **************************************************
 *      MEMORY ALLOCATION FOR PARALLEL RI-DFT     *
 **************************************************
 
 
MEMORY FOR (MU NU/ ALPHA), SEQUENTIAL RUN              12999 MByte
 
            DIFFERENCE IN MEMORY NEED:       DIAG./SLAVE  
 
      TOTAL DIFFERENCE :                     15 MByte
 
      difference in xcore:                    2 MByte
      difference in fatmat:                   5 MByte
      getcor calls skipped by slaves:         9 MByte
 
 
           Integral memory available for diagonal.     12999 MByte
 
           Integral memory available for slave             0 MByte
 
         MEMORY FOR (MU NU/ ALPHA) ON DIAGONALIZER     12999 MByte
 
         MEMORY FOR (MU NU/ ALPHA) ON ONE SLAVE            0 MByte
 
         TOTAL MEMORY FOR (MU NU/ ALPHA),ALL NODES     12999 MByte
 
 Contributions to RI integral batches: 
  neglected integral batches:        1524
  direct contribution:                  0
  memory contribution:       13354
 Memory core needed for (P|Q) and Cholesky      2 MByte
 Memory core minimum needed except of (P|Q)     2 MByte
 Total minimum memory core needed (sum)         4 MByte
  
 ****************************************
 Memory allocated for RI-J 13002 MByte
 ****************************************
                                            

          ------------------------
          nuclear repulsion energy  :   316.121812946    
          ------------------------

 
          -----------------
          -S integrals
          -----------------

 1e-integrals will be neglected if expon. factor < 0.474710E-14
 
          -----------------
          -T+V integrals
          -----------------

 1e-integrals will be neglected if expon. factor < 0.474710E-14
 Difference densities >>NOT<< switched on in parallel ridft!

 automatic virtual orbital shift switched on 
      shift if e(lumo)-e(homo) < 0.10000000    


 DIIS switched on: error vector is FDS-SDF
 Max. Iterations for DIIS is     :   4
 DIIS matrix (see manual) 
    Scaling factor of diagonals  :  1.200
    threshold for scaling factor :  0.000

 scf convergence criterion : increment of total energy < .1000000D-08
                  and increment of one-electron energy < .1000000D-05


 <geterg> : there is no data group $energy 

  MOs are in ASCII format !


 reading orbital data $scfmo  from file mos . 

 orbital characterization : expanded
 
 mo provided and orthogonalized by Cholesky decomposition

 DSCF restart information will be dumped onto file mos


 Starting SCF iterations


 ITERATION  ENERGY          1e-ENERGY        2e-ENERGY     RMS[dD(SAO)]   TOL
   1  -628.94960120151    -1488.2964164     543.22500222    0.000D+00 0.473D-13
                            Exc = -58.4091705376     Coul =  601.634172757    
                              N = 56.000017140    
                            current damping = 0.700
 
          max. resid. norm for Fia-block=  2.326D+00 for orbital      1a         
          max. resid. fock norm         =  1.074D+01 for orbital    512a         

 ITERATION  ENERGY          1e-ENERGY        2e-ENERGY     RMS[dD(SAO)]   TOL
   2  -630.07687132278    -1490.6770086     544.47832432    0.596D-02 0.473D-13
                            Exc = -58.3547454746     Coul =  602.833069797    
                              N = 56.000001031    
                            current damping = 0.650
 
          Norm of current diis error:  2.5755    
          max. resid. norm for Fia-block=  9.154D-01 for orbital      1a         
          max. resid. fock norm         =  1.058D+00 for orbital      1a         

 ITERATION  ENERGY          1e-ENERGY        2e-ENERGY     RMS[dD(SAO)]   TOL
   3  -630.23898613884    -1491.8609992     545.50020014    0.218D-02 0.473D-13
                            Exc = -58.4854050887     Coul =  603.985605228    
                              N = 55.999994270    
                            current damping = 0.550
 
          Norm of current diis error:  1.2738    
          max. resid. norm for Fia-block=  3.529D-01 for orbital      1a         
          max. resid. fock norm         =  4.081D-01 for orbital      1a         

 ITERATION  ENERGY          1e-ENERGY        2e-ENERGY     RMS[dD(SAO)]   TOL
   4  -630.29077014830    -1491.8712473     545.45866416    0.142D-02 0.473D-13
                            Exc = -58.4673402660     Coul =  603.926004427    
                              N = 55.999987062    
                            current damping = 0.600
 
          Norm of current diis error: 0.49983    
          max. resid. norm for Fia-block=  1.256D-01 for orbital      1a         
          max. resid. fock norm         =  1.460D-01 for orbital      1a         

 ITERATION  ENERGY          1e-ENERGY        2e-ENERGY     RMS[dD(SAO)]   TOL
   5  -630.29919706920    -1492.4961585     546.07514852    0.644D-03 0.473D-13
                            Exc = -58.5328605667     Coul =  604.608009090    
                              N = 55.999985987    
                            current damping = 0.650
 
          Norm of current diis error: 0.23842    
          max. resid. norm for Fia-block=  4.668D-02 for orbital      1a         
          max. resid. fock norm         =  5.417D-02 for orbital      1a         
          mo-orthogonalization: Cholesky decomposition

 ITERATION  ENERGY          1e-ENERGY        2e-ENERGY     RMS[dD(SAO)]   TOL
   6  -630.30123805848    -1492.2418374     545.81878644    0.469D-03 0.473D-13
                            Exc = -58.5111600376     Coul =  604.329946477    
                              N = 55.999984535    
                            current damping = 0.700
 
          Norm of current diis error: 0.82332E-01
          max. resid. norm for Fia-block=  1.836D-02 for orbital      1a         
          max. resid. fock norm         =  2.130D-02 for orbital      1a         

 ITERATION  ENERGY          1e-ENERGY        2e-ENERGY     RMS[dD(SAO)]   TOL
   7  -630.30151803078    -1492.3256013     545.90227028    0.156D-03 0.473D-13
                            Exc = -58.5172307613     Coul =  604.419501045    
                              N = 55.999984157    
                            current damping = 0.750
 
          Norm of current diis error: 0.29318E-01
          max. resid. norm for Fia-block=  7.553D-03 for orbital      1a         
          max. resid. fock norm         =  8.764D-03 for orbital      1a         

 ITERATION  ENERGY          1e-ENERGY        2e-ENERGY     RMS[dD(SAO)]   TOL
   8  -630.30155535885    -1492.3202515     545.89688318    0.683D-04 0.473D-13
                            Exc = -58.5177167027     Coul =  604.414599886    
                              N = 55.999984035    
                            current damping = 0.800
 
          Norm of current diis error: 0.13047E-01
          max. resid. norm for Fia-block=  3.249D-03 for orbital      1a         
          max. resid. fock norm         =  3.774D-03 for orbital      1a         

 ITERATION  ENERGY          1e-ENERGY        2e-ENERGY     RMS[dD(SAO)]   TOL
   9  -630.30156313951    -1492.3262235     545.90284741    0.293D-04 0.473D-13
                            Exc = -58.5183160039     Coul =  604.421163414    
                              N = 55.999983961    
                            current damping = 0.850
 
          Norm of current diis error: 0.54653E-02
          max. resid. norm for Fia-block=  1.436D-03 for orbital      1a         
          max. resid. fock norm         =  1.664D-03 for orbital      1a         

 ITERATION  ENERGY          1e-ENERGY        2e-ENERGY     RMS[dD(SAO)]   TOL
  10  -630.30156447953    -1492.3254134     545.90203600    0.142D-04 0.473D-13
                            Exc = -58.5181890581     Coul =  604.420225060    
                              N = 55.999983929    
                            current damping = 0.900
 
          Norm of current diis error: 0.30632E-02
          max. resid. norm for Fia-block=  6.600D-04 for orbital      1a         
          max. resid. fock norm         =  7.653D-04 for orbital      1a         
          mo-orthogonalization: Cholesky decomposition

 ITERATION  ENERGY          1e-ENERGY        2e-ENERGY     RMS[dD(SAO)]   TOL
  11  -630.30156481936    -1492.3284439     545.90506615    0.491D-05 0.473D-13
                            Exc = -58.5185146749     Coul =  604.423580821    
                              N = 55.999983923    
                            current damping = 0.950
 
          Norm of current diis error: 0.12308E-02
          max. resid. norm for Fia-block=  3.117D-04 for orbital      1a         
          max. resid. fock norm         =  3.611D-04 for orbital      1a         

 ITERATION  ENERGY          1e-ENERGY        2e-ENERGY     RMS[dD(SAO)]   TOL
  12  -630.30156488434    -1492.3271215     545.90374366    0.317D-05 0.473D-13
                            Exc = -58.5184366369     Coul =  604.422180298    
                              N = 55.999983915    
                            current damping = 1.000
 
          Norm of current diis error: 0.65808E-03
          max. resid. norm for Fia-block=  1.520D-04 for orbital      1a         
          max. resid. fock norm         =  1.760D-04 for orbital      1a         

 ITERATION  ENERGY          1e-ENERGY        2e-ENERGY     RMS[dD(SAO)]   TOL
  13  -630.30156490209    -1492.3276868     545.90430893    0.127D-05 0.473D-13
                            Exc = -58.5184726819     Coul =  604.422781615    
                              N = 55.999983912    
                            current damping = 1.050
 
          Norm of current diis error: 0.30011E-03
          max. resid. norm for Fia-block=  7.556D-05 for orbital      1a         
          max. resid. fock norm         =  8.738D-05 for orbital      1a         

 ITERATION  ENERGY          1e-ENERGY        2e-ENERGY     RMS[dD(SAO)]   TOL
  14  -630.30156490565    -1492.3277282     545.90435034    0.605D-06 0.473D-13
                            Exc = -58.5184803816     Coul =  604.422830717    
                              N = 55.999983911    
                            current damping = 0.900
 
          Norm of current diis error: 0.15256E-03
          max. resid. norm for Fia-block=  3.886D-05 for orbital      1a         
          max. resid. fock norm         =  4.499D-05 for orbital      1a         

 ITERATION  ENERGY          1e-ENERGY        2e-ENERGY     RMS[dD(SAO)]   TOL
  15  -630.30156490666    -1492.3277653     545.90438744    0.344D-06 0.473D-13
                            Exc = -58.5184876956     Coul =  604.422875139    
                              N = 55.999983911    
                            current damping = 0.750
 
          Norm of current diis error: 0.80567E-04
          max. resid. norm for Fia-block=  1.830D-05 for orbital      1a         
          max. resid. fock norm         =  2.115D-05 for orbital      1a         
          mo-orthogonalization: Cholesky decomposition

 ITERATION  ENERGY          1e-ENERGY        2e-ENERGY     RMS[dD(SAO)]   TOL
  16  -630.30156490690    -1492.3276881     545.90431026    0.226D-06 0.473D-13
                            Exc = -58.5184801692     Coul =  604.422790430    
                              N = 55.999983910    
                            current damping = 0.800
 
          Norm of current diis error: 0.52838E-04
          max. resid. norm for Fia-block=  7.839D-06 for orbital      1a         
          max. resid. fock norm         =  9.053D-06 for orbital      1a         

 DENSITY CONVERGED !


 ITERATION  ENERGY          1e-ENERGY        2e-ENERGY     RMS[dD(SAO)]   TOL
  17  -630.30156490698    -1492.3277689     545.90439108    0.591D-07 0.473D-13
                            Exc = -58.5184868651     Coul =  604.422877943    
                              N = 55.999983910    
                            current damping = 0.850
 
          Norm of current diis error: 0.18657E-04
          max. resid. norm for Fia-block=  3.457D-06 for orbital      1a         
          max. resid. fock norm         =  3.983D-06 for orbital      1a         

 DENSITY CONVERGED !


 ITERATION  ENERGY          1e-ENERGY        2e-ENERGY     RMS[dD(SAO)]   TOL
  18  -630.30156490698    -1492.3277488     545.90437096    0.344D-07 0.473D-13
                            Exc = -58.5184862196     Coul =  604.422857178    
                              N = 55.999983910    
                            current damping = 0.900
 
          Norm of current diis error: 0.10304E-04
          max. resid. norm for Fia-block=  1.607D-06 for orbital      1a         
          max. resid. fock norm         =  1.858D-06 for orbital      1a         

 ENERGY & DENSITY CONVERGED !


 ITERATION  ENERGY          1e-ENERGY        2e-ENERGY     RMS[dD(SAO)]   TOL
  19  -630.30157403461    -1492.3277521     545.90436508    0.171D-07 0.473D-13
                            Exc = -58.5184954782     Coul =  604.422860556    
                              N = 55.999995733    
                            current damping = 0.950
 
          Norm of current diis error: 0.44871E-05
          max. resid. norm for Fia-block=  7.490D-07 for orbital      1a         
          max. resid. fock norm         =  8.613D-07 for orbital      1a         

 End of SCF iterations

   convergence criteria satisfied after   19 iterations


                  ------------------------------------------ 
                 |  total energy      =   -630.30157403461  |
                  ------------------------------------------ 
                 :  kinetic energy    =    628.04653318936  :
                 :  potential energy  =  -1258.34810722397  :
                 :  virial theorem    =      1.99642228270  :
                 :  wavefunction norm =      1.00000000000  :
                  .......................................... 


 <geterg> : there is no data group $energy 


 <skperg> : $end is missing 


 orbitals $scfmo  will be written to file mos

    irrep                 24a         25a         26a         27a         28a   
 eigenvalues H         -0.30424    -0.30252    -0.26432    -0.22627    -0.19016
            eV          -8.2789     -8.2321     -7.1924     -6.1571     -5.1746
 occupation              2.0000      2.0000      2.0000      2.0000      2.0000 

    irrep                 29a         30a         31a         32a         33a   
 eigenvalues H         -0.00779     0.00817     0.02000     0.02942     0.03019
            eV          -0.2119      0.2222      0.5442      0.8005      0.8216
 
 
 ! grave: sending quit signal to master process
 
 
 
 
 ==============================================================================
                           electrostatic moments
 ==============================================================================

 reference point for electrostatic moments:    0.00000   0.00000   0.00000

 
              nuc           elec       ->  total
 ------------------------------------------------------------------------------
                          charge      
 ------------------------------------------------------------------------------
          56.000000     -56.000000      -0.000000
 
 ------------------------------------------------------------------------------
                       dipole moment  
 ------------------------------------------------------------------------------
   x     347.555143    -347.413254       0.141889
   y      -6.440583       6.499474       0.058890
   z     -15.253623      15.287880       0.034257
 
   | dipole moment | =     0.1574 a.u. =     0.4001 debye 
 
 ------------------------------------------------------------------------------
                     quadrupole moment
 ------------------------------------------------------------------------------
  xx    2388.776490   -2422.500630     -33.724140
  yy      95.626477    -131.228925     -35.602449
  zz     234.165338    -262.865194     -28.699856
  xy      60.761713     -62.707285      -1.945572
  xz     -99.031657      97.425078      -1.606579
  yz      32.741370     -33.056679      -0.315309
 
     1/3  trace=     -32.675481
     anisotropy=       7.589857
 
 ==============================================================================
 

    ridft profiling
  --------------------------------------------------------------------
             module   cpu total (s)       %  wall total (s)       %

               RIDFT            84.9  100.00            85.1  100.00
         Ridft_b_scf             4.9    5.80             4.9    5.80
        b_scf_prelim             0.0    0.00             0.0    0.00
        b_scf_molinp             0.0    0.03             0.0    0.03
         b_scf_init0             0.0    0.00             0.0    0.00
        b_scf_auxbas             0.0    0.02             0.0    0.02
      b_scf_symmetry             0.0    0.00             0.0    0.01
         b_scf_cosmo             0.0    0.00             0.0    0.00
        b_scf_params             0.7    0.77             0.7    0.77
          b_scf_ri-j             3.5    4.18             3.5    4.17
    b_scf_ri-j_auxpq             3.5    4.18             3.5    4.16
     ri-j_auxpq_chol             0.0    0.02             0.0    0.02
         b_scf_1elec             0.2    0.19             0.2    0.19
       b_scf_moinput             0.5    0.61             0.5    0.61
     moinput_orthmos             0.5    0.59             0.5    0.59
    b_scf_dft-dstmax             0.0    0.00             0.0    0.00
           Ridft_scf            79.9   94.13            80.1   94.12
          Scf_b_loop             0.0    0.00             0.0    0.00
                noga             0.0    0.00             0.0    0.00
            Scf_loop            79.6   93.83            79.6   93.56
     scf_loop_mkdmat             0.3    0.32             0.3    0.32
       scf_loop_ri-j             5.6    6.63             5.6    6.61
      parlp1.bc.dens             1.0    1.15             1.0    1.15
        parlp1.gs.gp             0.0    0.00             0.0    0.00
        parlp2.bc.gq             0.0    0.00             0.0    0.00
        scf_loop_dft            62.7   73.89            62.6   73.66
      pardft.bc.dens             0.0    0.00             0.0    0.00
        dft_grid_con             0.1    0.12             0.1    0.11
           dft_xcrhf            59.1   69.70            59.1   69.49
          dft_getval             3.7    4.36             3.7    4.34
          funct2 dst             0.0    0.05             0.0    0.05
      funct2 f2loop1             1.2    1.41             1.2    1.42
      funct2 f2loop2             1.3    1.48             1.3    1.47
          funct2 s+c             1.1    1.28             1.1    1.25
        funct2 cmf_2             0.9    1.11             0.9    1.08
          dft_mkdens            25.9   30.56            25.9   30.44
         dft_gga-fun             0.1    0.10             0.1    0.13
          dft_mkfock            29.3   34.57            29.3   34.46
     pardft.red.fock             6.9    8.11             6.9    8.09
     scf_loop_energy             0.0    0.01             0.0    0.01
     scf_loop_mkfock             0.0    0.00             0.0    0.01
       scf_loop_diis             2.9    3.43             2.9    3.41
       scf_loop_diag             3.8    4.46             3.8    4.45
         diag_tritrn             1.0    1.21             1.0    1.21
          diag_rdiag             2.7    3.22             2.7    3.21
     scf_loop_modump             3.8    4.43             3.8    4.42
      scf_loop_ortho             0.4    0.52             0.4    0.52
          Scf_a_loop             0.3    0.30             0.5    0.56
         Ridft_a_scf             0.1    0.07             0.1    0.08
         a_scf_fanal             0.1    0.06             0.1    0.07
 


    ------------------------------------------------------------------------
         total  cpu-time :  1 minutes and 25 seconds
         total wall-time :  1 minutes and 25 seconds
    ------------------------------------------------------------------------


   ****  ridft : all done  ****


    2017-11-20 19:12:40.675 

