A PARALLEL ridft calculation will be started!
Using OpenMPI from /sopt/mpi/openmpi-1.8.6/intel_15.0.3/bin/mpiexec
STARTING ridft ON 2 PROCESSORS!
RUNNING PROGRAM /modfac/apps/TURBOMOLE/7.0_intel/bin/em64t-unknown-linux-gnu_mpi/ridft_mpi.
PLEASE WAIT UNTIL ridft HAS FINISHED.
Look for the output in slave1.output.
  this is node-proc. number 1 running on node c-9-411.local
  the total number of node-proc. spawned is           11
  parallel platform: MPP, or cluster with fast interconnect

 ridft (c-9-411.local) : TURBOMOLE V7.0( ) 6 Jul 2015 at 19:34:44
 Copyright (C) 2015 TURBOMOLE GmbH, Karlsruhe


    2015-11-19 15:32:12.882 



                                  r i d f t

                        DFT program with RI approximation 
                                for coulomb part 




                                                 
                                 References:     
                                                 
          TURBOMOLE:                             
              R. Ahlrichs, M. Baer, M. Haeser, H. Horn, and
              C. Koelmel
              Electronic structure calculations on workstation
              computers: the program system TURBOMOLE
              Chem. Phys. Lett. 162: 165 (1989)
          Density Functional:                              
              O. Treutler and R. Ahlrichs                      
              Efficient Molecular Numerical Integration Schemes
              J. Chem. Phys. 102: 346 (1995)                   
          Parallel Version:                                
              Performance of parallel TURBOMOLE for Density    
              Functional Calculations                          
              M. v. Arnim and R. Ahlrichs                      
              J. Comp. Chem. 19: 1746 (1998)                   
          RI-J Method:                                     
              Auxiliary Basis Sets to approximate Coulomb      
              Potentials                                       
              Chem. Phys. Lett. 240: 283 (1995)                
              K. Eichkorn, O. Treutler, H. Oehm, M. Haeser     
              and R. Ahlrichs                                  
              Chem. Phys. Lett. 242: 652 (1995)                
                                                           
              Auxiliary Basis Sets for Main Row Atoms and their
              Use to approximate Coulomb Potentials            
              K. Eichkorn, F. Weigend, O. Treutler and         
              R. Ahlrichs                                      
              Theo. Chem. Acc. 97: 119 (1997)                   
                                                           
              Accurate Coulomb-fitting basis sets for H to Rn 
              F. Weigend                                        
              Phys. Chem. Chem. Phys. 8: 1057 (2006)            
                                                           
          Multipole accelerated RI-J (MARI-J):             
              Fast evaluation of the Coulomb potential for     
              electron densities using multipole accelerated   
              resolution of identity approximation             
              M. Sierka, A. Hogekamp and R. Ahlrichs           
              J. Chem. Phys. 118: 9136 (2003)                  
          RI-JK Method:                                     
              A fully direct RI-HF algorithm: Implementation,
              optimised auxiliary basis sets, demonstration of
              accuracy and efficiency                         
              F. Weigend                                      
              Phys. Chem. Chem. Phys. 4: 4285 (2002)           
          Two-component HF and DFT with spin-orbit coupling:  
              Self-consistent treatment of spin-orbit         
              interactions with efficient Hartree-Fock and    
              density functional methods                      
              M. K. Armbruster, F. Weigend, C. van Wüllen and 
              W. Klopper                                      
              Phys. Chem. Chem. Phys. 10: 1748 (2008)         
          Relativistic all-electron 2c calculations           
              An efficient implementation of two-component    
              relativistic exact-decoupling methods for large 
              molecules                                       
              D. Peng, N. Middendorf, F. Weigend, M. Reiher   
              J. Chem. Phys. 138, 184105 (2013)               
                                         


 


              +--------------------------------------------------+
              |      general information about current run       |
              +--------------------------------------------------+

 

 SCF run will be profiled !

 PBE functional
 exchange:    LDA + PBE
 correlation: LDA (PW) + PBE
 A DFT calculation using the RI-J approximation will be carried out.
 Allocatable memory for RI due to $ricore (MB):       10000


              +--------------------------------------------------+
              | Atomic coordinate, charge and isotop information |
              +--------------------------------------------------+

                    atomic coordinates            atom    charge  isotop
          9.54465899   -1.48066809    0.00170346    c      6.000     0
          9.54465899    1.48066809   -0.00170346    c      6.000     0
          8.13155834    2.11437977   -2.26430494    n      7.000     0
          7.63096910    0.00319214   -3.76219226    c      6.000     0
          8.38987621   -2.10766850   -2.38904049    n      7.000     0
          8.13155834   -2.11437977    2.26430494    n      7.000     0
          7.63096910   -0.00319214    3.76219226    c      6.000     0
          8.38987621    2.10766850    2.38904049    n      7.000     0
          6.78148271   -0.01113481    5.89161956    o      8.000     0
          6.78148271    0.01113481   -5.89161956    o      8.000     0
          8.02357410    4.63685176    3.34967524    c      6.000     0
          8.02741846    4.63019312   -3.34967524    c      6.000     0
          3.49003331   -9.00625120    0.00170346    c      6.000     0
          6.05462568   -7.52558311   -0.00170346    c      6.000     0
          5.89688576   -5.98494621   -2.26430494    n      7.000     0
          3.81824903   -6.60701703   -3.76219226    c      6.000     0
          2.36964364   -8.31968019   -2.38904049    n      7.000     0
          2.23467258   -8.09932598    2.26430494    n      7.000     0
          3.81272008   -6.61020917    3.76219226    c      6.000     0
          6.02023257   -6.21201168    2.38904049    n      7.000     0
          3.38109833   -5.87850371    5.89161956    o      8.000     0
          3.40038438   -5.86736890   -5.89161956    o      8.000     0
          8.02741846   -4.63019312    3.34967524    c      6.000     0
          8.02357410   -4.63685176   -3.34967524    c      6.000     0
         -3.49003331    9.00625120    0.00170346    c      6.000     0
         -6.05462568    7.52558311   -0.00170346    c      6.000     0
         -5.89688576    5.98494621   -2.26430494    n      7.000     0
         -3.81824903    6.60701703   -3.76219226    c      6.000     0
         -2.36964364    8.31968019   -2.38904049    n      7.000     0
         -2.23467258    8.09932598    2.26430494    n      7.000     0
         -3.81272008    6.61020917    3.76219226    c      6.000     0
         -6.02023257    6.21201168    2.38904049    n      7.000     0
         -3.38109833    5.87850371    5.89161956    o      8.000     0
         -3.40038438    5.86736890   -5.89161956    o      8.000     0
         -8.02741846    4.63019312    3.34967524    c      6.000     0
         -8.02357410    4.63685176   -3.34967524    c      6.000     0
          6.05462568    7.52558311    0.00170346    c      6.000     0
          3.49003331    9.00625120   -0.00170346    c      6.000     0
          2.23467258    8.09932598   -2.26430494    n      7.000     0
          3.81272008    6.61020917   -3.76219226    c      6.000     0
          6.02023257    6.21201168   -2.38904049    n      7.000     0
          5.89688576    5.98494621    2.26430494    n      7.000     0
          3.81824903    6.60701703    3.76219226    c      6.000     0
          2.36964364    8.31968019    2.38904049    n      7.000     0
          3.40038438    5.86736890    5.89161956    o      8.000     0
          3.38109833    5.87850371   -5.89161956    o      8.000     0
         -0.00384436    9.26704488    3.34967524    c      6.000     0
          0.00384436    9.26704488   -3.34967524    c      6.000     0
         -6.05462568   -7.52558311    0.00170346    c      6.000     0
         -3.49003331   -9.00625120   -0.00170346    c      6.000     0
         -2.23467258   -8.09932598   -2.26430494    n      7.000     0
         -3.81272008   -6.61020917   -3.76219226    c      6.000     0
         -6.02023257   -6.21201168   -2.38904049    n      7.000     0
         -5.89688576   -5.98494621    2.26430494    n      7.000     0
         -3.81824903   -6.60701703    3.76219226    c      6.000     0
         -2.36964364   -8.31968019    2.38904049    n      7.000     0
         -3.40038438   -5.86736890    5.89161956    o      8.000     0
         -3.38109833   -5.87850371   -5.89161956    o      8.000     0
          0.00384436   -9.26704488    3.34967524    c      6.000     0
         -0.00384436   -9.26704488   -3.34967524    c      6.000     0
         -9.54465899    1.48066809    0.00170346    c      6.000     0
         -9.54465899   -1.48066809   -0.00170346    c      6.000     0
         -8.13155834   -2.11437977   -2.26430494    n      7.000     0
         -7.63096910   -0.00319214   -3.76219226    c      6.000     0
         -8.38987621    2.10766850   -2.38904049    n      7.000     0
         -8.13155834    2.11437977    2.26430494    n      7.000     0
         -7.63096910    0.00319214    3.76219226    c      6.000     0
         -8.38987621   -2.10766850    2.38904049    n      7.000     0
         -6.78148271    0.01113481    5.89161956    o      8.000     0
         -6.78148271   -0.01113481   -5.89161956    o      8.000     0
         -8.02357410   -4.63685176    3.34967524    c      6.000     0
         -8.02741846   -4.63019312   -3.34967524    c      6.000     0
         11.45230095   -2.30264633    0.10781123    h      1.000     0
         11.45230095    2.30264633   -0.10781123    h      1.000     0
          9.75795278    5.73565762    3.03563494    h      1.000     0
          7.63464585    4.44682617    5.37067085    h      1.000     0
          9.84620159    5.58280619   -3.03563494    h      1.000     0
          7.66838735    4.38838417   -5.37067085    h      1.000     0
          3.73200025  -11.06930673    0.10781123    h      1.000     0
          7.72030070   -8.76666039   -0.10781123    h      1.000     0
          7.66838735   -4.38838417    5.37067085    h      1.000     0
          9.84620159   -5.58280619    3.03563494    h      1.000     0
          7.63464585   -4.44682617   -5.37067085    h      1.000     0
          9.75795278   -5.73565762   -3.03563494    h      1.000     0
         -3.73200025   11.06930673    0.10781123    h      1.000     0
         -7.72030070    8.76666039   -0.10781123    h      1.000     0
         -9.84620159    5.58280619    3.03563494    h      1.000     0
         -7.66838735    4.38838417    5.37067085    h      1.000     0
         -9.75795278    5.73565762   -3.03563494    h      1.000     0
         -7.63464585    4.44682617   -5.37067085    h      1.000     0
          7.72030070    8.76666039    0.10781123    h      1.000     0
          3.73200025   11.06930673   -0.10781123    h      1.000     0
         -0.03374150    8.83521034    5.37067085    h      1.000     0
         -0.08824881   11.31846381    3.03563494    h      1.000     0
          0.03374150    8.83521034   -5.37067085    h      1.000     0
          0.08824881   11.31846381   -3.03563494    h      1.000     0
         -7.72030070   -8.76666039    0.10781123    h      1.000     0
         -3.73200025  -11.06930673   -0.10781123    h      1.000     0
          0.08824881  -11.31846381    3.03563494    h      1.000     0
          0.03374150   -8.83521034    5.37067085    h      1.000     0
         -0.08824881  -11.31846381   -3.03563494    h      1.000     0
         -0.03374150   -8.83521034   -5.37067085    h      1.000     0
        -11.45230095    2.30264633    0.10781123    h      1.000     0
        -11.45230095   -2.30264633   -0.10781123    h      1.000     0
         -7.63464585   -4.44682617    5.37067085    h      1.000     0
         -9.75795278   -5.73565762    3.03563494    h      1.000     0
         -7.66838735   -4.38838417   -5.37067085    h      1.000     0
         -9.84620159   -5.58280619   -3.03563494    h      1.000     0
 
       center of nuclear mass  :   -0.00000000    0.00000000    0.00000000
       center of nuclear charge:   -0.00000000    0.00000000    0.00000000

              +--------------------------------------------------+
              |               basis set information              |
              +--------------------------------------------------+

              we will work with the 1s 3p 5d 7f 9g ... basis set
              ...i.e. with spherical basis functions...

   type   atoms  prim   cont   basis
   ---------------------------------------------------------------------------
    c       36     77     57   def2-QZVP   [7s4p3d2f1g|15s8p3d2f1g]
    n       24     77     57   def2-QZVP   [7s4p3d2f1g|15s8p3d2f1g]
    o       12     77     57   def2-QZVP   [7s4p3d2f1g|15s8p3d2f1g]
    h       36     33     30   def2-QZVP   [4s3p2d1f|7s3p2d1f]
   ---------------------------------------------------------------------------
   total:  108   6732   5184
   ---------------------------------------------------------------------------

   total number of primitive shells          :  100
   total number of contracted shells         : 1584
   total number of cartesian basis functions : 6444
   total number of SCF-basis functions       : 5184


 integral neglect threshold       :  0.52E-14
 integral storage threshold THIZE :  0.10E-04
 integral storage threshold THIME :         5

 RI-J AUXILIARY BASIS SET information:

              we will work with the 1s 3p 5d 7f 9g ... basis set
              ...i.e. with spherical basis functions...

   type   atoms  prim   cont   basis
   ---------------------------------------------------------------------------
    c       36     70     49   def2-QZVP   [6s4p3d1f1g|12s5p4d2f1g]
    n       24     70     49   def2-QZVP   [6s4p3d1f1g|12s5p4d2f1g]
    o       12     70     49   def2-QZVP   [6s4p3d1f1g|12s5p4d2f1g]
    h       36     16     11   def2-QZVP   [3s1p1d|5s2p1d]
   ---------------------------------------------------------------------------
   total:  108   5616   3924
   ---------------------------------------------------------------------------

   total number of primitive shells          :   80
   total number of contracted shells         : 1260
   total number of cartesian basis functions : 4824
   total number of SCF-basis functions       : 3924


 symmetry group of the molecule :   c1 

 the group has the following generators :
   c1(z)

    1 symmetry operations found

 there are 1 real representations :   a   

 maximum number of shells which are related by symmetry :  1


    mo occupation :
   irrep   mo's   occupied
    a     5184      258
 
 number of basis functions   :         5184
 number of occupied orbitals :          258
 
  
           ------------------
           density functional
           ------------------
 PBE functional
 exchange:    LDA + PBE
 correlation: LDA (PW) + PBE
 grinp -> nfun, dfgga, dfhybrid 
           6 T F
 spherical integration : Lebedev's spherical grid
 spherical gridsize    :           6
    i.e. gridpoints    :         974
 value for diffuse not defined
 radial integration    : Chebyshev 2nd kind (scaling 3)
 radial gridsize       :          10
 integration cells     :         108
 partition function    : becke
 partition sharpness   :           3
  

 <rddim> : input of entry tasksize
           from data group '$pardft' failed !

               Default values taken

 <rddim> : input of entry memdiv
           from data group '$pardft' failed !

               Default values taken
  RIDFT: memory allocation for DFT gridpoints
  MEMORY is divided by 1 as DEFAULT
 Each node can hold at most  the            1 -th part
 of the gridpoints    

 biggest AO integral is expected to be     6.990327543
  
           ------------------------
               RI-J - INFORMATION
           ------------------------
 
 
 **************************************************
 *      MEMORY ALLOCATION FOR PARALLEL RI-DFT     *
 **************************************************
 
 
MEMORY FOR (MU NU/ ALPHA), SEQUENTIAL RUN               9870 MByte
 
            DIFFERENCE IN MEMORY NEED:       DIAG./SLAVE  
 
      TOTAL DIFFERENCE :                   1222 MByte
 
      difference in xcore:                  131 MByte
      difference in fatmat:                 364 MByte
      getcor calls skipped by slaves:       728 MByte
 
 
           Integral memory available for diagonal.      9870 MByte
 
           Integral memory available for slave             0 MByte
 
         MEMORY FOR (MU NU/ ALPHA) ON DIAGONALIZER      9870 MByte
 
         MEMORY FOR (MU NU/ ALPHA) ON ONE SLAVE            0 MByte
 
         TOTAL MEMORY FOR (MU NU/ ALPHA),ALL NODES      9870 MByte
 
 Contributions to RI integral batches: 
  neglected integral batches:      841182
  direct contribution:             365313
  memory contribution:       48825
 Memory core needed for (P|Q) and Cholesky    118 MByte
 Memory core minimum needed except of (P|Q)    15 MByte
 Total minimum memory core needed (sum)       132 MByte
     number of direct tasks:         220
  
 ****************************************
 Memory allocated for RI-J 10002 MByte
 ****************************************
                                            

          ------------------------
          nuclear repulsion energy  :   13402.2859319    
          ------------------------

 
          -----------------
          -S integrals
          -----------------

 1e-integrals will be neglected if expon. factor < 0.518616E-15
 
          -----------------
          -T+V integrals
          -----------------

 1e-integrals will be neglected if expon. factor < 0.518616E-15
 Difference densities >>NOT<< switched on in parallel ridft!

 automatic virtual orbital shift switched on 
      shift if e(lumo)-e(homo) < 0.10000000    


 DIIS switched on: error vector is FDS-SDF
 Max. Iterations for DIIS is     :   4
 DIIS matrix (see manual) 
    Scaling factor of diagonals  :  1.200
    threshold for scaling factor :  0.000

 scf convergence criterion : increment of total energy < .1000000D-08
                  and increment of one-electron energy < .1000000D-05

  MOs are in ASCII format !


 reading orbital data $scfmo  from file mos . 

 orbital characterization : scfconv=9
 

 DSCF restart information will be dumped onto file mos


 Starting SCF iterations


 ITERATION  ENERGY          1e-ENERGY        2e-ENERGY     NORM[dD(SAO)]  TOL
   1  -3608.1055576384    -31648.433268     14638.041778    0.000D+00 0.517D-14
                            Exc = -474.929863050     Coul =  15112.9716413    
                              N = 516.00000572    
                            current damping = 0.700
 
          max. resid. norm for Fia-block=  1.774D-04 for orbital    224a         
          max. resid. fock norm         =  6.856D-04 for orbital    319a         

 ITERATION  ENERGY          1e-ENERGY        2e-ENERGY     NORM[dD(SAO)]  TOL
   2  -3608.1055584391    -31648.426292     14638.034801    0.000D+00 0.517D-14
                            Exc = -474.929534937     Coul =  15112.9643362    
                              N = 516.00000567    
                            current damping = 0.650
 
          Norm of current diis error: 0.10601E-02
          max. resid. norm for Fia-block=  8.064D-05 for orbital    225a         
          max. resid. fock norm         =  2.877D-04 for orbital    319a         

 ITERATION  ENERGY          1e-ENERGY        2e-ENERGY     NORM[dD(SAO)]  TOL
   3  -3608.1055585908    -31648.431797     14638.040307    0.000D+00 0.517D-14
                            Exc = -474.929587164     Coul =  15112.9698941    
                              N = 516.00000565    
                            current damping = 0.600
 
          Norm of current diis error: 0.68870E-03
          max. resid. norm for Fia-block=  3.410D-05 for orbital    224a         
          max. resid. fock norm         =  1.155D-04 for orbital    319a         

 ITERATION  ENERGY          1e-ENERGY        2e-ENERGY     NORM[dD(SAO)]  TOL
   4  -3608.1055586207    -31648.427212     14638.035721    0.000D+00 0.517D-14
                            Exc = -474.929611362     Coul =  15112.9653327    
                              N = 516.00000564    
                            current damping = 0.650
 
          Norm of current diis error: 0.42719E-03
          max. resid. norm for Fia-block=  1.386D-05 for orbital    224a         
          max. resid. fock norm         =  4.366D-05 for orbital    319a         

 ITERATION  ENERGY          1e-ENERGY        2e-ENERGY     NORM[dD(SAO)]  TOL
   5  -3608.1055586277    -31648.427682     14638.036191    0.000D+00 0.517D-14
                            Exc = -474.929514202     Coul =  15112.9657054    
                              N = 516.00000564    
                            current damping = 0.700
 
          Norm of current diis error: 0.14482E-03
          max. resid. norm for Fia-block=  5.742D-06 for orbital    224a         
          max. resid. fock norm         =  1.725D-05 for orbital    319a         
          mo-orthogonalization: Cholesky decomposition

 ITERATION  ENERGY          1e-ENERGY        2e-ENERGY     NORM[dD(SAO)]  TOL
   6  -3608.1055586294    -31648.427910     14638.036420    0.000D+00 0.517D-14
                            Exc = -474.929541268     Coul =  15112.9659612    
                              N = 516.00000563    
                            current damping = 0.550
 
          Norm of current diis error: 0.53388E-04
          max. resid. norm for Fia-block=  2.369D-06 for orbital    224a         
          max. resid. fock norm         =  7.102D-06 for orbital    319a         

 ITERATION  ENERGY          1e-ENERGY        2e-ENERGY     NORM[dD(SAO)]  TOL
   7  -3608.1055586293    -31648.428197     14638.036706    0.000D+00 0.517D-14
                            Exc = -474.929543843     Coul =  15112.9662503    
                              N = 516.00000563    
                            current damping = 0.400
 
          Norm of current diis error: 0.40583E-04
          max. resid. norm for Fia-block=  8.961D-07 for orbital    224a         
          max. resid. fock norm         =  2.598D-06 for orbital    319a         

 ITERATION  ENERGY          1e-ENERGY        2e-ENERGY     NORM[dD(SAO)]  TOL
   8  -3608.1055586301    -31648.427970     14638.036479    0.000D+00 0.517D-14
                            Exc = -474.929542391     Coul =  15112.9660218    
                              N = 516.00000563    
                            current damping = 0.450
 
          Norm of current diis error: 0.18463E-04
          max. resid. norm for Fia-block=  3.478D-07 for orbital    224a         
          max. resid. fock norm         =  8.009D-07 for orbital   5153a         

 ITERATION  ENERGY          1e-ENERGY        2e-ENERGY     NORM[dD(SAO)]  TOL
   9  -3608.1055586301    -31648.428060     14638.036569    0.000D+00 0.517D-14
                            Exc = -474.929539741     Coul =  15112.9661090    
                              N = 516.00000563    
                            current damping = 0.500
 
          Norm of current diis error: 0.15891E-04
          max. resid. norm for Fia-block=  1.953D-07 for orbital    237a         
          max. resid. fock norm         =  3.197D-07 for orbital   4913a         

 ITERATION  ENERGY          1e-ENERGY        2e-ENERGY     NORM[dD(SAO)]  TOL
  10  -3608.1055586300    -31648.428018     14638.036528    0.000D+00 0.517D-14
                            Exc = -474.929542601     Coul =  15112.9660704    
                              N = 516.00000563    
                            current damping = 0.550
 
          Norm of current diis error: 0.66126E-05
          max. resid. norm for Fia-block=  6.589D-08 for orbital    224a         
          max. resid. fock norm         =  1.544D-07 for orbital   5153a         
          mo-orthogonalization: Cholesky decomposition

 ENERGY CONVERGED !


 ITERATION  ENERGY          1e-ENERGY        2e-ENERGY     NORM[dD(SAO)]  TOL
  11  -3608.1055586300    -31648.428015     14638.036525    0.000D+00 0.517D-14
                            Exc = -474.929541929     Coul =  15112.9660667    
                              N = 516.00000563    
                            current damping = 0.400
 
          Norm of current diis error: 0.21690E-05
          max. resid. norm for Fia-block=  2.991D-08 for orbital    224a         
          max. resid. fock norm         =  5.687D-08 for orbital    497a         

 End of SCF iterations

   convergence criteria satisfied after   11 iterations


                  ------------------------------------------ 
                 |  total energy      =  -3608.10555863001  |
                  ------------------------------------------ 
                 :  kinetic energy    =   3593.33912301960  :
                 :  potential energy  =  -7201.44468164961  :
                 :  virial theorem    =      1.99590742694  :
                 :  wavefunction norm =      1.00000000000  :
                  .......................................... 


 orbitals $scfmo  will be written to file mos

    irrep                254a        255a        256a        257a        258a   
 eigenvalues H         -0.21705    -0.21363    -0.21363    -0.21352    -0.20553
            eV          -5.9064     -5.8133     -5.8133     -5.8102     -5.5927
 occupation              2.0000      2.0000      2.0000      2.0000      2.0000 

    irrep                259a        260a        261a        262a        263a   
 eigenvalues H         -0.03505    -0.03104    -0.03104    -0.02226    -0.02226
            eV          -0.9539     -0.8446     -0.8446     -0.6057     -0.6057
 
 
 ! grave: sending quit signal to master process
 
 
 
 
 ==============================================================================
                           electrostatic moments
 ==============================================================================

 reference point for electrostatic moments:    0.00000   0.00000   0.00000

 
              nuc           elec       ->  total
 ------------------------------------------------------------------------------
                          charge      
 ------------------------------------------------------------------------------
         516.000000    -516.000000      -0.000000
 
 ------------------------------------------------------------------------------
                       dipole moment  
 ------------------------------------------------------------------------------
   x      -0.000000       0.000000       0.000000
   y      -0.000000      -0.000000      -0.000000
   z      -0.000000      -0.000000      -0.000000
 
   | dipole moment | =     0.0000 a.u. =     0.0000 debye 
 
 ------------------------------------------------------------------------------
                     quadrupole moment
 ------------------------------------------------------------------------------
  xx   18917.617309  -19138.306698    -220.689388
  yy   18917.617309  -19138.306124    -220.688815
  zz    6526.186828   -6914.911448    -388.724620
  xy       0.000000      -0.000000      -0.000000
  xz       0.000000      -0.000000      -0.000000
  yz      -0.000000      -0.000000      -0.000000
 
     1/3  trace=    -276.700941
     anisotropy=     168.035518
 
 ==============================================================================
 

    ridft profiling
  --------------------------------------------------------------------
             module   cpu total (s)       %  wall total (s)       %

               RIDFT         14780.3  100.00         18253.8  100.00
         Ridft_b_scf          4932.5   33.37          5661.0   31.01
        b_scf_prelim             0.0    0.00             0.0    0.00
        b_scf_molinp             0.0    0.00             0.0    0.00
         b_scf_init0             0.0    0.00             0.0    0.00
        b_scf_auxbas             0.0    0.00             0.0    0.00
      b_scf_symmetry             0.0    0.00             0.0    0.00
         b_scf_cosmo             0.0    0.00             0.0    0.00
        b_scf_params          2738.3   18.53          3139.6   17.20
          b_scf_ri-j          2081.6   14.08          2389.6   13.09
    b_scf_ri-j_auxpq          2081.4   14.08          2389.5   13.09
     ri-j_auxpq_chol             7.1    0.05             8.6    0.05
         b_scf_1elec            10.7    0.07            11.3    0.06
       b_scf_moinput           101.9    0.69           120.5    0.66
     moinput_orthmos            76.4    0.52            92.1    0.50
    b_scf_dft-dstmax             0.0    0.00             0.0    0.00
           Ridft_scf          9844.2   66.60         12588.0   68.96
          Scf_b_loop             0.0    0.00             0.0    0.00
                noga             0.0    0.00             0.0    0.00
            Scf_loop          9829.6   66.50         12567.8   68.85
     scf_loop_mkdmat            30.2    0.20            37.7    0.21
       scf_loop_ri-j          1045.7    7.07          1369.1    7.50
      parlp1.bc.dens             6.1    0.04             7.9    0.04
        parlp1.gs.gp            47.7    0.32            60.6    0.33
        parlp2.bc.gq             0.0    0.00             0.0    0.00
        scf_loop_dft          7618.4   51.54          9713.4   53.21
      pardft.bc.dens             0.0    0.00             0.0    0.00
        dft_grid_con             8.7    0.06            10.6    0.06
           dft_xcrhf          7372.0   49.88          9395.4   51.47
          dft_getval           277.8    1.88           350.4    1.92
          funct2 dst             6.6    0.04             8.3    0.05
      funct2 f2loop1            61.0    0.41            77.6    0.42
      funct2 f2loop2           123.0    0.83           155.3    0.85
          funct2 s+c            76.0    0.51            94.9    0.52
        funct2 cmf_2            67.9    0.46            84.9    0.47
          dft_mkdens          2805.8   18.98          3574.3   19.58
         dft_gga-fun             2.2    0.01             2.6    0.01
          dft_mkfock          4280.2   28.96          5460.7   29.92
     pardft.red.fock           237.0    1.60           306.5    1.68
     scf_loop_energy             0.2    0.00             0.3    0.00
     scf_loop_mkfock             0.3    0.00             0.4    0.00
       scf_loop_diis           454.9    3.08           571.3    3.13
       scf_loop_diag           426.8    2.89           529.1    2.90
         diag_tritrn           130.3    0.88           166.2    0.91
          diag_rdiag           295.8    2.00           362.1    1.98
     scf_loop_modump           135.9    0.92           196.3    1.08
      scf_loop_ortho           111.0    0.75           143.2    0.78
          Scf_a_loop            14.6    0.10            20.2    0.11
         Ridft_a_scf             3.7    0.02             4.7    0.03
         a_scf_fanal             3.6    0.02             4.7    0.03
 


    ------------------------------------------------------------------------
         total  cpu-time :  4 hours  6 minutes and 40 seconds
         total wall-time :  5 hours  4 minutes and 40 seconds
    ------------------------------------------------------------------------


   ****  ridft : all done  ****


    2015-11-19 20:36:52.307 

