
   OpenMP run-time library returned nthreads = 28
 operating system is UNIX !

 dscf (c-15-42) : TURBOMOLE V7.3 ( 22142 ) 4 Jul 2018 at 18:12:42
 Copyright (C) 2018 TURBOMOLE GmbH, Karlsruhe


    2019-04-01 23:08:36.286 



                             d s c f - program

                   idea & directorship : reinhart ahlrichs
                   program development : marco haeser
                                         michael baer
                           dft version : oliver treutler


                          quantum chemistry group
                          universitaet  karlsruhe
                                  germany




                          References             
                                                 
          TURBOMOLE:                             
              R. Ahlrichs, M. Baer, M. Haeser, H. Horn, and
              C. Koelmel
              Electronic structure calculations on workstation
              computers: the program system TURBOMOLE
              Chem. Phys. Lett. 162: 165 (1989)
          Density Functional:                              
              O. Treutler and R. Ahlrichs                      
              Efficient Molecular Numerical Integration Schemes
              J. Chem. Phys. 102: 346 (1995)                   
          Parallel Version:                                
              Performance of parallel TURBOMOLE for Density    
              Functional Calculations                          
              M. v. Arnim and R. Ahlrichs                      
              J. Comp. Chem. 19: 1746 (1998)                   
                                         




              +--------------------------------------------------+
              | Atomic coordinate, charge and isotop information |
              +--------------------------------------------------+

                    atomic coordinates            atom    charge  isotop
          1.25931421    0.34735203    0.79318765    c      6.000     0
          2.32225010   -0.62338855    2.24170598    h      1.000     0
          2.32065089    1.31753242   -0.65688750    h      1.000     0
         -1.25850767    0.34576967    0.79295159    c      6.000     0
         -2.32043575   -0.62644213    2.24141049    h      1.000     0
         -2.32093191    1.31457995   -0.65714864    h      1.000     0
 
       center of nuclear mass  :    0.00040040    0.34641851    0.79295471
       center of nuclear charge:    0.00039829    0.34631324    0.79286974

              +--------------------------------------------------+
              |               basis set information              |
              +--------------------------------------------------+

              we will work with the 1s 3p 5d 7f 9g ... basis set
              ...i.e. with spherical basis functions...

   type   atoms  prim   cont   basis
   ---------------------------------------------------------------------------
    c        2     50     30   cc-pVTZ   [4s3p2d1f|18s5p2d1f]
    h        4     16     14   cc-pVTZ   [3s2p1d|5s2p1d]
   ---------------------------------------------------------------------------
   total:    6    164    116
   ---------------------------------------------------------------------------

   total number of primitive shells          :   34
   total number of contracted shells         :   44
   total number of cartesian basis functions :  130
   total number of SCF-basis functions       :  116


 integral neglect threshold       :  0.26E-12
 integral storage threshold THIZE :  0.10E-04
 integral storage threshold THIME :         5


 DENSITY CONVERGENCE CHECK SWITCHED ON !
 SCF CONVERGENCE IF RMS(delta[D]) <     0.1000000000E-06


 symmetry group of the molecule :   c1 

 the group has the following generators :
   c1(z)

    1 symmetry operations found

 there are 1 real representations :   a   

 maximum number of shells which are related by symmetry :  1


    mo occupation :
   irrep   mo's   occupied
    a      116        8
 
 number of basis functions   :                    116
 number of occupied orbitals :                      8
 

 automatic virtual orbital shift switched on 
      shift if e(lumo)-e(homo) < 0.10000000    


          ------------------------
          nuclear repulsion energy  :   33.4255656549    
          ------------------------


         -----------------
         -S,T+V- integrals
         -----------------

 1e-integrals will be neglected if expon. factor < 0.257074E-13
 
   Difference densities algorithm switched on.
   The maximal number of linear combinations of
   difference densities is                    20 .

 DIIS switched on: error vector is FDS-SDF
 Max. Iterations for DIIS is     :   5
 DIIS matrix (see manual) 
    Scaling factor of diagonals  :  1.200
    threshold for scaling factor :  0.000

 scf convergence criterion : increment of total energy < .1000000D-08
                  and increment of one-electron energy < .1000000D-05

  MOs are in ASCII format !


 reading orbital data $scfmo  from file mos
 orbital characterization : scfconv=9

 DSCF restart information will be dumped onto file mos

 
                                              current damping :  0.700
 ITERATION  ENERGY          1e-ENERGY        2e-ENERGY     RMS[dD(SAO)]   TOL
   1  -78.046528630373    -170.46807641     58.995982129    0.000D+00 0.256D-12
          max. resid. norm for Fia-block=  9.036D-02 for orbital      2a         
          max. resid. fock norm         =  1.605D-01 for orbital    115a         
          Delta Eig. =    20.8260057804 eV 
 
                                              current damping :  0.650
 ITERATION  ENERGY          1e-ENERGY        2e-ENERGY     RMS[dD(SAO)]   TOL
   2  -78.060387675086    -170.18765103     58.701697702    0.126D-02 0.163D-12
          Norm of current diis error: 0.25240    
          max. resid. norm for Fia-block=  4.401D-02 for orbital      2a         
          max. resid. fock norm         =  5.421D-02 for orbital     46a         
          Delta Eig. =     9.7721850677 eV 
 
                                              current damping :  0.600
 ITERATION  ENERGY          1e-ENERGY        2e-ENERGY     RMS[dD(SAO)]   TOL
   3  -78.063164864648    -170.21838588     58.729655361    0.619D-03 0.124D-12
          Norm of current diis error: 0.11206    
          max. resid. norm for Fia-block=  1.803D-02 for orbital      2a         
          max. resid. fock norm         =  2.388D-02 for orbital     46a         
          Delta Eig. =     3.7483341720 eV 
 
                                              current damping :  0.650
 ITERATION  ENERGY          1e-ENERGY        2e-ENERGY     RMS[dD(SAO)]   TOL
   4  -78.063754981477    -170.19874935     58.709428714    0.282D-03 0.109D-12
          Norm of current diis error: 0.45345E-01
          max. resid. norm for Fia-block=  6.793D-03 for orbital      2a         
          max. resid. fock norm         =  8.932D-03 for orbital     46a         
          Delta Eig. =     1.3682037752 eV 
 
                                              current damping :  0.500
 ITERATION  ENERGY          1e-ENERGY        2e-ENERGY     RMS[dD(SAO)]   TOL
   5  -78.063851916157    -170.19313128     58.703713705    0.112D-03 0.100D-12
          Norm of current diis error: 0.19058E-01
          max. resid. norm for Fia-block=  2.642D-03 for orbital      2a         
          max. resid. fock norm         =  3.535D-03 for orbital     46a         
 mo-orthogonalization: Cholesky decomposition
          Delta Eig. =     0.5909551604 eV 
 
                                              current damping :  0.350
 ITERATION  ENERGY          1e-ENERGY        2e-ENERGY     RMS[dD(SAO)]   TOL
   6  -78.063870515448    -170.19067103     58.701234863    0.520D-04 0.921D-13
          Norm of current diis error: 0.69173E-02
          max. resid. norm for Fia-block=  9.340D-04 for orbital      8a         
          max. resid. fock norm         =  1.186D-03 for orbital     46a         
          Delta Eig. =     0.2174522680 eV 
 
                                              current damping :  0.200
 ITERATION  ENERGY          1e-ENERGY        2e-ENERGY     RMS[dD(SAO)]   TOL
   7  -78.063873231724    -170.18966610     58.700227215    0.213D-04 0.843D-13
          Norm of current diis error: 0.20417E-02
          max. resid. norm for Fia-block=  2.819D-04 for orbital      8a         
          max. resid. fock norm         =  3.010D-04 for orbital     46a         
          Delta Eig. =     0.0640409432 eV 
 
                                              current damping :  0.050
 ITERATION  ENERGY          1e-ENERGY        2e-ENERGY     RMS[dD(SAO)]   TOL
   8  -78.063873503736    -170.18945999     58.700020835    0.730D-05 0.764D-13
          Norm of current diis error: 0.44765E-03
          max. resid. norm for Fia-block=  6.794D-05 for orbital      8a         
          max. resid. fock norm         =  6.794D-05 for orbital      8a         
          Delta Eig. =     0.0116915208 eV 
 
                                              current damping :  0.050
 ITERATION  ENERGY          1e-ENERGY        2e-ENERGY     RMS[dD(SAO)]   TOL
   9  -78.063873520683    -170.18936103     58.699921850    0.198D-05 0.701D-13
          Norm of current diis error: 0.73488E-04
          max. resid. norm for Fia-block=  1.228D-05 for orbital      8a         
          max. resid. fock norm         =  1.228D-05 for orbital      8a         
          Delta Eig. =     0.0006490656 eV 
 
                                              current damping :  0.100
 ITERATION  ENERGY          1e-ENERGY        2e-ENERGY     RMS[dD(SAO)]   TOL
  10  -78.063873521319    -170.18936885     58.699929671    0.373D-06 0.668D-13
          Norm of current diis error: 0.18769E-04
          max. resid. norm for Fia-block=  4.381D-06 for orbital      8a         
          max. resid. fock norm         =  4.381D-06 for orbital      8a         
 mo-orthogonalization: Cholesky decomposition
          Delta Eig. =     0.0000580064 eV 
 
                                              current damping :  0.150
 ITERATION  ENERGY          1e-ENERGY        2e-ENERGY     RMS[dD(SAO)]   TOL
  11  -78.063873521364    -170.18936069     58.699921514    0.104D-06 0.730D-13
          Norm of current diis error: 0.57638E-05
          max. resid. norm for Fia-block=  1.116D-06 for orbital      8a         
          max. resid. fock norm         =  1.116D-06 for orbital      8a         
          Delta Eig. =     0.0000251778 eV 

 DENSITY CONVERGED !

 
                                              current damping :  0.200
 ITERATION  ENERGY          1e-ENERGY        2e-ENERGY     RMS[dD(SAO)]   TOL
  12  -78.063873521368    -170.18936353     58.699924355    0.282D-07 0.747D-13
          Norm of current diis error: 0.13698E-05
          max. resid. norm for Fia-block=  3.444D-07 for orbital      8a         
          max. resid. fock norm         =  3.444D-07 for orbital      8a         
          Delta Eig. =     0.0000064127 eV 

 ENERGY & DENSITY CONVERGED !

 
                                              current damping :  0.250
 ITERATION  ENERGY          1e-ENERGY        2e-ENERGY     RMS[dD(SAO)]   TOL
  13  -78.063873521372    -170.18936272     58.699923548    0.651D-08 0.732D-13
          max. resid. norm for Fia-block=  5.584D-08 for orbital      8a         
          max. resid. fock norm         =  5.584D-08 for orbital      8a         

 convergence criteria satisfied after    13 iterations


                  ------------------------------------------ 
                 |  total energy      =    -78.06387352137  |
                  ------------------------------------------ 
                 :  kinetic energy    =     77.94343431578  :
                 :  potential energy  =   -156.00730783715  :
                 :  virial theorem    =      1.99845717103  :
                 :  wavefunction norm =      1.00000000000  :
                  .......................................... 


 orbitals $scfmo  will be written to file mos

    irrep                  4a          5a          6a          7a          8a   
 eigenvalues H         -0.79208    -0.64348    -0.58615    -0.50723    -0.37634
            eV         -21.5537    -17.5101    -15.9502    -13.8025    -10.2409
 occupation              2.0000      2.0000      2.0000      2.0000      2.0000 

    irrep                  9a         10a         11a         12a         13a   
 eigenvalues H          0.15214     0.15920     0.18747     0.19083     0.24112
            eV           4.1399      4.3320      5.1014      5.1927      6.5612
 
 
 
 
 ==============================================================================
                           electrostatic moments
 ==============================================================================

 reference point for electrostatic moments:    0.00000   0.00000   0.00000

 
              nuc           elec       ->  total
 ------------------------------------------------------------------------------
                          charge      
 ------------------------------------------------------------------------------
          16.000000     -16.000000      -0.000000
 
 ------------------------------------------------------------------------------
                       dipole moment  
 ------------------------------------------------------------------------------
   x       0.006373      -0.006370       0.000002
   y       5.541012      -5.541667      -0.000655
   z      12.685916     -12.686375      -0.000459
 
   | dipole moment | =     0.0008 a.u. =     0.0020 debye 
 
 ------------------------------------------------------------------------------
                     quadrupole moment
 ------------------------------------------------------------------------------
  xx      40.567696     -49.596679      -9.028983
  yy       5.686316     -16.668454     -10.982138
  zz      18.460025     -28.440546      -9.980521
  xy       0.026066      -0.024820       0.001246
  xz       0.011165      -0.010190       0.000975
  yz      -1.232749       0.015790      -1.216959
 
     1/3  trace=      -9.997214
     anisotropy=       2.702724
 
 ==============================================================================
 


    ------------------------------------------------------------------------
         total  cpu-time :  2 minutes and  1 seconds
         total wall-time :   5.72 seconds
    ------------------------------------------------------------------------

   ****  dscf : all done  ****


    2019-04-01 23:08:41.934 

