 operating system is UNIX !
 hostname is         c-7-10.local

 ridft (c-7-10.local) : TURBOMOLE V7.0.2( ) 8 Jan 2016 at 10:54:38
 Copyright (C) 2016 TURBOMOLE GmbH, Karlsruhe


    2017-11-04 18:55:36.489 



                                  r i d f t

                        DFT program with RI approximation 
                                for coulomb part 




                                                 
                                 References:     
                                                 
          TURBOMOLE:                             
              R. Ahlrichs, M. Baer, M. Haeser, H. Horn, and
              C. Koelmel
              Electronic structure calculations on workstation
              computers: the program system TURBOMOLE
              Chem. Phys. Lett. 162: 165 (1989)
          Density Functional:                              
              O. Treutler and R. Ahlrichs                      
              Efficient Molecular Numerical Integration Schemes
              J. Chem. Phys. 102: 346 (1995)                   
          Parallel Version:                                
              Performance of parallel TURBOMOLE for Density    
              Functional Calculations                          
              M. v. Arnim and R. Ahlrichs                      
              J. Comp. Chem. 19: 1746 (1998)                   
          RI-J Method:                                     
              Auxiliary Basis Sets to approximate Coulomb      
              Potentials                                       
              Chem. Phys. Lett. 240: 283 (1995)                
              K. Eichkorn, O. Treutler, H. Oehm, M. Haeser     
              and R. Ahlrichs                                  
              Chem. Phys. Lett. 242: 652 (1995)                
                                                           
              Auxiliary Basis Sets for Main Row Atoms and their
              Use to approximate Coulomb Potentials            
              K. Eichkorn, F. Weigend, O. Treutler and         
              R. Ahlrichs                                      
              Theo. Chem. Acc. 97: 119 (1997)                   
                                                           
              Accurate Coulomb-fitting basis sets for H to Rn 
              F. Weigend                                        
              Phys. Chem. Chem. Phys. 8: 1057 (2006)            
                                                           
          Multipole accelerated RI-J (MARI-J):             
              Fast evaluation of the Coulomb potential for     
              electron densities using multipole accelerated   
              resolution of identity approximation             
              M. Sierka, A. Hogekamp and R. Ahlrichs           
              J. Chem. Phys. 118: 9136 (2003)                  
          RI-JK Method:                                     
              A fully direct RI-HF algorithm: Implementation,
              optimised auxiliary basis sets, demonstration of
              accuracy and efficiency                         
              F. Weigend                                      
              Phys. Chem. Chem. Phys. 4: 4285 (2002)           
          Two-component HF and DFT with spin-orbit coupling:  
              Self-consistent treatment of spin-orbit         
              interactions with efficient Hartree-Fock and    
              density functional methods                      
              M. K. Armbruster, F. Weigend, C. van Wüllen and 
              W. Klopper                                      
              Phys. Chem. Chem. Phys. 10: 1748 (2008)         
          Relativistic all-electron 2c calculations           
              An efficient implementation of two-component    
              relativistic exact-decoupling methods for large 
              molecules                                       
              D. Peng, N. Middendorf, F. Weigend, M. Reiher   
              J. Chem. Phys. 138, 184105 (2013)               
                                         


 


              +--------------------------------------------------+
              |      general information about current run       |
              +--------------------------------------------------+

 

 DENSITY CONVERGENCE CHECK SWITCHED ON !
 SCF CONVERGENCE IF RMS(delta[D]) <     0.1000000000E-06

 A HF calculation using the RI-J approximation will be carried out.
 Allocatable memory for RI due to $ricore (MB):       14000


              +--------------------------------------------------+
              | Atomic coordinate, charge and isotop information |
              +--------------------------------------------------+

                    atomic coordinates            atom    charge  isotop
         -0.80414168    1.10380519    0.59515066    c      6.000     0
          2.03820702    0.62009881   -0.00426129    c      6.000     0
          0.89491681    4.76814182   -1.34475394    c      6.000     0
          3.15023497    3.30654856   -0.28466227    c      6.000     0
          4.74761880   -4.50491443    3.79840420    c      6.000     0
          6.57095680    6.02164437    5.14918813    c      6.000     0
          1.08012128   -4.77768654    0.78551667    c      6.000     0
         -7.80088970   -3.42949127   -4.36436967    c      6.000     0
          8.35644019    3.10734556    1.85043260    c      6.000     0
          5.47864265   -3.91602930   -0.87486558    c      6.000     0
          6.86517591    7.49233613    0.62668138    c      6.000     0
         -5.35679505   -2.38593723   -5.49718821    c      6.000     0
          3.63377315   -3.52475643    1.32287491    c      6.000     0
          6.45040586    5.22290801    2.37769190    c      6.000     0
          0.71229820    4.69561201   -4.22466310    c      6.000     0
         -5.38788602   -2.30972797   -8.38965691    c      6.000     0
         -2.94881103   -1.19815305   -9.48322940    c      6.000     0
         -3.50352611   -0.56384068    4.08079394    c      6.000     0
         -3.39360248   -0.50082799    6.71065625    c      6.000     0
         -0.22004169    1.64970854    5.41319644    c      6.000     0
         -1.46430474    0.81942803    3.24218855    n      7.000     0
         -6.95259411   -2.99274295    3.81077593    c      6.000     0
         -7.02862643   -3.05360293    6.39511751    n      7.000     0
         -8.80711774   -4.31031262    2.54620475    n      7.000     0
         -7.62455529   -3.35994048   -1.61681974    n      7.000     0
         -5.28326378   -1.83586232    8.12792850    c      6.000     0
         -9.24168347   -4.61719049   -0.10487584    c      6.000     0
         -5.19758719   -1.74401199    2.56066381    n      7.000     0
         -1.32686500    0.90347117    7.50196261    n      7.000     0
          3.86132429    4.29083355    2.10787995    o      8.000     0
          3.34355254   -0.81506873    1.80505970    o      8.000     0
         -1.35025198    3.58729510   -0.30504471    o      8.000     0
          2.90316022    5.96665661   -5.19467402    o      8.000     0
        -11.00161259   -5.96608669   -0.77701340    o      8.000     0
         -5.62021044   -2.09789222   10.39310565    o      8.000     0
         -6.28490975   -2.28162328   -0.72912754    h      1.000     0
        -10.09760126   -5.28297825    3.56983692    h      1.000     0
         -8.41471832   -4.02918444    7.29494779    h      1.000     0
         -2.03049566   -0.23129914   -0.39275859    h      1.000     0
          2.10740563   -0.28067478   -1.87097955    h      1.000     0
          4.73233750    3.31386808   -1.60965810    h      1.000     0
          2.71402338    6.14044366   -7.00738214    h      1.000     0
          0.93220819    6.72539222   -0.68789649    h      1.000     0
          1.47577608    2.77299980    5.25873434    h      1.000     0
         -5.03940861   -0.46575093   -4.76785901    h      1.000     0
         -8.12990367   -5.38240732   -4.96521175    h      1.000     0
         -3.76210928   -3.54691456   -4.84781561    h      1.000     0
         -7.01089645   -1.18672648   -9.02852935    h      1.000     0
         -5.67316133   -4.22785061   -9.12600149    h      1.000     0
         -9.42652584   -2.31040999   -5.00847338    h      1.000     0
         -0.24570638   -4.43361831    2.33168614    h      1.000     0
         -1.03847356    5.64435784   -4.80654267    h      1.000     0
          0.63949778    2.72469440   -4.88965583    h      1.000     0
          7.92942792    1.46409035    3.02521517    h      1.000     0
          3.44283759   -4.13831697    5.35838816    h      1.000     0
          0.24316624   -4.08354818   -0.97654957    h      1.000     0
          6.53732381   -3.55167365    4.20136254    h      1.000     0
          1.33381691   -6.82118548    0.58558280    h      1.000     0
          7.28065488   -2.98916005   -0.46725518    h      1.000     0
          6.25621344    4.39167634    6.38170589    h      1.000     0
          6.63636398    6.97337947   -1.36283094    h      1.000     0
          5.12079250    7.44087382    5.54536903    h      1.000     0
         10.26959737    3.77082848    2.27747710    h      1.000     0
          5.51259668    8.99294584    1.06984531    h      1.000     0
          5.09427293   -6.54025334    3.67590768    h      1.000     0
          8.42513546    6.82940501    5.58221208    h      1.000     0
          8.32841789    2.52344441   -0.13475321    h      1.000     0
          5.82286374   -5.93509120   -1.16866560    h      1.000     0
          8.77942820    8.23936873    0.87511363    h      1.000     0
          4.72695787   -3.14964776   -2.64591728    h      1.000     0
         -2.66380850    0.74467150   -8.82020871    h      1.000     0
         -1.30096176   -2.31277117   -8.90358411    h      1.000     0
         -2.99489773   -1.16311122  -11.55112441    h      1.000     0
 
       center of nuclear mass  :   -1.08523492   -0.10004534    1.00971776
       center of nuclear charge:   -0.93351437   -0.08479213    0.86603355

              +--------------------------------------------------+
              |               basis set information              |
              +--------------------------------------------------+

              we will work with the 1s 3p 5d 7f 9g ... basis set
              ...i.e. with spherical basis functions...

   type   atoms  prim   cont   basis
   ---------------------------------------------------------------------------
    c       23     77     57   def2-QZVP   [7s4p3d2f1g|15s8p3d2f1g]
    n        6     77     57   def2-QZVP   [7s4p3d2f1g|15s8p3d2f1g]
    o        6     77     57   def2-QZVP   [7s4p3d2f1g|15s8p3d2f1g]
    h       38     33     30   def2-QZVP   [4s3p2d1f|7s3p2d1f]
   ---------------------------------------------------------------------------
   total:   73   3949   3135
   ---------------------------------------------------------------------------

   total number of primitive shells          :  100
   total number of contracted shells         :  975
   total number of cartesian basis functions : 3850
   total number of SCF-basis functions       : 3135


 integral neglect threshold       :  0.87E-14
 integral storage threshold THIZE :  0.10E-04
 integral storage threshold THIME :         5

 RI-J AUXILIARY BASIS SET information:

              we will work with the 1s 3p 5d 7f 9g ... basis set
              ...i.e. with spherical basis functions...

   type   atoms  prim   cont   basis
   ---------------------------------------------------------------------------
    c       23     70     49   def2-QZVP   [6s4p3d1f1g|12s5p4d2f1g]
    n        6     70     49   def2-QZVP   [6s4p3d1f1g|12s5p4d2f1g]
    o        6     70     49   def2-QZVP   [6s4p3d1f1g|12s5p4d2f1g]
    h       38     16     11   def2-QZVP   [3s1p1d|5s2p1d]
   ---------------------------------------------------------------------------
   total:   73   3058   2133
   ---------------------------------------------------------------------------

   total number of primitive shells          :   80
   total number of contracted shells         :  715
   total number of cartesian basis functions : 2591
   total number of SCF-basis functions       : 2133


 symmetry group of the molecule :   c1 

 the group has the following generators :
   c1(z)

    1 symmetry operations found

 there are 1 real representations :   a   

 maximum number of shells which are related by symmetry :  1


    mo occupation :
   irrep   mo's   occupied
    a     3135      133
 
 number of basis functions   :         3135
 number of occupied orbitals :          133
 

 biggest AO integral is expected to be     6.990327543
  
           ------------------------
               RI-J - INFORMATION
           ------------------------
 Contributions to RI integral batches: 
  neglected integral batches:      261734
  direct contribution:             133193
  memory contribution:       80873
 Memory core needed for (P|Q) and Cholesky     35 MByte
 Memory core minimum needed except of (P|Q)     9 MByte
 Total minimum memory core needed (sum)        43 MByte
  
 ****************************************
 Memory allocated for RI-J 11189 MByte
 ****************************************
                                            

          ------------------------
          nuclear repulsion energy  :   4217.56609896    
          ------------------------

 
          -----------------
          -S,T+V- integrals
          -----------------

 1e-integrals will be neglected if expon. factor < 0.868042E-15
 
   Difference densities algorithm switched on.
   The maximal number of linear combinations of
   difference densities is          20 .

 automatic virtual orbital shift switched on 
      shift if e(lumo)-e(homo) < 0.10000000    


 DIIS switched on: error vector is FDS-SDF
 Max. Iterations for DIIS is     :   5
 DIIS matrix (see manual) 
    Scaling factor of diagonals  :  1.200
    threshold for scaling factor :  0.000

 scf convergence criterion : increment of total energy < .1000000D-08
                  and increment of one-electron energy < .1000000D-05

  MOs are in ASCII format !


 reading orbital data $scfmo  from file mos . 

 orbital characterization : scfconv=9
 

 DSCF restart information will be dumped onto file mos


 Starting SCF iterations


 ENERGY & DENSITY CONVERGED !


 ITERATION  ENERGY          1e-ENERGY        2e-ENERGY     RMS[dD(SAO)]   TOL
   1  -1669.4021267609    -10681.581990     4794.6137647    0.000D+00 0.866D-14
                            exK = -222.042263599     Coul =  5016.65602826    
                            current damping = 0.700
 
          max. resid. norm for Fia-block=  1.170D-01 for orbital      1a         
          max. resid. fock norm         =  6.830D-01 for orbital   3100a         

 End of SCF iterations

   convergence criteria satisfied after    1 iterations


                  ------------------------------------------ 
                 |  total energy      =  -1669.40212676090  |
                  ------------------------------------------ 
                 :  kinetic energy    =   1672.82379342910  :
                 :  potential energy  =  -3342.22592018999  :
                 :  virial theorem    =      2.00204963598  :
                 :  wavefunction norm =      1.00000000000  :
                  .......................................... 


 orbitals $scfmo  will be written to file mos

    irrep                129a        130a        131a        132a        133a   
 eigenvalues H         -0.42059    -0.38747    -0.42612    -0.40530    -0.28214
            eV         -11.4450    -10.5437    -11.5954    -11.0289     -7.6774
 occupation              2.0000      2.0000      2.0000      2.0000      2.0000 

    irrep                134a        135a        136a        137a        138a   
 eigenvalues H          0.13032     0.14530     0.08383     0.11008     0.10826
            eV           3.5463      3.9538      2.2812      2.9955      2.9459
 
 
 
 
 ==============================================================================
                           electrostatic moments
 ==============================================================================

 reference point for electrostatic moments:    0.00000   0.00000   0.00000

 
              nuc           elec       ->  total
 ------------------------------------------------------------------------------
                          charge      
 ------------------------------------------------------------------------------
         266.000000    -266.000000       0.000000
 
 ------------------------------------------------------------------------------
                       dipole moment  
 ------------------------------------------------------------------------------
   x    -248.314822     250.124260       1.809439
   y     -22.554708      22.665408       0.110700
   z     230.364923    -233.628499      -3.263575
 
   | dipole moment | =     3.7333 a.u. =     9.4890 debye 
 
 ------------------------------------------------------------------------------
                     quadrupole moment
 ------------------------------------------------------------------------------
  xx    7874.704041   -8038.045140    -163.341100
  yy    3893.402283   -4049.470796    -156.068513
  zz    5683.636422   -5861.554693    -177.918271
  xy    3383.237992   -3387.863340      -4.625348
  xz      97.727937     -93.657837       4.070099
  yz    -143.049363     136.814865      -6.234498
 
     1/3  trace=    -165.775961
     anisotropy=      24.533319
 
 ==============================================================================
 
 


    ------------------------------------------------------------------------
         total  cpu-time : 10 hours 11 minutes and 15 seconds
         total wall-time :  9 hours 10 minutes and 56 seconds
    ------------------------------------------------------------------------


   ****  ridft : all done  ****


    2017-11-05 04:06:32.123 

