 operating system is UNIX !

 ridft (c-13-16.gp.local) : TURBOMOLE V7.2 ( 21454 ) 4 Oct 2017 at 12:48:15
 Copyright (C) 2017 TURBOMOLE GmbH, Karlsruhe


    2018-04-28 11:01:49.096 



                                  r i d f t

                        DFT program with RI approximation 
                                for coulomb part 




                                                 
                                 References:     
                                                 
          TURBOMOLE:                             
              R. Ahlrichs, M. Baer, M. Haeser, H. Horn, and
              C. Koelmel
              Electronic structure calculations on workstation
              computers: the program system TURBOMOLE
              Chem. Phys. Lett. 162: 165 (1989)
          Density Functional:                              
              O. Treutler and R. Ahlrichs                      
              Efficient Molecular Numerical Integration Schemes
              J. Chem. Phys. 102: 346 (1995)                   
          Parallel Version:                                
              Performance of parallel TURBOMOLE for Density    
              Functional Calculations                          
              M. v. Arnim and R. Ahlrichs                      
              J. Comp. Chem. 19: 1746 (1998)                   
          RI-J Method:                                     
              Auxiliary Basis Sets to approximate Coulomb      
              Potentials                                       
              Chem. Phys. Lett. 240: 283 (1995)                
              K. Eichkorn, O. Treutler, H. Oehm, M. Haeser     
              and R. Ahlrichs                                  
              Chem. Phys. Lett. 242: 652 (1995)                
                                                           
              Auxiliary Basis Sets for Main Row Atoms and their
              Use to approximate Coulomb Potentials            
              K. Eichkorn, F. Weigend, O. Treutler and         
              R. Ahlrichs                                      
              Theo. Chem. Acc. 97: 119 (1997)                   
                                                           
              Accurate Coulomb-fitting basis sets for H to Rn 
              F. Weigend                                        
              Phys. Chem. Chem. Phys. 8: 1057 (2006)            
                                                           
          Multipole accelerated RI-J (MARI-J):             
              Fast evaluation of the Coulomb potential for     
              electron densities using multipole accelerated   
              resolution of identity approximation             
              M. Sierka, A. Hogekamp and R. Ahlrichs           
              J. Chem. Phys. 118: 9136 (2003)                  
          RI-JK Method:                                     
              A fully direct RI-HF algorithm: Implementation,
              optimised auxiliary basis sets, demonstration of
              accuracy and efficiency                         
              F. Weigend                                      
              Phys. Chem. Chem. Phys. 4: 4285 (2002)           
          Two-component HF and DFT with spin-orbit coupling:  
              Self-consistent treatment of spin-orbit         
              interactions with efficient Hartree-Fock and    
              density functional methods                      
              M. K. Armbruster, F. Weigend, C. van Wüllen and 
              W. Klopper                                      
              Phys. Chem. Chem. Phys. 10: 1748 (2008)         
          Relativistic all-electron 2c calculations           
              An efficient implementation of two-component    
              relativistic exact-decoupling methods for large 
              molecules                                       
              D. Peng, N. Middendorf, F. Weigend, M. Reiher   
              J. Chem. Phys. 138, 184105 (2013)               
                                         




              +--------------------------------------------------+
              |      general information about current run       |
              +--------------------------------------------------+

 

 DENSITY CONVERGENCE CHECK SWITCHED ON !
 SCF CONVERGENCE IF RMS(delta[D]) <     0.1000000000E-06

 A HF calculation using the RI-JK approximation will be carried out.
 Allocatable memory for RI due to $ricore (MB):                   500


              +--------------------------------------------------+
              | Atomic coordinate, charge and isotop information |
              +--------------------------------------------------+

                    atomic coordinates            atom    charge  isotop
          0.72286221   -0.13342784    1.44922307    c      6.000     0
         -1.96652361    0.74986460    2.00487836    c      6.000     0
         -3.34779081   -0.53195838    1.16847480    h      1.000     0
         -2.31438118    0.82341998    4.03554587    h      1.000     0
         -2.29425231    2.63375749    1.23416246    h      1.000     0
          1.11653991   -2.77188457    2.54730908    c      6.000     0
          3.02906809   -3.44487625    2.17337942    h      1.000     0
          0.82953040   -2.77174821    4.58879681    h      1.000     0
         -0.20771691   -4.11711656    1.71835424    h      1.000     0
          2.60455104    1.69779678    2.64400926    c      6.000     0
          4.54364612    1.10632267    2.26905776    h      1.000     0
          2.35040532    1.78763235    4.68786235    h      1.000     0
          2.35908342    3.59997103    1.88774326    h      1.000     0
          1.13754132   -0.20982422   -1.40424905    c      6.000     0
          0.86778458    1.65736370   -2.23535363    h      1.000     0
          3.04943970   -0.83801691   -1.85131197    h      1.000     0
         -0.18808592   -1.50715074   -2.30399320    h      1.000     0
         -0.70870101    0.13098378   11.27502892    c      6.000     0
          1.98002486   -0.75523352   10.72058414    c      6.000     0
          2.32856444   -0.82955485    8.69003474    h      1.000     0
          3.36223509    0.52538253   11.55723313    h      1.000     0
          2.30555602   -2.63930189   11.49182025    h      1.000     0
         -1.09873446    2.77010260   10.17741840    c      6.000     0
         -3.01106756    3.44470732   10.54940631    h      1.000     0
          0.22580973    4.11383294   11.00837211    h      1.000     0
         -0.80939997    2.77047414    8.13624516    h      1.000     0
         -1.12499727    0.20690583   14.12823878    c      6.000     0
         -3.03591886    0.83859778   14.57435245    h      1.000     0
          0.20255888    1.50127191   15.02933243    h      1.000     0
         -0.85937152   -1.66112689   14.95868221    h      1.000     0
         -2.59174265   -1.69785095   10.07855563    c      6.000     0
         -2.34810780   -3.60075864   10.83365046    h      1.000     0
         -4.53039209   -1.10490619   10.45345434    h      1.000     0
         -2.33718829   -1.78661969    8.03467195    h      1.000     0
 
       center of nuclear mass  :    0.00708231   -0.00125842    6.36209674
       center of nuclear charge:    0.00708251   -0.00125960    6.36209468

              +--------------------------------------------------+
              |               basis set information              |
              +--------------------------------------------------+

              we will work with the 1s 3p 5d 7f 9g ... basis set
              ...i.e. with spherical basis functions...

   type   atoms  prim   cont   basis
   ---------------------------------------------------------------------------
    c       10     77     57   def2-QZVP   [7s4p3d2f1g|15s8p3d2f1g]
    h       24     33     30   def2-QZVP   [4s3p2d1f|7s3p2d1f]
   ---------------------------------------------------------------------------
   total:   34   1562   1290
   ---------------------------------------------------------------------------

   total number of primitive shells          :   42
   total number of contracted shells         :  410
   total number of cartesian basis functions : 1560
   total number of SCF-basis functions       : 1290


 integral neglect threshold       :  0.21E-13
 integral storage threshold THIZE :  0.10E-04
 integral storage threshold THIME :         5

 RI-JK AUXILIARY BASIS SET information:

              we will work with the 1s 3p 5d 7f 9g ... basis set
              ...i.e. with spherical basis functions...

   type   atoms  prim   cont   basis
   ---------------------------------------------------------------------------
    c       10     97     75   def2-QZVP   [10s8p5d1f1g|14s10p6d2f1g]
    h       24     20     18   def2-QZVP   [2s2p2d|4s2p2d]
   ---------------------------------------------------------------------------
   total:   34   1450   1182
   ---------------------------------------------------------------------------

   total number of primitive shells          :   41
   total number of contracted shells         :  394
   total number of cartesian basis functions : 1370
   total number of SCF-basis functions       : 1182


 symmetry group of the molecule :   c1 

 the group has the following generators :
   c1(z)

    1 symmetry operations found

 there are 1 real representations :   a   

 maximum number of shells which are related by symmetry :  1


    mo occupation :
   irrep   mo's   occupied
    a     1290       42
 
 number of basis functions   :                   1290
 number of occupied orbitals :                     42
 

 biggest AO integral is expected to be     5.262544080
  
           ------------------------
               RI-JK - INFORMATION
           ------------------------
 Contributions to RI integral batches: 
  neglected integral batches:                 27367
  direct contribution:                        56888
  memory contribution:                     0
 Memory core needed for (P|Q) and Cholesky     11 MByte
 Memory core minimum needed except of (P|Q)     1 MByte
 Total minimum memory core needed (sum)        12 MByte
  
 ****************************************
 Memory allocated for RI-J    12 MByte
 ****************************************
                                            
 total memory allocated for calculation of  (Q|P)**(-1/2) :   17 MiB

  forming (P|Q)**(-1/2) 
 eigenvalues of original matrix 
 smallest =0.8952544790594E-07  largest = 42.79937136548    
  The symmetry information takes                      1  MB

          ------------------------
          nuclear repulsion energy  :   573.012418956    
          ------------------------


         -----------------
         -S,T+V- integrals
         -----------------

 1e-integrals will be neglected if expon. factor < 0.214228E-14
 
   Difference densities algorithm switched on.
   The maximal number of linear combinations of
   difference densities is                    20 .

 DIIS switched on: error vector is FDS-SDF
 Max. Iterations for DIIS is     :   5
 DIIS matrix (see manual) 
    Scaling factor of diagonals  :  1.200
    threshold for scaling factor :  0.000

 scf convergence criterion : increment of total energy < .1000000D-08
                  and increment of one-electron energy < .1000000D-05

  MOs are in ASCII format !


 automatic virtual orbital shift switched on 
      shift if e(lumo)-e(homo) < 0.10000000    


 reading orbital data $scfmo  from file mos
 orbital characterization : scfconv=9

 DSCF restart information will be dumped onto file mos


 Starting SCF iterations

 
 BLOCKING OF MOS FOR RI-K
 
 
 occupied MOs partitioned into blocks of maximum length 35
 this requires 494 MiB core memory.
 
            MULTIPLE PASS Statistics 
 ----------------------------------------------------
  pass       irrep     lambda      batch : MO  to  MO
 ----------------------------------------------------
   1       1  ->  1    1  -> 35             1  ->  35
   2       1  ->  1   36  -> 42            36  ->  42



 ENERGY & DENSITY CONVERGED !


 ITERATION  ENERGY          1e-ENERGY        2e-ENERGY     RMS[dD(SAO)]   TOL
   1  -392.73289654226    -1666.7505684     701.00525293    0.000D+00 0.214D-13
                           RI-K = -60.3552480902     Coul =  761.360501021    
                            current damping = 0.700
 
          max. resid. norm for Fia-block=  1.974D-01 for orbital      2a         
          max. resid. fock norm         =  6.190D-01 for orbital   1274a         

 End of SCF iterations

   convergence criteria satisfied after     1 iterations


                  ------------------------------------------ 
                 |  total energy      =   -392.73289654226  |
                  ------------------------------------------ 
                 :  kinetic energy    =    393.37720907233  :
                 :  potential energy  =   -786.11010561459  :
                 :  virial theorem    =      2.00164058712  :
                 :  wavefunction norm =      1.00000000000  :
                  .......................................... 


 orbitals $scfmo  will be written to file mos

    irrep                 38a         39a         40a         41a         42a   
 eigenvalues H         -0.43986    -0.43986    -0.43891    -0.43891    -0.42947
            eV         -11.9693    -11.9692    -11.9434    -11.9433    -11.6865
 occupation              2.0000      2.0000      2.0000      2.0000      2.0000 

    irrep                 43a         44a         45a         46a         47a   
 eigenvalues H          0.10709     0.12258     0.13734     0.13733     0.14420
            eV           2.9140      3.3356      3.7372      3.7370      3.9240
 
 
 
 
 ==============================================================================
                           electrostatic moments
 ==============================================================================

 reference point for electrostatic moments:    0.00000   0.00000   0.00000

 
              nuc           elec       ->  total
 ------------------------------------------------------------------------------
                          charge      
 ------------------------------------------------------------------------------
          84.000000     -84.000000       0.000000
 
 ------------------------------------------------------------------------------
                       dipole moment  
 ------------------------------------------------------------------------------
   x       0.594931      -0.594948      -0.000017
   y      -0.105806       0.105816       0.000010
   z     534.415953    -534.415927       0.000026
 
   | dipole moment | =     0.0000 a.u. =     0.0001 debye 
 
 ------------------------------------------------------------------------------
                     quadrupole moment
 ------------------------------------------------------------------------------
  xx     310.828909    -364.118933     -53.290023
  yy     269.247013    -322.538038     -53.291024
  zz    5695.759063   -5749.037004     -53.277941
  xy      -7.954126       7.953911      -0.000215
  xz    -291.667082     291.665898      -0.001184
  yz      53.900905     -53.900703       0.000202
 
     1/3  trace=     -53.286330
     anisotropy=       0.012788
 
 ==============================================================================
 


    ------------------------------------------------------------------------
         total  cpu-time :  3 minutes and  7 seconds
         total wall-time :  3 minutes and 17 seconds
    ------------------------------------------------------------------------

   ****  ridft : all done  ****


    2018-04-28 11:05:06.017 

