
OPTIMIZATION CYCLE 4
Sun Jan 31 12:50:52 PST 2016
 operating system is UNIX !
 hostname is         c-9-333.local

 statpt (c-9-333.local) : TURBOMOLE V7.0.2( ) 8 Jan 2016 at 10:54:38
 Copyright (C) 2016 TURBOMOLE GmbH, Karlsruhe


    2016-01-31 12:50:52.882 



                           this is S T A T P T   


                     hessian and coordinate update for
                          stationary point search 

                     by barbara unterreiner, marek sierka,
                           and reinhart ahlrichs

                          quantum chemistry group
                          universitaet  karlsruhe
                                  germany


  Keyword $statpt not found - using default options
 
        ***************  Stationary point options ******************
        ************************************************************
           Maximum allowed trust radius:           3.000000E-01
           Minimum allowed trust radius:           1.000000E-03
           Initial trust radius:                   1.500000E-01
           GDIIS used if gradient norm <           1.000000E-02
           Number of previous steps for GDIIS:       5
           Hessian update method:                  BFGS
                        *** Convergence criteria ***                
           Threshold for energy change:            1.000000E-07
           Threshold for max displacement element: 1.000000E-03
           Threshold for max gradient element :    1.000000E-04
           Threshold for RMS of displacement:      5.000000E-04
           Threshold for RMS of gradient:          5.000000E-04
        ************************************************************
 
  actual coordinates :
         0.000022139124         2.414947534808        -0.447708843232
        -2.327765693259         1.262570017985        -1.649296262242
        -2.327658544992        -1.262502880287        -1.649525740367
        -0.000022329720        -2.414947485915        -0.447711344732
         2.327656181388         1.262504985176        -1.649528657933
         2.327767719440        -1.262567874960        -1.649293350421
         0.000045851536         1.460578887329         2.349041412273
        -0.000045798640        -1.460582142405         2.349041179528
         0.000047646795         4.467707496886        -0.525565959282
        -3.855853042371         2.420010604470        -2.352835654162
        -3.855378026872        -2.419936494987        -2.353875656783
        -0.000047790453        -4.467707387537        -0.525571442128
         3.855368670381         2.419940094301        -2.353892046446
         3.855862699735        -2.420006932010        -2.352818315345
        -1.665119098675         2.193551376844         3.314282078265
         1.665294582063         2.193446525132         3.314217007281
        -1.665294945224        -2.193450772696         3.314216413934
         1.665119779744        -2.193555552135         3.314281040815
  actual gradients :
         0.000010612563         0.000012078648         0.000094704600
        -0.000029407220        -0.000049362306        -0.000019677504
        -0.000028163199         0.000051585511        -0.000021835203
        -0.000010620167        -0.000012259106         0.000093985946
         0.000027826784        -0.000051571699        -0.000021843726
         0.000029701699         0.000049446573        -0.000019667957
        -0.000004910330        -0.000009149476        -0.000054653943
         0.000004928199         0.000009333114        -0.000054571637
         0.000000317001         0.000000220355        -0.000033493089
         0.000017834596         0.000026670408         0.000019858960
         0.000026551872        -0.000026654177         0.000000036712
        -0.000000314571        -0.000000255369        -0.000033515710
        -0.000026694406         0.000026707033        -0.000000328715
        -0.000017648081        -0.000026638555         0.000020218357
         0.000004539158         0.000004759170         0.000008245887
        -0.000004709194         0.000005298048         0.000007093768
         0.000004552003        -0.000005377896         0.000007160762
        -0.000004396707        -0.000004830285         0.000008300562
     Number of symmetry restricted degrees of freedom:    54
     Constituted by:     3 translational degrees of freedom
                         3 rotational degrees of freedom
                      48 internal degrees of freedom

  *************************************************************************
   ATOM                      CARTESIAN COORDINATES
    1 c       0.00002213912410      2.41494753480792     -0.44770884323230
    2 c      -2.32776569325897      1.26257001798524     -1.64929626224176
    3 c      -2.32765854499237     -1.26250288028652     -1.64952574036740
    4 c      -0.00002232972022     -2.41494748591458     -0.44771134473219
    5 c       2.32765618138754      1.26250498517592     -1.64952865793276
    6 c       2.32776771943959     -1.26256787496035     -1.64929335042141
    7 c       0.00004585153584      1.46057888732891      2.34904141227305
    8 c      -0.00004579863960     -1.46058214240511      2.34904117952760
    9 h       0.00004764679545      4.46770749688582     -0.52556595928202
   10 h      -3.85585304237145      2.42001060447037     -2.35283565416175
   11 h      -3.85537802687156     -2.41993649498733     -2.35387565678343
   12 h      -0.00004779045302     -4.46770738753667     -0.52557144212843
   13 h       3.85536867038086      2.41994009430129     -2.35389204644609
   14 h       3.85586269973461     -2.42000693201017     -2.35281831534453
   15 h      -1.66511909867481      2.19355137684385      3.31428207826536
   16 h       1.66529458206322      2.19344652513234      3.31421700728140
   17 h      -1.66529494522361     -2.19345077269598      3.31421641393371
   18 h       1.66511977974440     -2.19355555213486      3.31428104081491
  *************************************************************************
   ATOM                      CARTESIAN GRADIENTS  
    1 c       0.00001061256308      0.00001207864763      0.00009470460036
    2 c      -0.00002940721969     -0.00004936230610     -0.00001967750432
    3 c      -0.00002816319877      0.00005158551119     -0.00002183520281
    4 c      -0.00001062016712     -0.00001225910635      0.00009398594571
    5 c       0.00002782678450     -0.00005157169852     -0.00002184372594
    6 c       0.00002970169917      0.00004944657344     -0.00001966795678
    7 c      -0.00000491032969     -0.00000914947578     -0.00005465394345
    8 c       0.00000492819927      0.00000933311372     -0.00005457163739
    9 h       0.00000031700102      0.00000022035473     -0.00003349308868
   10 h       0.00001783459564      0.00002667040833      0.00001985896010
   11 h       0.00002655187179     -0.00002665417654      0.00000003671184
   12 h      -0.00000031457052     -0.00000025536876     -0.00003351570991
   13 h      -0.00002669440608      0.00002670703314     -0.00000032871488
   14 h      -0.00001764808118     -0.00002663855493      0.00002021835689
   15 h       0.00000453915779      0.00000475917029      0.00000824588651
   16 h      -0.00000470919396      0.00000529804818      0.00000709376768
   17 h       0.00000455200343     -0.00000537789566      0.00000716076235
   18 h      -0.00000439670725     -0.00000483028505      0.00000830056229
  *************************************************************************

  norm of actual CARTESIAN gradient:  2.19357E-04
  norm of actual INTERNAL  gradient:  1.64103E-04

  ENERGY =    -311.4368646810 a.u.; # of cycle =    4

  Approximate Hessian read from $hessapprox data section

  Hessian updated according to BFGS formula
  Number of zero Hessian eigenvalues:   0
  Number of structures for GDIIS interpolation:    4
  GDIIS step:     0.001009

  Transforming internal coordinate displacements to Cartesian space
      Iteration   1 residual norm     1.009315E-03
      Iteration   2 residual norm     1.704155E-07
      Iteration   3 residual norm     3.546383E-15
      Transformation converged
      Residual norm:    3.546383E-15 after    3 iterations

      ****************************************************************** 
                          CONVERGENCE INFORMATION

                               Converged?     Value      Criterion
             Energy change         yes      0.0000000   0.0000001
             RMS of displacement   yes      0.0001457   0.0005000
             RMS of gradient       yes      0.0000237   0.0005000
             MAX displacement      yes      0.0004352   0.0010000
             MAX gradient          yes      0.0000572   0.0001000
      ****************************************************************** 


    ------------------------------------------------------------------------
         total  cpu-time :   0.04 seconds
         total wall-time :   0.04 seconds
    ------------------------------------------------------------------------


   ****  statpt : all done  ****


    2016-01-31 12:50:52.915 

fine, there is no data group "$actual step"
next step = ridft
 operating system is UNIX !
 hostname is         c-9-333.local

 ridft (c-9-333.local) : TURBOMOLE V7.0( ) 18 Nov 2015 at 09:57:41
 Copyright (C) 2015 TURBOMOLE GmbH, Karlsruhe


    2016-01-31 12:50:52.973 



                                  r i d f t

                        DFT program with RI approximation 
                                for coulomb part 




                                                 
                                 References:     
                                                 
          TURBOMOLE:                             
              R. Ahlrichs, M. Baer, M. Haeser, H. Horn, and
              C. Koelmel
              Electronic structure calculations on workstation
              computers: the program system TURBOMOLE
              Chem. Phys. Lett. 162: 165 (1989)
          Density Functional:                              
              O. Treutler and R. Ahlrichs                      
              Efficient Molecular Numerical Integration Schemes
              J. Chem. Phys. 102: 346 (1995)                   
          Parallel Version:                                
              Performance of parallel TURBOMOLE for Density    
              Functional Calculations                          
              M. v. Arnim and R. Ahlrichs                      
              J. Comp. Chem. 19: 1746 (1998)                   
          RI-J Method:                                     
              Auxiliary Basis Sets to approximate Coulomb      
              Potentials                                       
              Chem. Phys. Lett. 240: 283 (1995)                
              K. Eichkorn, O. Treutler, H. Oehm, M. Haeser     
              and R. Ahlrichs                                  
              Chem. Phys. Lett. 242: 652 (1995)                
                                                           
              Auxiliary Basis Sets for Main Row Atoms and their
              Use to approximate Coulomb Potentials            
              K. Eichkorn, F. Weigend, O. Treutler and         
              R. Ahlrichs                                      
              Theo. Chem. Acc. 97: 119 (1997)                   
                                                           
              Accurate Coulomb-fitting basis sets for H to Rn 
              F. Weigend                                        
              Phys. Chem. Chem. Phys. 8: 1057 (2006)            
                                                           
          Multipole accelerated RI-J (MARI-J):             
              Fast evaluation of the Coulomb potential for     
              electron densities using multipole accelerated   
              resolution of identity approximation             
              M. Sierka, A. Hogekamp and R. Ahlrichs           
              J. Chem. Phys. 118: 9136 (2003)                  
          RI-JK Method:                                     
              A fully direct RI-HF algorithm: Implementation,
              optimised auxiliary basis sets, demonstration of
              accuracy and efficiency                         
              F. Weigend                                      
              Phys. Chem. Chem. Phys. 4: 4285 (2002)           
          Two-component HF and DFT with spin-orbit coupling:  
              Self-consistent treatment of spin-orbit         
              interactions with efficient Hartree-Fock and    
              density functional methods                      
              M. K. Armbruster, F. Weigend, C. van Wüllen and 
              W. Klopper                                      
              Phys. Chem. Chem. Phys. 10: 1748 (2008)         
          Relativistic all-electron 2c calculations           
              An efficient implementation of two-component    
              relativistic exact-decoupling methods for large 
              molecules                                       
              D. Peng, N. Middendorf, F. Weigend, M. Reiher   
              J. Chem. Phys. 138, 184105 (2013)               
                                         


 


              +--------------------------------------------------+
              |      general information about current run       |
              +--------------------------------------------------+

 

 DENSITY CONVERGENCE CHECK SWITCHED ON !
 SCF CONVERGENCE IF RMS(delta[D]) <     0.1000000000E-06

 PBE functional
 exchange:    LDA + PBE
 correlation: LDA (PW) + PBE
 A DFT calculation using the RI-J approximation will be carried out.
 Allocatable memory for RI due to $ricore (MB):       15000


              +--------------------------------------------------+
              | Atomic coordinate, charge and isotop information |
              +--------------------------------------------------+

                    atomic coordinates            atom    charge  isotop
         -0.00002138    2.41511767   -0.44792329    c      6.000     0
         -2.32776702    1.26254266   -1.64941666    c      6.000     0
         -2.32773333   -1.26260486   -1.64946017    c      6.000     0
          0.00002119   -2.41511831   -0.44792481    c      6.000     0
          2.32773205    1.26260559   -1.64946071    c      6.000     0
          2.32776805   -1.26254200   -1.64941625    c      6.000     0
          0.00007780    1.46065303    2.34918595    c      6.000     0
         -0.00007773   -1.46065386    2.34918639    c      6.000     0
         -0.00004946    4.46789705   -0.52531852    h      1.000     0
         -3.85594498    2.41968256   -2.35343588    h      1.000     0
         -3.85581899   -2.41977637   -2.35362873    h      1.000     0
          0.00004926   -4.46789770   -0.52532105    h      1.000     0
          3.85581515    2.41977811   -2.35363357    h      1.000     0
          3.85594905   -2.41968086   -2.35342998    h      1.000     0
         -1.66507339    2.19360493    3.31445111    h      1.000     0
          1.66541044    2.19342587    3.31427487    h      1.000     0
         -1.66541088   -2.19342724    3.31427567    h      1.000     0
          1.66507416   -2.19360626    3.31445147    h      1.000     0
 
       center of nuclear mass  :   -0.00000004   -0.00000001   -0.28971741
       center of nuclear charge:   -0.00000003   -0.00000001   -0.24101193

              +--------------------------------------------------+
              |               basis set information              |
              +--------------------------------------------------+

              we will work with the 1s 3p 5d 7f 9g ... basis set
              ...i.e. with spherical basis functions...

   type   atoms  prim   cont   basis
   ---------------------------------------------------------------------------
    c        8     77     55   cc-pVQZ   [5s4p3d2f1g|21s6p3d2f1g]
    h       10     32     30   cc-pVQZ   [4s3p2d1f|6s3p2d1f]
   ---------------------------------------------------------------------------
   total:   18    936    740
   ---------------------------------------------------------------------------

   total number of primitive shells          :   45
   total number of contracted shells         :  220
   total number of cartesian basis functions :  910
   total number of SCF-basis functions       :  740


 integral neglect threshold       :  0.37E-13
 integral storage threshold THIZE :  0.10E-04
 integral storage threshold THIME :         5

 RI-J AUXILIARY BASIS SET information:

              we will work with the 1s 3p 5d 7f 9g ... basis set
              ...i.e. with spherical basis functions...

   type   atoms  prim   cont   basis
   ---------------------------------------------------------------------------
    c        8     70     49   cc-pVQZ   [6s4p3d1f1g|12s5p4d2f1g]
    h       10     16     11   cc-pVQZ   [3s1p1d|5s2p1d]
   ---------------------------------------------------------------------------
   total:   18    720    502
   ---------------------------------------------------------------------------

   total number of primitive shells          :   32
   total number of contracted shells         :  170
   total number of cartesian basis functions :  608
   total number of SCF-basis functions       :  502


 symmetry group of the molecule :   c1 

 the group has the following generators :
   c1(z)

    1 symmetry operations found

 there are 1 real representations :   a   

 maximum number of shells which are related by symmetry :  1


    mo occupation :
   irrep   mo's   occupied
    a      740       29
 
 number of basis functions   :          740
 number of occupied orbitals :           29
 
  
           ------------------
           density functional
           ------------------
 PBE functional
 exchange:    LDA + PBE
 correlation: LDA (PW) + PBE
 iterations will be done with small grid
  
 spherical integration : Lebedev's spherical grid
 spherical gridsize    :           5
    i.e. gridpoints    :         590
 value for diffuse not defined
 radial integration    : Chebyshev 2nd kind (scaling 3)
 radial gridsize       :           8
 integration cells     :          18
 partition function    : becke
 partition sharpness   :           3
  

 biggest AO integral is expected to be     3.537514283
  
           ------------------------
               RI-J - INFORMATION
           ------------------------
 Contributions to RI integral batches: 
  neglected integral batches:        2765
  direct contribution:                  0
  memory contribution:       21545
 Memory core needed for (P|Q) and Cholesky      2 MByte
 Memory core minimum needed except of (P|Q)     4 MByte
 Total minimum memory core needed (sum)         6 MByte
  
 ****************************************
 Memory allocated for RI-J  1747 MByte
 ****************************************
                                            

          ------------------------
          nuclear repulsion energy  :   370.245595969    
          ------------------------

 
          -----------------
          -S,T+V- integrals
          -----------------

 1e-integrals will be neglected if expon. factor < 0.367249E-14
 
   Difference densities algorithm switched on.
   The maximal number of linear combinations of
   difference densities is          20 .

 automatic virtual orbital shift switched on 
      shift if e(lumo)-e(homo) < 0.10000000    


 DIIS switched on: error vector is FDS-SDF
 Max. Iterations for DIIS is     :   4
 DIIS matrix (see manual) 
    Scaling factor of diagonals  :  1.200
    threshold for scaling factor :  0.000

 scf convergence criterion : increment of total energy < .1000000D-08
                  and increment of one-electron energy < .1000000D-05

  MOs are in ASCII format !


 reading orbital data $scfmo  from file mos . 

 orbital characterization : scfconv=9
 

 DSCF restart information will be dumped onto file mos


 Starting SCF iterations

          Overall gridpoints after grid construction =         82968

 ITERATION  ENERGY          1e-ENERGY        2e-ENERGY     RMS[dD(SAO)]   TOL
   1  -310.52671700547    -1151.8683521     471.09603910    0.000D+00 0.366D-13
                            Exc = -46.7920330578     Coul =  517.888072156    
                              N = 57.999892982    
                            current damping = 0.700
 
          max. resid. norm for Fia-block=  1.693D-04 for orbital      1a         
          max. resid. fock norm         =  5.509D-03 for orbital    739a         

 ITERATION  ENERGY          1e-ENERGY        2e-ENERGY     RMS[dD(SAO)]   TOL
   2  -310.52671706614    -1151.8675033     471.09519029    0.119D-05 0.232D-13
                            Exc = -46.7919682099     Coul =  517.887158502    
                              N = 57.999892982    
                            current damping = 0.650
 
          Norm of current diis error: 0.81351E-03
          max. resid. norm for Fia-block=  7.002D-05 for orbital      1a         
          max. resid. fock norm         =  2.269D-03 for orbital    739a         

 ITERATION  ENERGY          1e-ENERGY        2e-ENERGY     RMS[dD(SAO)]   TOL
   3  -310.52671707514    -1151.8684377     471.09612470    0.465D-06 0.183D-13
                            Exc = -46.7920134192     Coul =  517.888138117    
                              N = 57.999892979    
                            current damping = 0.600
 
          Norm of current diis error: 0.40877E-03
          max. resid. norm for Fia-block=  2.740D-05 for orbital      1a         
          max. resid. fock norm         =  8.927D-04 for orbital    739a         

 ITERATION  ENERGY          1e-ENERGY        2e-ENERGY     RMS[dD(SAO)]   TOL
   4  -310.52671707764    -1151.8675626     471.09524952    0.276D-06 0.171D-13
                            Exc = -46.7919654892     Coul =  517.887215014    
                              N = 57.999892981    
                            current damping = 0.650
 
          Norm of current diis error: 0.17150E-03
          max. resid. norm for Fia-block=  1.032D-05 for orbital      1a         
          max. resid. fock norm         =  3.351D-04 for orbital    739a         

 DENSITY CONVERGED !


 ITERATION  ENERGY          1e-ENERGY        2e-ENERGY     RMS[dD(SAO)]   TOL
   5  -310.52671707813    -1151.8678115     471.09549844    0.762D-07 0.162D-13
                            Exc = -46.7919774986     Coul =  517.887475940    
                              N = 57.999892981    
                            current damping = 0.700
 
          Norm of current diis error: 0.49970E-04
          max. resid. norm for Fia-block=  4.073D-06 for orbital      1a         
          max. resid. fock norm         =  1.320D-04 for orbital    739a         
          mo-orthogonalization: Cholesky decomposition

 DENSITY CONVERGED !


 ITERATION  ENERGY          1e-ENERGY        2e-ENERGY     RMS[dD(SAO)]   TOL
   6  -310.52671709578    -1151.8678360     471.09552292    0.285D-07 0.160D-13
                            Exc = -46.7919787244     Coul =  517.887501647    
                              N = 57.999892986    
                            current damping = 0.550
 
          Norm of current diis error: 0.30534E-04
          max. resid. norm for Fia-block=  1.671D-06 for orbital      1a         
          max. resid. fock norm         =  5.434D-05 for orbital    739a         

 ENERGY & DENSITY CONVERGED !

          Overall gridpoints after grid construction =        270484

 ITERATION  ENERGY          1e-ENERGY        2e-ENERGY     RMS[dD(SAO)]   TOL
   7  -310.52675523537    -1151.8678389     471.09548774    0.164D-07 0.155D-13
                            Exc = -46.7920168553     Coul =  517.887504592    
                              N = 57.999988564    
                            current damping = 0.600
 
          Norm of current diis error: 0.16230E-04
          max. resid. norm for Fia-block=  5.879D-07 for orbital      1a         
          max. resid. fock norm         =  1.927D-05 for orbital    739a         

 End of SCF iterations

   convergence criteria satisfied after    7 iterations


                  ------------------------------------------ 
                 |  total energy      =   -310.52675523537  |
                  ------------------------------------------ 
                 :  kinetic energy    =    309.06171035450  :
                 :  potential energy  =   -619.58846558987  :
                 :  virial theorem    =      1.99528206553  :
                 :  wavefunction norm =      1.00000000000  :
                  .......................................... 


 orbitals $scfmo  will be written to file mos

    irrep                 25a         26a         27a         28a         29a   
 eigenvalues H         -0.28857    -0.27529    -0.25801    -0.22567    -0.20475
            eV          -7.8525     -7.4910     -7.0208     -6.1408     -5.5717
 occupation              2.0000      2.0000      2.0000      2.0000      2.0000 

    irrep                 30a         31a         32a         33a         34a   
 eigenvalues H         -0.03607    -0.00071     0.00525     0.03373     0.04032
            eV          -0.9816     -0.0193      0.1427      0.9180      1.0973
 
 
 
 
 ==============================================================================
                           electrostatic moments
 ==============================================================================

 reference point for electrostatic moments:    0.00000   0.00000   0.00000

 
              nuc           elec       ->  total
 ------------------------------------------------------------------------------
                          charge      
 ------------------------------------------------------------------------------
          58.000000     -58.000000       0.000000
 
 ------------------------------------------------------------------------------
                       dipole moment  
 ------------------------------------------------------------------------------
   x      -0.000002       0.000002       0.000000
   y      -0.000000       0.000014       0.000014
   z     -13.978692      14.171286       0.192594
 
   | dipole moment | =     0.1926 a.u. =     0.4895 debye 
 
 ------------------------------------------------------------------------------
                     quadrupole moment
 ------------------------------------------------------------------------------
  xx     200.605526    -236.523631     -35.918105
  yy     216.444490    -250.506263     -34.061774
  zz     200.575662    -238.601794     -38.026133
  xy       0.002523      -0.002553      -0.000030
  xz       0.000006      -0.000006       0.000001
  yz      -0.000047       0.000025      -0.000021
 
     1/3  trace=     -36.002004
     anisotropy=       3.435541
 
 ==============================================================================
 
 


    ------------------------------------------------------------------------
         total  cpu-time :  1 minutes and 12 seconds
         total wall-time :  1 minutes and 12 seconds
    ------------------------------------------------------------------------


   ****  ridft : all done  ****


    2016-01-31 12:52:04.550 

fine, there is no data group "$actual step"
next step = rirpa
 
 
    *************************************************************************
    *************************** PROGRAM RIRPA *******************************
    ******                                                             ******
    ******              H. Eshuis, J. E. Bates and F. Furche           ******
    ******                                                             ******
    ****** Nov 2011                                                    ******
    ****** Copyright TURBOMOLE GmbH                                    ******
    *************************************************************************
    
    
                                References:                                  
    
                   RIRPA:                                                    
                     H. Eshuis, J. Yarkony and F. Furche                     
                     Fast computation of molecular random phase              
                     approximation correlation energies using resolution     
                     of the identity imaginary frequency integration         
                     J. Chem. Phys. 132: 234114 (2010)                       
    
                     H. Eshuis, J. E. Bates and F. Furche                    
                     Electron correlation methods based on                   
                     the random phase approximation                          
                     Theor. Chem. Acc.  131: 1084 (2012)                     
    
                   TWO-COMPONENT RIRPA:                                      
                     M. Kuehn                                                
                     Correlation energies from the                           
                     two-component random-phase approximation                
                     J. Chem. Theory Comput. 10: 623 (2014)                  
    
                   RIRPA GRADIENTS:                                          
                     Asbjoern M. Burow, Jefferson E. Bates, Filipp Furche*,  
                     and Henk Eshuis                                         
                     Analytical First-Order Molecular Properties and Forces  
                     within the Adiabatic Connection Random Phase            
                     Approximation                                           
                     J. Chem. Theory Comput. (2013, ASAP),                   
                     DOI: 10.1021/ct4008553                                  
    
    
    
 hostname is         c-9-333.local

 rirpa (c-9-333.local) : TURBOMOLE V7.0( ) 18 Nov 2015 at 09:57:41
 Copyright (C) 2015 TURBOMOLE GmbH, Karlsruhe


    2016-01-31 12:52:04.590 

 number of mkl threads =          10
 
                FOUND RI-J FLAG
 
  HF exact exchange energy will be computed using RI-J.


              +--------------------------------------------------+
              | Atomic coordinate, charge and isotop information |
              +--------------------------------------------------+

                    atomic coordinates            atom    charge  isotop
         -0.00002138    2.41511767   -0.44792329    c      6.000     0
         -2.32776702    1.26254266   -1.64941666    c      6.000     0
         -2.32773333   -1.26260486   -1.64946017    c      6.000     0
          0.00002119   -2.41511831   -0.44792481    c      6.000     0
          2.32773205    1.26260559   -1.64946071    c      6.000     0
          2.32776805   -1.26254200   -1.64941625    c      6.000     0
          0.00007780    1.46065303    2.34918595    c      6.000     0
         -0.00007773   -1.46065386    2.34918639    c      6.000     0
         -0.00004946    4.46789705   -0.52531852    h      1.000     0
         -3.85594498    2.41968256   -2.35343588    h      1.000     0
         -3.85581899   -2.41977637   -2.35362873    h      1.000     0
          0.00004926   -4.46789770   -0.52532105    h      1.000     0
          3.85581515    2.41977811   -2.35363357    h      1.000     0
          3.85594905   -2.41968086   -2.35342998    h      1.000     0
         -1.66507339    2.19360493    3.31445111    h      1.000     0
          1.66541044    2.19342587    3.31427487    h      1.000     0
         -1.66541088   -2.19342724    3.31427567    h      1.000     0
          1.66507416   -2.19360626    3.31445147    h      1.000     0
 
       center of nuclear mass  :   -0.00000004   -0.00000001   -0.28971741
       center of nuclear charge:   -0.00000003   -0.00000001   -0.24101193
              +-------------------------------------------------+
              |        Rotational Constants Section             |
              +-------------------------------------------------+
                                   Center of Mass [a.u]:
              -0.00000003870704        -0.00000000871820        -0.28971740571211
                     Principal Moments of Inertia [a.u.]
             657.82326275751313       677.57693623343732       682.65701585121258
                       Rotational constants A,B,C [a.u.]
               0.00076008257583         0.00073792358220         0.00073243222935
                     Rotational constants A,B,C [cm**-1]
               0.09151346560680         0.08884553666534         0.08818438122496
                        Rotational constants A,B,C [MHz]
            2743.50467943624335      2663.52218192310056      2643.70124046392903

   * BASIS SET information:

              +--------------------------------------------------+
              |               basis set information              |
              +--------------------------------------------------+

              we will work with the 1s 3p 5d 7f 9g ... basis set
              ...i.e. with spherical basis functions...

   type   atoms  prim   cont   basis
   ---------------------------------------------------------------------------
    c        8     77     55   cc-pVQZ   [5s4p3d2f1g|21s6p3d2f1g]
    h       10     32     30   cc-pVQZ   [4s3p2d1f|6s3p2d1f]
   ---------------------------------------------------------------------------
   total:   18    936    740
   ---------------------------------------------------------------------------

   total number of primitive shells          :   45
   total number of contracted shells         :  220
   total number of cartesian basis functions :  910
   total number of SCF-basis functions       :  740


   * AUXILIARY BASIS SET information:

              +--------------------------------------------------+
              |               basis set information              |
              +--------------------------------------------------+

              we will work with the 1s 3p 5d 7f 9g ... basis set
              ...i.e. with spherical basis functions...

   type   atoms  prim   cont   basis
   ---------------------------------------------------------------------------
    c        8    132    132   cc-pVQZ   [8s7p6d5f3g1h|8s7p6d5f3g1h]
    h       10     55     55   cc-pVQZ   [5s4p3d2f1g|5s4p3d2f1g]
   ---------------------------------------------------------------------------
   total:   18   1606   1606
   ---------------------------------------------------------------------------

   total number of primitive shells          :   45
   total number of contracted shells         :  390
   total number of cartesian basis functions : 2148
   total number of SCF-basis functions       : 1606


   * RIJ AUXILIARY BASIS SET information:

              +--------------------------------------------------+
              |               basis set information              |
              +--------------------------------------------------+

              we will work with the 1s 3p 5d 7f 9g ... basis set
              ...i.e. with spherical basis functions...

   type   atoms  prim   cont   basis
   ---------------------------------------------------------------------------
    c        8     70     49   cc-pVQZ   [6s4p3d1f1g|12s5p4d2f1g]
    h       10     16     11   cc-pVQZ   [3s1p1d|5s2p1d]
   ---------------------------------------------------------------------------
   total:   18    720    502
   ---------------------------------------------------------------------------

   total number of primitive shells          :   32
   total number of contracted shells         :  170
   total number of cartesian basis functions :  608
   total number of SCF-basis functions       :  502


 reading orbital data $scfmo  from file mos . 

 orbital characterization : scfconv=9
 

 integral neglect threshold       :  0.32E+02

 scfconv           9

 MAXIMUM CORE MEMORY WHICH CAN BE ALLOCATED DYNAMICALLY = 20000 MiB
              ( or 2621440000 double words )


 there are 1 real representations :   a   

 maximum number of shells which are related by symmetry :  1


         --------------------------------------------------------------
                   checking mo's by calculating trace(D*S)

              number of electrons : 
                 from trace(D*S)         :   58.000000000002
                 from occupation numbers :   58.000000000000

              molecular charge           :    0.000000000000
         --------------------------------------------------------------

 time elapsed for calculating density matrices :   0.348 sec
 all orbitals will be active in the correlation treatment

     total memory allocated for calculation of (Q|P)**(-1/2) : 30 MiB


     calculation of (P|Q) ...
     time in lp2sym        cpu:  0.64 sec    wall:  0.06 sec    ratio: 10.0


     calculation of the Cholesky decomposition of (P|Q)**(-1) ...
     time in invmetri      cpu:  2.67 sec    wall:  0.27 sec    ratio: 10.0

   threshold for RMS(d[D]) in SCF was     :  0.10E-06
   integral neglect threshold             :  0.16E-13
   derivative integral neglect threshold  :  0.10E-06


 setting up bound for integral derivative estimation

 increment for numerical differentiation : 0.00050000
 total memory allocated for calculation of (Q|P)**(-1/2) : 30 MiB
 Dividing biap into         1146  block chunks,
 using                     8 MB per block
 Reserved                   9983 MB for BLAS routines
 Estimated total memory usage:                  19987 MB
 number of passes:            1
 
 Number of eigenvalues < 6e-3:            0
 
 
            -----------------------------
            Complex frequency integration
            -----------------------------
 
 Number of Clenshaw-Curtis nodes:          200
 Optimized scaling parameter    :    1.18322042215271     
 Sensitivity measure            :  -5.918859846687496E-011
 
 Allocatable memory for RI due to $ricore (MB):       15000

 there are 1 real representations :   a   

 maximum number of shells which are related by symmetry :  1

  
           ------------------------
               RI-J - INFORMATION
           ------------------------
 Contributions to RI integral batches: 
  neglected integral batches:        1330
  direct contribution:                  0
  memory contribution:       22980
 
          -----------------
          -S,T+V- integrals
          -----------------

 1e-integrals will be neglected if expon. factor < 0.155183E-13

          ------------------------
          nuclear repulsion energy  :   370.245595969    
          ------------------------


                  -------------------------------------------- 
                 |  HXX+RIRPA total energy     =   -311.43686482209  |
                  --------------------------------------------- 
                 :  RIRPA correlation energy   =     -2.67840719639  :
                 :  HXX total energy           =   -308.75845762570  :
                 :  Hartree energy             =    517.88750459246  :
                 :  Exact Exchange energy      =    -45.02371924587  :
                  ............................................. 


    ------------------------------------------------------------------------
    Rirpa Energy profiling         cpu                    wall         ratio
    ------------------------------------------------------------------------
    module                         sec     %               sec     %
    ------------------------------------------------------------------------
    RIRPA_energy               2238.5  100.00          916.0  100.00   2.4
    riccmos                       4.4    0.20            0.4    0.05  10.0
    riccaux                       3.5    0.15            0.3    0.04  10.0
    riccbound                     5.5    0.25            3.6    0.40   1.5
    ccmkbaoi                    190.9    8.53           19.2    2.09  10.0
    ecrpa                      1263.2   56.43          127.5   13.92   9.9
    tread                       222.3    9.93           22.3    2.44  10.0
    tqbuild                     850.3   37.98           86.1    9.40   9.9
    trpaln                       72.7    3.25            7.3    0.79  10.0
    ehxx                        769.7   34.38          764.4   83.45   1.0
    ------------------------------------------------------------------------
    sum                        5622.3  251.16         1947.6  212.63   2.9
    ------------------------------------------------------------------------

 residuum convergence criterium   :  0.10E-04


 integral neglect threshold       :  0.37E-11
 integral storage threshold THIZE :  0.10E-04
 integral storage threshold THIME :         5


 WARNING : cannot change filename for statistics 
  
           ------------------
           density functional
           ------------------
 PBE functional
 exchange:    LDA + PBE
 correlation: LDA (PW) + PBE
 iterations will be done with small grid
  
 spherical integration : Lebedev's spherical grid
 spherical gridsize    :           5
    i.e. gridpoints    :         590
 value for diffuse not defined
 radial integration    : Chebyshev 2nd kind (scaling 3)
 radial gridsize       :           8
 integration cells     :          18
 partition function    : becke
 partition sharpness   :           3
  
 preparing numerical integration ....
          Overall gridpoints after grid construction =         82968

 Calculating ground state density on molecular grid

 Integral of ground state density: N =   57.99989298628856    



          IRREP   tensor space dimension   number of roots

           a             20619                   1
 number of passes:    1
 
 Number of eigenvalues < 6e-3:            0
 
 
            -----------------------------
            Complex frequency integration
            -----------------------------
 
 Number of Clenshaw-Curtis nodes:          200
 Optimized scaling parameter    :    1.18322042215271     
 Sensitivity measure            :  -5.918859846687496E-011
 
 Contributions to RI integral batches: 
  neglected integral batches:        1582
  direct contribution:              22728
  memory contribution:           0

 maximum number of Davidson iterations set to   25


 logfile dipl_a    exists already

 found      1 converged vectors on dipl_a   
 read       1 vectors from logfile dipl_a   


                    ------------------

                     CPKS equations   

                    ------------------


                       Block Davidson iteration


 total number of roots to be determined:   1


 maximum core memory set to 20000 MB,
 corresponding to     3138 vectors in CAO basis


 maximum number of simultaneously treated vectors (including degeneracy):        1


 Iteration IRREP Converged      Max. Euclidean
                 roots          residual norm

    1       a        0        2.293460302643734D-02
 
    2       a        0        2.104838398838183D-04
 
    3       a        0        1.121715727565340D-04
 
    4       a        0        2.909868480296627D-05
 
    5       a        1        8.959294726315397D-06
 

 converged!


 Switching to fine grid

 preparing numerical integration ....
          Overall gridpoints after grid construction =        270484

 Calculating ground state density on molecular grid

 Integral of ground state density: N =   57.99998856364154    



 Iteration IRREP Converged      Max. Euclidean
                 roots          residual norm

    6       a        0        7.222619223522579D-05
 

 NOTE: Residual norms are larger than 1.00D-05 due to mgrid option!

 Eigenpairs written on logfile dipl_a   



 IRREP   Vector     Frequency            Euclidean residual norm

  a         1    0.000000000000000D+00    7.222619223522579D-05
 

                    -------------------

                     relaxed densities 

                    -------------------

    ----------------------------------------
     S+T+V CONTRIBUTIONS TO ENERGY GRADIENT 
    ----------------------------------------

 1e-integral 1st. derivatives will be neglected if expon. factor < 0.100000E-10


    -----------------------------------------------
     TWO ELECTRON CONTRIBUTIONS TO ENERGY GRADIENT 
    -----------------------------------------------

 setting up bound for integral derivative estimation

 increment for numerical differentiation : 0.00050000

 biggest AO integral is expected to be     3.537514283
 biggest cartesian 1st derivative AO integral is expected to be     7.371354909

 biggest 1-particle AO density matrix element is expected to be    2.0542041015

 core memory to be involved in 2e-gradient :
   symmetry shell pair data              :         1
   two particle density+dens. estimates  :    218791
   derivative integrals                  :   1194671
   ij-primitive data                     :       729
   derivative integral bound             :     72930
   totally                               :   1268328


 setting up bound for integral derivative estimation

 increment for numerical differentiation : 0.00050000

 biggest AO integral is expected to be     3.537514283
 biggest cartesian 1st derivative AO integral is expected to be     7.371354909

 2e-integral 1st. derivatives will be neglected if expon. factor < 0.935762E-20
 outer boundary for 2e-integral derivative neglection is 0.369596E-21

 Integrated ground state density     :   57.99998856364157    


          ------------------------------------------------
           cartesian gradient of the energy (hartree/bohr)
          ------------------------------------------------

  ATOM      1 c           2 c           3 c           4 c           5 c 
dE/dx -0.8232933D-06 -0.2093902D-04 -0.2505389D-04  0.8049108D-06  0.2455986D-04
dE/dy  0.4819668D-04 -0.2553256D-04  0.2391068D-04 -0.4869340D-04 -0.2359594D-04
dE/dz  0.3692697D-05 -0.9095505D-05 -0.7215817D-05  0.3426685D-05 -0.6955804D-05

  ATOM      6 c           7 c           8 c           9 h          10 h 
dE/dx  0.2145600D-04  0.3222241D-05 -0.3204920D-05  0.1729904D-06 -0.1635122D-05
dE/dy  0.2576196D-04  0.2757594D-04 -0.2717529D-04  0.4695448D-05  0.2703613D-04
dE/dz -0.9393297D-05  0.1086348D-04  0.1120421D-04 -0.1170437D-04 -0.2054278D-05

  ATOM     11 h          12 h          13 h          14 h          15 h 
dE/dx -0.3018387D-06 -0.1714366D-06  0.1755372D-06  0.1755169D-05  0.4070317D-05
dE/dy -0.2764316D-04 -0.4768957D-05  0.2756130D-04 -0.2710688D-04  0.1230586D-05
dE/dz -0.5794673D-05 -0.1172744D-04 -0.5875994D-05 -0.1953890D-05  0.1008062D-04

  ATOM     16 h          17 h          18 h 
dE/dx -0.3675124D-05  0.3441718D-05 -0.3854096D-05
dE/dy  0.5880454D-06 -0.7030395D-06 -0.1337529D-05
dE/dz  0.1108219D-04  0.1122680D-04  0.1021129D-04
 
 resulting FORCE  (fx,fy,fz) = (0.285D-12,-.411D-11,0.169D-07)
 resulting MOMENT (mx,my,mz) = (-.197D-07,0.581D-08,-.554D-07)


 **********************************************************************
  |maximum component of gradient| : 0.48693396E-04  (atom  4 c )       
   gradient norm                  : 0.12343234E-03
 **********************************************************************

 exx =       0.000204 eyy =       0.000505 ezz =       0.000293
 eyz =      -0.000000 exz =      -0.000000 exy =       0.000011

   ***  cartesian gradients written onto <gradient>  ***
 
 
 
 ==============================================================================
                           electrostatic moments
 ==============================================================================

 reference point for electrostatic moments:    0.00000   0.00000   0.00000

 
              nuc           gs,e       ->  gs,tot          rpa       ->  total
 ------------------------------------------------------------------------------
                          charge      
 ------------------------------------------------------------------------------
          58.000000     -58.000000       0.000000      -0.000000       0.000000
 
 ------------------------------------------------------------------------------
                       dipole moment  
 ------------------------------------------------------------------------------
   x      -0.000002       0.000002       0.000000      -0.000000       0.000000
   y      -0.000000       0.000014       0.000014      -0.000005       0.000009
   z     -13.978692      14.171286       0.192594      -0.041286       0.151308
 
   | dipole moment | =     0.1513 a.u. =     0.3846 debye 
 
 ------------------------------------------------------------------------------
                     quadrupole moment
 ------------------------------------------------------------------------------
  xx     200.605526    -236.523631     -35.918105       0.106636     -35.811469
  yy     216.444490    -250.506263     -34.061774       0.049577     -34.012197
  zz     200.575662    -238.601794     -38.026133       0.010511     -38.015621
  xy       0.002523      -0.002553      -0.000030      -0.000007      -0.000037
  xz       0.000006      -0.000006       0.000001      -0.000000       0.000000
  yz      -0.000047       0.000025      -0.000021       0.000006      -0.000015
 
     1/3  trace=     -35.946429
     anisotropy=       3.472973
 
 ==============================================================================
 

    ------------------------------------------------------------------------
    Rirpa profiling                cpu                    wall         ratio
    ------------------------------------------------------------------------
    module                         sec     %               sec     %
    ------------------------------------------------------------------------
    RIRPA                     15710.9  100.00         7055.2  100.00   2.2
    RIRPA_energy               2238.5   14.25          916.0   12.98   2.4
    ccmkbaoi                    190.9    1.22           19.2    0.27  10.0
    ecrpa                      1263.2    8.04          127.5    1.81   9.9
    tread                       222.3    1.42           22.3    0.32  10.0
    tqbuild                     850.3    5.41           86.1    1.22   9.9
    trpaln                       72.7    0.46            7.3    0.10  10.0
    ehxx                        769.7    4.90          764.4   10.83   1.0
    RIRPA_grad                13472.4   85.75         6139.3   87.02   2.2
    SETUP_grad                   29.2    0.19            3.1    0.04   9.4
    rirhs                      6708.8   42.70          692.6    9.82   9.7
    respon                      653.8    4.16           94.5    1.34   6.9
    rparelax                    344.3    2.19           39.8    0.56   8.6
    egdfin                     5614.5   35.74         5296.7   75.07   1.1
    ------------------------------------------------------------------------
    sum                       48156.1  306.51        21268.7  301.46   2.3
    ------------------------------------------------------------------------


    ------------------------------------------------------------------------
         total  cpu-time :  4 hours 21 minutes and 52 seconds
         total wall-time :  1 hours 57 minutes and 35 seconds
    ------------------------------------------------------------------------


   ****  rirpa : all done  ****


    2016-01-31 14:49:39.871 

                                 ****   rirpa : all done  ****
fine, there is no data group "$actual step"
script actual: unknown actual step rirpa
next step = unknown
 energy change  : actual value =  -0.4590E-07 threshold =   0.1000E-06
 geom. gradient : actual value =   0.5723E-04 threshold =   0.1000E-03

CONVERGENCY CRITERIA FULFILLED IN CYCLE 4

