Using Slurm to start processes with PMI2
STARTING ridft ON 8 PROCESSORS!
RUNNING PROGRAM /modfac/apps/TURBOMOLE/7.0_intel_GA/bin/em64t-unknown-linux-gnu_mpi/ridft_mpi.
PLEASE WAIT UNTIL ridft HAS FINISHED.
Look for the output in slave1.output.
  this is node-proc. number 1 running on node c-5-37.local
  the total number of node-proc. spawned is            8
  parallel platform: MPP, or cluster with fast interconnect

 ridft (c-5-37.local) : TURBOMOLE V7.0.2( ) 15 Jan 2016 at 17:47:42
 Copyright (C) 2016 TURBOMOLE GmbH, Karlsruhe


    2016-01-30 06:14:42.824 



                                  r i d f t

                        DFT program with RI approximation 
                                for coulomb part 




                                                 
                                 References:     
                                                 
          TURBOMOLE:                             
              R. Ahlrichs, M. Baer, M. Haeser, H. Horn, and
              C. Koelmel
              Electronic structure calculations on workstation
              computers: the program system TURBOMOLE
              Chem. Phys. Lett. 162: 165 (1989)
          Density Functional:                              
              O. Treutler and R. Ahlrichs                      
              Efficient Molecular Numerical Integration Schemes
              J. Chem. Phys. 102: 346 (1995)                   
          Parallel Version:                                
              Performance of parallel TURBOMOLE for Density    
              Functional Calculations                          
              M. v. Arnim and R. Ahlrichs                      
              J. Comp. Chem. 19: 1746 (1998)                   
          RI-J Method:                                     
              Auxiliary Basis Sets to approximate Coulomb      
              Potentials                                       
              Chem. Phys. Lett. 240: 283 (1995)                
              K. Eichkorn, O. Treutler, H. Oehm, M. Haeser     
              and R. Ahlrichs                                  
              Chem. Phys. Lett. 242: 652 (1995)                
                                                           
              Auxiliary Basis Sets for Main Row Atoms and their
              Use to approximate Coulomb Potentials            
              K. Eichkorn, F. Weigend, O. Treutler and         
              R. Ahlrichs                                      
              Theo. Chem. Acc. 97: 119 (1997)                   
                                                           
              Accurate Coulomb-fitting basis sets for H to Rn 
              F. Weigend                                        
              Phys. Chem. Chem. Phys. 8: 1057 (2006)            
                                                           
          Multipole accelerated RI-J (MARI-J):             
              Fast evaluation of the Coulomb potential for     
              electron densities using multipole accelerated   
              resolution of identity approximation             
              M. Sierka, A. Hogekamp and R. Ahlrichs           
              J. Chem. Phys. 118: 9136 (2003)                  
          RI-JK Method:                                     
              A fully direct RI-HF algorithm: Implementation,
              optimised auxiliary basis sets, demonstration of
              accuracy and efficiency                         
              F. Weigend                                      
              Phys. Chem. Chem. Phys. 4: 4285 (2002)           
          Two-component HF and DFT with spin-orbit coupling:  
              Self-consistent treatment of spin-orbit         
              interactions with efficient Hartree-Fock and    
              density functional methods                      
              M. K. Armbruster, F. Weigend, C. van Wüllen and 
              W. Klopper                                      
              Phys. Chem. Chem. Phys. 10: 1748 (2008)         
          Relativistic all-electron 2c calculations           
              An efficient implementation of two-component    
              relativistic exact-decoupling methods for large 
              molecules                                       
              D. Peng, N. Middendorf, F. Weigend, M. Reiher   
              J. Chem. Phys. 138, 184105 (2013)               
                                         


 


              +--------------------------------------------------+
              |      general information about current run       |
              +--------------------------------------------------+

 

 SCF run will be profiled !


 DENSITY CONVERGENCE CHECK SWITCHED ON !
 SCF CONVERGENCE IF RMS(delta[D]) <     0.1000000000E-06

 PBE functional
 exchange:    LDA + PBE
 correlation: LDA (PW) + PBE
 A DFT calculation using the RI-J approximation will be carried out.
 Allocatable memory for RI due to $ricore (MB):        8000


              +--------------------------------------------------+
              | Atomic coordinate, charge and isotop information |
              +--------------------------------------------------+

                    atomic coordinates            atom    charge  isotop
         -0.27544648    6.49907053   -0.93617033    c      6.000     0
         -2.47255547    6.05175345   -2.32339938    c      6.000     0
         -4.67784697    5.59787903   -0.95075901    c      6.000     0
         -4.66834164    5.53831486    1.70647939    c      6.000     0
         -2.46786895    5.93487389    3.09346278    c      6.000     0
         -0.28585887    6.46210748    1.71931063    c      6.000     0
         -7.38487965    4.94567785   -1.77082456    c      6.000     0
         -7.76605631    2.18044160   -0.99658487    c      6.000     0
         -7.72092965    2.12828516    1.66222200    c      6.000     0
         -7.35432278    4.86003546    2.53376370    c      6.000     0
         -7.90684091   -0.03760555   -2.41125275    c      6.000     0
         -7.97131836   -2.30436984   -1.07041647    c      6.000     0
         -7.89569152   -2.35257675    1.58568810    c      6.000     0
         -7.76320282   -0.13768545    3.00394646    c      6.000     0
         -8.86345807    6.24955109    0.41919795    c      6.000     0
          2.41741326    7.20522339   -1.73552448    c      6.000     0
          2.37321256    7.18090261    2.57307000    c      6.000     0
          4.16533434    5.06966278    1.75827678    c      6.000     0
          4.21531760    5.08844666   -0.89816793    c      6.000     0
          5.70512099    3.46634354    3.16650070    c      6.000     0
          7.40186829    1.97612441    1.81491188    c      6.000     0
          7.48998622    2.01212369   -0.83900061    c      6.000     0
          5.85652585    3.52889348   -2.25017250    c      6.000     0
          3.00621413    9.12754730    0.43654563    c      6.000     0
          9.66241538    0.24904701   -1.61084035    c      6.000     0
          8.88900717   -2.42822249   -0.84654062    c      6.000     0
          8.75678303   -2.45140943    1.81243633    c      6.000     0
          9.49814149    0.19339457    2.69826436    c      6.000     0
          8.32603886   -4.57667103   -2.23393975    c      6.000     0
          7.57003502   -6.76215820   -0.92974526    c      6.000     0
          7.39440387   -6.76812973    1.69960079    c      6.000     0
          7.99599819   -4.59768478    3.10587828    c      6.000     0
         11.50812979    0.81891282    0.62534817    c      6.000     0
         -7.80579725   -5.13576540    2.36143957    c      6.000     0
         -5.23289733   -6.09461244    1.45155533    c      6.000     0
         -5.30274160   -6.04816297   -1.20587204    c      6.000     0
         -7.92044694   -5.05985510   -1.94687145    c      6.000     0
         -3.06868847   -6.82325305    2.73190148    c      6.000     0
         -0.95383927   -7.55162909    1.30566848    c      6.000     0
         -1.02209617   -7.50674809   -1.32726805    c      6.000     0
         -3.20678966   -6.73194148   -2.61810217    c      6.000     0
         -9.50001232   -6.27060264    0.23031982    c      6.000     0
         -2.47096810    6.08924562   -4.37849545    h      1.000     0
         -2.46108483    5.88048757    5.14727384    h      1.000     0
         -7.89610726    5.43349176   -3.70705686    h      1.000     0
         -7.83469116    5.26695019    4.49599862    h      1.000     0
         -7.93790800   -0.00597153   -4.46670787    h      1.000     0
         -7.66440794   -0.17633035    5.05582999    h      1.000     0
         -8.59292488    8.29901577    0.45903337    h      1.000     0
        -10.87448572    5.76723629    0.42224041    h      1.000     0
          2.64032535    7.85661199   -3.67827633    h      1.000     0
          2.55353023    7.80551379    4.52887986    h      1.000     0
          5.65377713    3.45152809    5.22000939    h      1.000     0
          5.92652130    3.56491166   -4.30387016    h      1.000     0
          1.73104583   10.75647233    0.43270949    h      1.000     0
          4.98437944    9.73167384    0.46063964    h      1.000     0
         10.37648620    0.47708026   -3.53065092    h      1.000     0
         10.06080745    0.36645569    4.67299037    h      1.000     0
          8.46368651   -4.58914322   -4.28440599    h      1.000     0
          7.11667082   -8.46572741   -1.98160462    h      1.000     0
          6.79715593   -8.47398551    2.67301761    h      1.000     0
          7.85714111   -4.61518365    5.15458708    h      1.000     0
         12.11698066    2.79379001    0.67589835    h      1.000     0
         13.13304860   -0.46090420    0.66837724    h      1.000     0
         -8.29861893   -5.55528460    4.31772186    h      1.000     0
         -8.51595633   -5.41432993   -3.88775247    h      1.000     0
         -2.98735466   -6.82281841    4.78350155    h      1.000     0
          0.76762565   -8.12570899    2.26553597    h      1.000     0
          0.64532258   -8.05225533   -2.39267674    h      1.000     0
         -3.23594813   -6.67802759   -4.67130851    h      1.000     0
        -11.44340667   -5.56647178    0.29377682    h      1.000     0
         -9.46172647   -8.33767957    0.19275207    h      1.000     0
          2.50025885   -2.09343861   -0.49926564    c      6.000     0
          2.51543335   -2.04222703   -3.11466551    c      6.000     0
         -1.63412178   -0.07479536   -3.10463106    c      6.000     0
         -1.65591032   -0.12370147   -0.48805957    c      6.000     0
          0.42199474   -1.11151801    0.82361824    c      6.000     0
          0.45368545   -1.02181271   -4.43276838    c      6.000     0
          0.41596652   -1.12569096    3.52244951    c      6.000     0
          0.47619209   -0.95132593   -7.12976662    c      6.000     0
          0.41439804   -1.12599332    5.71936952    n      7.000     0
          0.49191461   -0.88754767   -9.32700789    n      7.000     0
         -3.22973093    0.69606172   -4.12434618    h      1.000     0
         -3.26384049    0.61179884    0.54066954    h      1.000     0
          4.08182734   -2.88827632    0.52487143    h      1.000     0
          4.11901715   -2.78785627   -4.14284660    h      1.000     0
 
       center of nuclear mass  :   -0.04468387    0.02991796   -0.06790538
       center of nuclear charge:   -0.03843252    0.02535545   -0.05974043

              +--------------------------------------------------+
              |               basis set information              |
              +--------------------------------------------------+

              we will work with the 1s 3p 5d 7f 9g ... basis set
              ...i.e. with spherical basis functions...

   type   atoms  prim   cont   basis
   ---------------------------------------------------------------------------
    c       50     50     30   cc-pVTZ   [4s3p2d1f|18s5p2d1f]
    h       34     16     14   cc-pVTZ   [3s2p1d|5s2p1d]
    n        2     50     30   cc-pVTZ   [4s3p2d1f|18s5p2d1f]
   ---------------------------------------------------------------------------
   total:   86   3144   2036
   ---------------------------------------------------------------------------

   total number of primitive shells          :   60
   total number of contracted shells         :  724
   total number of cartesian basis functions : 2330
   total number of SCF-basis functions       : 2036


 integral neglect threshold       :  0.14E-13
 integral storage threshold THIZE :  0.10E-04
 integral storage threshold THIME :         5

 RI-J AUXILIARY BASIS SET information:

              we will work with the 1s 3p 5d 7f 9g ... basis set
              ...i.e. with spherical basis functions...

   type   atoms  prim   cont   basis
   ---------------------------------------------------------------------------
    c       50     70     49   cc-pVTZ   [6s4p3d1f1g|12s5p4d2f1g]
    h       34     16     11   cc-pVTZ   [3s1p1d|5s2p1d]
    n        2     70     49   cc-pVTZ   [6s4p3d1f1g|12s5p4d2f1g]
   ---------------------------------------------------------------------------
   total:   86   4184   2922
   ---------------------------------------------------------------------------

   total number of primitive shells          :   56
   total number of contracted shells         :  950
   total number of cartesian basis functions : 3580
   total number of SCF-basis functions       : 2922


 symmetry group of the molecule :   c1 

 the group has the following generators :
   c1(z)

    1 symmetry operations found

 there are 1 real representations :   a   

 maximum number of shells which are related by symmetry :  1


    mo occupation :
   irrep   mo's   occupied
    a     2036      174
 
 number of basis functions   :         2036
 number of occupied orbitals :          174
 
  
           ------------------
           density functional
           ------------------
 PBE functional
 exchange:    LDA + PBE
 correlation: LDA (PW) + PBE
 grinp -> nfun, dfgga, dfhybrid 
           6 T F
 iterations will be done with small grid
  
 spherical integration : Lebedev's spherical grid
 spherical gridsize    :           5
    i.e. gridpoints    :         590
 value for diffuse not defined
 radial integration    : Chebyshev 2nd kind (scaling 3)
 radial gridsize       :           8
 integration cells     :          86
 partition function    : becke
 partition sharpness   :           3
  

 <rddim> : input of entry tasksize
           from data group '$pardft' failed !

               Default values taken

 <rddim> : input of entry memdiv
           from data group '$pardft' failed !

               Default values taken
  RIDFT: memory allocation for DFT gridpoints
  MEMORY is divided by 1 as DEFAULT
 Each node can hold at most  the            1 -th part
 of the gridpoints    

 biggest AO integral is expected to be     4.229423036
  
           ------------------------
               RI-J - INFORMATION
           ------------------------
 
 
 **************************************************
 *      MEMORY ALLOCATION FOR PARALLEL RI-DFT     *
 **************************************************
 
 
MEMORY FOR (MU NU/ ALPHA), SEQUENTIAL RUN               7932 MByte
 
            DIFFERENCE IN MEMORY NEED:       DIAG./SLAVE  
 
      TOTAL DIFFERENCE :                    234 MByte
 
      difference in xcore:                   69 MByte
      difference in fatmat:                  61 MByte
      getcor calls skipped by slaves:       105 MByte
 
 
           Integral memory available for diagonal.      7932 MByte
 
           Integral memory available for slave             0 MByte
 
         MEMORY FOR (MU NU/ ALPHA) ON DIAGONALIZER      7932 MByte
 
         MEMORY FOR (MU NU/ ALPHA) ON ONE SLAVE            0 MByte
 
         TOTAL MEMORY FOR (MU NU/ ALPHA),ALL NODES      7932 MByte
 
 Contributions to RI integral batches: 
  neglected integral batches:      125950
  direct contribution:              79541
  memory contribution:       56959
 Memory core needed for (P|Q) and Cholesky     66 MByte
 Memory core minimum needed except of (P|Q)     5 MByte
 Total minimum memory core needed (sum)        70 MByte
     number of direct tasks:         160
  
 ****************************************
 Memory allocated for RI-J  8002 MByte
 ****************************************
                                            

          ------------------------
          nuclear repulsion energy  :   6843.43362740    
          ------------------------

 
          -----------------
          -S integrals
          -----------------

 1e-integrals will be neglected if expon. factor < 0.143432E-14
 
          -----------------
          -T+V integrals
          -----------------

 1e-integrals will be neglected if expon. factor < 0.143432E-14
 Difference densities >>NOT<< switched on in parallel ridft!

 automatic virtual orbital shift switched on 
      shift if e(lumo)-e(homo) < 0.10000000    


 DIIS switched on: error vector is FDS-SDF
 Max. Iterations for DIIS is     :   4
 DIIS matrix (see manual) 
    Scaling factor of diagonals  :  1.200
    threshold for scaling factor :  0.000

 scf convergence criterion : increment of total energy < .1000000D-08
                  and increment of one-electron energy < .1000000D-05


 <geterg> : there is no data group $energy 

  MOs are in ASCII format !


 reading orbital data $scfmo  from file mos . 

 orbital characterization : expanded
 
 mo provided and orthogonalized by Cholesky decomposition

 DSCF restart information will be dumped onto file mos


 Starting SCF iterations


 ITERATION  ENERGY          1e-ENERGY        2e-ENERGY     RMS[dD(SAO)]   TOL
   1  -2026.4186392125    -16282.545435     7412.6931681    0.000D+00 0.143D-13
                            Exc = -288.902519148     Coul =  7701.59568728    
                              N = 347.99989771    
                            current damping = 0.700
 
          max. resid. norm for Fia-block=  3.613D-01 for orbital    103a         
          max. resid. fock norm         =  4.662D+00 for orbital   1944a         

 ITERATION  ENERGY          1e-ENERGY        2e-ENERGY     RMS[dD(SAO)]   TOL
   2  -2031.9186487451    -16356.457586     7481.1053102    0.260D-02 0.143D-13
                            Exc = -293.002140683     Coul =  7774.10745085    
                              N = 347.99992937    
                            current damping = 0.650
 
          Norm of current diis error:  5.7884    
          max. resid. norm for Fia-block=  1.678D-01 for orbital      1a         
          max. resid. fock norm         =  3.927D-01 for orbital   2036a         

 ITERATION  ENERGY          1e-ENERGY        2e-ENERGY     RMS[dD(SAO)]   TOL
   3  -2032.8647890645    -16366.286247     7489.9878304    0.126D-02 0.143D-13
                            Exc = -294.373673518     Coul =  7784.36150391    
                              N = 347.99996589    
                            current damping = 0.550
 
          Norm of current diis error:  3.1052    
          max. resid. norm for Fia-block=  9.378D-02 for orbital    161a         
          max. resid. fock norm         =  9.457D-02 for orbital    189a         

 ITERATION  ENERGY          1e-ENERGY        2e-ENERGY     RMS[dD(SAO)]   TOL
   4  -2033.1814543772    -16383.612541     7506.9974594    0.874D-03 0.143D-13
                            Exc = -294.872529205     Coul =  7801.86998864    
                              N = 347.99998941    
                            current damping = 0.450
 
          Norm of current diis error:  1.6145    
          max. resid. norm for Fia-block=  6.706D-02 for orbital     61a         
          max. resid. fock norm         =  1.109D-01 for orbital   2036a         

 ITERATION  ENERGY          1e-ENERGY        2e-ENERGY     RMS[dD(SAO)]   TOL
   5  -2033.2436849317    -16382.041020     7505.3637074    0.435D-03 0.143D-13
                            Exc = -295.419081643     Coul =  7800.78278907    
                              N = 348.00001256    
                            current damping = 0.500
 
          Norm of current diis error:  1.0830    
          max. resid. norm for Fia-block=  2.815D-02 for orbital    156a         
          max. resid. fock norm         =  3.162D-02 for orbital    189a         
          mo-orthogonalization: Cholesky decomposition

 ITERATION  ENERGY          1e-ENERGY        2e-ENERGY     RMS[dD(SAO)]   TOL
   6  -2033.2940494925    -16384.247148     7507.5194709    0.266D-03 0.143D-13
                            Exc = -295.392820570     Coul =  7802.91229151    
                              N = 348.00001502    
                            current damping = 0.550
 
          Norm of current diis error: 0.26107    
          max. resid. norm for Fia-block=  5.391D-03 for orbital    170a         
          max. resid. fock norm         =  7.839D-03 for orbital   2031a         

 ITERATION  ENERGY          1e-ENERGY        2e-ENERGY     RMS[dD(SAO)]   TOL
   7  -2033.2953151048    -16385.881841     7509.1528982    0.808D-04 0.143D-13
                            Exc = -295.429670293     Coul =  7804.58256854    
                              N = 348.00001744    
                            current damping = 0.450
 
          Norm of current diis error: 0.19405    
          max. resid. norm for Fia-block=  2.547D-03 for orbital    165a         
          max. resid. fock norm         =  4.631D-03 for orbital   2031a         

 ITERATION  ENERGY          1e-ENERGY        2e-ENERGY     RMS[dD(SAO)]   TOL
   8  -2033.2965489490    -16385.572862     7508.8426858    0.408D-04 0.143D-13
                            Exc = -295.434765100     Coul =  7804.27745085    
                              N = 348.00001827    
                            current damping = 0.500
 
          Norm of current diis error: 0.71860E-01
          max. resid. norm for Fia-block=  1.350D-03 for orbital    167a         
          max. resid. fock norm         =  2.570D-03 for orbital   2036a         

 ITERATION  ENERGY          1e-ENERGY        2e-ENERGY     RMS[dD(SAO)]   TOL
   9  -2033.2966765511    -16385.329485     7508.5991809    0.187D-04 0.143D-13
                            Exc = -295.437088473     Coul =  7804.03626935    
                              N = 348.00001831    
                            current damping = 0.350
 
          Norm of current diis error: 0.41611E-01
          max. resid. norm for Fia-block=  7.224D-04 for orbital    156a         
          max. resid. fock norm         =  8.859D-04 for orbital    189a         

 ITERATION  ENERGY          1e-ENERGY        2e-ENERGY     RMS[dD(SAO)]   TOL
  10  -2033.2967251045    -16385.420498     7508.6901453    0.924D-05 0.143D-13
                            Exc = -295.434239126     Coul =  7804.12438438    
                              N = 348.00001849    
                            current damping = 0.400
 
          Norm of current diis error: 0.20330E-01
          max. resid. norm for Fia-block=  4.676D-04 for orbital    156a         
          max. resid. fock norm         =  6.200D-04 for orbital    189a         
          mo-orthogonalization: Cholesky decomposition

 ITERATION  ENERGY          1e-ENERGY        2e-ENERGY     RMS[dD(SAO)]   TOL
  11  -2033.2967395022    -16385.376416     7508.6460492    0.429D-05 0.143D-13
                            Exc = -295.435741833     Coul =  7804.08179108    
                              N = 348.00001855    
                            current damping = 0.450
 
          Norm of current diis error: 0.76471E-02
          max. resid. norm for Fia-block=  2.073D-04 for orbital    156a         
          max. resid. fock norm         =  3.295D-04 for orbital   2036a         

 ITERATION  ENERGY          1e-ENERGY        2e-ENERGY     RMS[dD(SAO)]   TOL
  12  -2033.2967411001    -16385.421976     7508.6916071    0.233D-05 0.143D-13
                            Exc = -295.435644975     Coul =  7804.12725208    
                              N = 348.00001847    
                            current damping = 0.500
 
          Norm of current diis error: 0.45149E-02
          max. resid. norm for Fia-block=  6.900D-05 for orbital    164a         
          max. resid. fock norm         =  1.063D-04 for orbital   2029a         

 ITERATION  ENERGY          1e-ENERGY        2e-ENERGY     RMS[dD(SAO)]   TOL
  13  -2033.2967418376    -16385.406879     7508.6765098    0.845D-06 0.143D-13
                            Exc = -295.435562649     Coul =  7804.11207244    
                              N = 348.00001852    
                            current damping = 0.550
 
          Norm of current diis error: 0.11653E-02
          max. resid. norm for Fia-block=  2.879D-05 for orbital     96a         
          max. resid. fock norm         =  4.353D-05 for orbital   1991a         

 ITERATION  ENERGY          1e-ENERGY        2e-ENERGY     RMS[dD(SAO)]   TOL
  14  -2033.2967418765    -16385.402484     7508.6721147    0.292D-06 0.143D-13
                            Exc = -295.435407537     Coul =  7804.10752225    
                              N = 348.00001852    
                            current damping = 0.400
 
          Norm of current diis error: 0.56929E-03
          max. resid. norm for Fia-block=  1.377D-05 for orbital    153a         
          max. resid. fock norm         =  2.139D-05 for orbital   2029a         

 ITERATION  ENERGY          1e-ENERGY        2e-ENERGY     RMS[dD(SAO)]   TOL
  15  -2033.2967418861    -16385.403254     7508.6728847    0.148D-06 0.143D-13
                            Exc = -295.435497294     Coul =  7804.10838197    
                              N = 348.00001852    
                            current damping = 0.450
 
          Norm of current diis error: 0.30261E-03
          max. resid. norm for Fia-block=  6.530D-06 for orbital    164a         
          max. resid. fock norm         =  1.065D-05 for orbital   2025a         
          mo-orthogonalization: Cholesky decomposition

 DENSITY CONVERGED !


 ITERATION  ENERGY          1e-ENERGY        2e-ENERGY     RMS[dD(SAO)]   TOL
  16  -2033.2967418881    -16385.403459     7508.6730894    0.738D-07 0.143D-13
                            Exc = -295.435515887     Coul =  7804.10860529    
                              N = 348.00001852    
                            current damping = 0.300
 
          Norm of current diis error: 0.19498E-03
          max. resid. norm for Fia-block=  4.628D-06 for orbital    156a         
          max. resid. fock norm         =  5.881D-06 for orbital    149a         

 DENSITY CONVERGED !


 ITERATION  ENERGY          1e-ENERGY        2e-ENERGY     RMS[dD(SAO)]   TOL
  17  -2033.2967418896    -16385.403790     7508.6734207    0.474D-07 0.143D-13
                            Exc = -295.435496165     Coul =  7804.10891686    
                              N = 348.00001852    
                            current damping = 0.150
 
          Norm of current diis error: 0.63672E-04
          max. resid. norm for Fia-block=  1.667D-06 for orbital    156a         
          max. resid. fock norm         =  2.208D-06 for orbital   2036a         

 DENSITY CONVERGED !


 ITERATION  ENERGY          1e-ENERGY        2e-ENERGY     RMS[dD(SAO)]   TOL
  18  -2033.2967418895    -16385.403355     7508.6729858    0.181D-07 0.143D-13
                            Exc = -295.435490764     Coul =  7804.10847654    
                              N = 348.00001852    
                            current damping = 0.200
 
          Norm of current diis error: 0.54922E-04
          max. resid. norm for Fia-block=  5.746D-07 for orbital    156a         
          max. resid. fock norm         =  9.925D-07 for orbital   2025a         

 DENSITY CONVERGED !


 ITERATION  ENERGY          1e-ENERGY        2e-ENERGY     RMS[dD(SAO)]   TOL
  19  -2033.2967418897    -16385.403462     7508.6730924    0.810D-08 0.143D-13
                            Exc = -295.435492582     Coul =  7804.10858495    
                              N = 348.00001852    
                            current damping = 0.250
 
          Norm of current diis error: 0.17678E-04
          max. resid. norm for Fia-block=  2.920D-07 for orbital    169a         
          max. resid. fock norm         =  5.128D-07 for orbital   2011a         

 DENSITY CONVERGED !


 ITERATION  ENERGY          1e-ENERGY        2e-ENERGY     RMS[dD(SAO)]   TOL
  20  -2033.2967418899    -16385.403583     7508.6732137    0.439D-08 0.143D-13
                            Exc = -295.435495554     Coul =  7804.10870925    
                              N = 348.00001852    
                            current damping = 0.100
 
          Norm of current diis error: 0.10732E-04
          max. resid. norm for Fia-block=  1.600D-07 for orbital    169a         
          max. resid. fock norm         =  2.391D-07 for orbital     73a         
          irrep a   : virtual orbitals shifted by    0.00280
          mo-orthogonalization: Cholesky decomposition

 ENERGY & DENSITY CONVERGED !


 ITERATION  ENERGY          1e-ENERGY        2e-ENERGY     RMS[dD(SAO)]   TOL
  21  -2033.2966275302    -16385.403542     7508.6732871    0.271D-08 0.143D-13
                            Exc = -295.435379986     Coul =  7804.10866707    
                              N = 348.00006742    
                            current damping = 0.150
 
          Norm of current diis error: 0.58442E-05
          max. resid. norm for Fia-block=  5.444D-08 for orbital    163a         
          max. resid. fock norm         =  1.073D-07 for orbital   2013a         

 End of SCF iterations

   convergence criteria satisfied after   21 iterations


                  ------------------------------------------ 
                 |  total energy      =  -2033.29662753021  |
                  ------------------------------------------ 
                 :  kinetic energy    =   2019.97045763175  :
                 :  potential energy  =  -4053.26708516196  :
                 :  virial theorem    =      1.99344602764  :
                 :  wavefunction norm =      1.00000000000  :
                  .......................................... 


 <geterg> : there is no data group $energy 


 <skperg> : $end is missing 


 orbitals $scfmo  will be written to file mos

    irrep                170a        171a        172a        173a        174a   
 eigenvalues H         -0.22248    -0.21700    -0.20952    -0.20008    -0.18702
            eV          -6.0540     -5.9050     -5.7013     -5.4445     -5.0891
 occupation              2.0000      2.0000      2.0000      2.0000      2.0000 

    irrep                175a        176a        177a        178a        179a   
 eigenvalues H         -0.09865    -0.06348    -0.06134    -0.05784    -0.05308
            eV          -2.6845     -1.7273     -1.6693     -1.5739     -1.4444
 
 
 ! grave: sending quit signal to master process
 
 
 
 
 ==============================================================================
                           electrostatic moments
 ==============================================================================

 reference point for electrostatic moments:    0.00000   0.00000   0.00000

 
              nuc           elec       ->  total
 ------------------------------------------------------------------------------
                          charge      
 ------------------------------------------------------------------------------
         348.000000    -348.000000      -0.000000
 
 ------------------------------------------------------------------------------
                       dipole moment  
 ------------------------------------------------------------------------------
   x     -13.374518      13.463908       0.089390
   y       8.823698      -8.289007       0.534691
   z     -20.789671      21.361108       0.571438
 
   | dipole moment | =     0.7877 a.u. =     2.0021 debye 
 
 ------------------------------------------------------------------------------
                     quadrupole moment
 ------------------------------------------------------------------------------
  xx   12988.313034  -13193.241535    -204.928501
  yy    7950.308999   -8164.285798    -213.976799
  zz    2784.435864   -3020.020791    -235.584927
  xy      39.052591     -39.487287      -0.434696
  xz      88.205370     -87.808548       0.396821
  yz     249.343330    -249.057094       0.286236
 
     1/3  trace=    -218.163409
     anisotropy=      27.305398
 
 ==============================================================================
 

    ridft profiling
  --------------------------------------------------------------------
             module   cpu total (s)       %  wall total (s)       %

               RIDFT          1864.0  100.00          1863.0  100.00
         Ridft_b_scf            78.7    4.22            78.6    4.22
        b_scf_prelim             0.0    0.00             0.0    0.00
        b_scf_molinp             0.0    0.00             0.0    0.00
         b_scf_init0             0.0    0.00             0.0    0.00
        b_scf_auxbas             0.0    0.00             0.0    0.00
      b_scf_symmetry             0.0    0.00             0.0    0.00
         b_scf_cosmo             0.0    0.00             0.0    0.00
        b_scf_params             2.2    0.12             2.2    0.12
          b_scf_ri-j            54.3    2.91            54.2    2.91
    b_scf_ri-j_auxpq            54.2    2.91            54.2    2.91
     ri-j_auxpq_chol             3.9    0.21             3.9    0.21
         b_scf_1elec             2.1    0.11             2.1    0.11
       b_scf_moinput            20.1    1.08            20.1    1.08
     moinput_orthmos            19.7    1.06            19.7    1.06
    b_scf_dft-dstmax             0.0    0.00             0.0    0.00
           Ridft_scf          1784.5   95.74          1783.6   95.74
          Scf_b_loop             0.0    0.00             0.0    0.00
                noga             0.0    0.00             0.0    0.00
            Scf_loop          1781.6   95.58          1780.6   95.57
     scf_loop_mkdmat             9.1    0.49             9.1    0.49
       scf_loop_ri-j           396.4   21.27           396.1   21.26
      parlp1.bc.dens             1.5    0.08             1.5    0.08
        parlp1.gs.gp             5.5    0.29             5.5    0.29
        parlp2.bc.gq             0.0    0.00             0.0    0.00
        scf_loop_dft          1087.6   58.35          1086.8   58.33
      pardft.bc.dens             0.0    0.00             0.0    0.00
        dft_grid_con             4.4    0.23             4.4    0.23
           dft_xcrhf          1071.1   57.46          1070.2   57.45
          dft_getval            50.4    2.70            50.4    2.70
          funct2 dst             0.8    0.04             0.8    0.04
      funct2 f2loop1             8.1    0.44             8.2    0.44
      funct2 f2loop2            25.6    1.38            25.6    1.38
          funct2 s+c            14.9    0.80            14.9    0.80
        funct2 cmf_2            13.4    0.72            13.4    0.72
          dft_mkdens           463.1   24.85           462.7   24.84
         dft_gga-fun             0.6    0.03             0.7    0.04
          dft_mkfock           556.1   29.84           555.7   29.83
     pardft.red.fock            79.9    4.29            79.8    4.28
     scf_loop_energy             0.1    0.00             0.1    0.00
     scf_loop_mkfock             0.1    0.01             0.1    0.01
       scf_loop_diis           136.4    7.32           136.3    7.32
       scf_loop_diag            75.5    4.05            75.5    4.05
         diag_tritrn            24.3    1.31            24.3    1.31
          diag_rdiag            50.9    2.73            50.8    2.73
     scf_loop_modump            51.1    2.74            51.4    2.76
      scf_loop_ortho            23.4    1.26            23.4    1.25
          Scf_a_loop             2.9    0.16             3.0    0.16
         Ridft_a_scf             0.8    0.04             0.8    0.04
         a_scf_fanal             0.8    0.04             0.8    0.04
 


    ------------------------------------------------------------------------
         total  cpu-time : 31 minutes and  7 seconds
         total wall-time : 31 minutes and  6 seconds
    ------------------------------------------------------------------------


   ****  ridft : all done  ****


    2016-01-30 06:45:49.236 

