
   OpenMP run-time library returned nthreads = 28

 ricc2 (c-19-413) : TURBOMOLE V7.3 ( 22142 ) 4 Jul 2018 at 18:12:42
 Copyright (C) 2018 TURBOMOLE GmbH, Karlsruhe


    2019-04-02 15:59:24.000 



                              R I C C 2 - PROGRAM

                          the quantum chemistry groups
                             at the universities in
                           Karlsruhe, Bochum & Mainz
                                   Germany



   *-----------------------------------------------------------------------*
   |                     program will use 28 thread(s)                     |
   *-----------------------------------------------------------------------*


              +--------------------------------------------------+
              | Atomic coordinate, charge and isotop information |
              +--------------------------------------------------+

                    atomic coordinates            atom    charge  isotop
         -1.47129038   -0.87554913    4.70615068    c      6.000     0
          0.42470579   -0.09628710    4.56082294    h      1.000     0
         -1.36528923   -2.81019623    5.39438319    h      1.000     0
         -2.55473507    0.20941364    6.07298197    h      1.000     0
         -2.87333348   -0.86290127    2.21537319    c      6.000     0
         -5.10383888   -1.48076244    2.05903958    o      8.000     0
         -1.49657543   -0.13160144    0.19008636    n      7.000     0
          0.36681786    0.27534803    0.38347199    h      1.000     0
         -2.64145606   -0.10598047   -2.28905914    c      6.000     0
         -4.37457996    0.99945954   -2.26712318    h      1.000     0
         -1.32054859    0.73181781   -3.61951759    h      1.000     0
         -3.12368389   -2.00599899   -2.92044882    h      1.000     0
          4.22975174    0.48107567    0.53388399    n      7.000     0
          4.99257055    1.50137571    1.96100534    h      1.000     0
          5.01966458    1.17532561   -1.06415521    h      1.000     0
          4.93330215   -2.18567338    0.82443458    c      6.000     0
          4.12773571   -3.26476857   -0.72774007    h      1.000     0
          6.96551106   -2.53846531    0.87315814    h      1.000     0
          4.11226797   -2.91209735    2.56267271    h      1.000     0
 
       center of nuclear mass  :   -0.52476240   -0.72976466    1.15144331
       center of nuclear charge:   -0.35766736   -0.72957722    1.12915545

              +--------------------------------------------------+
              |               basis set information              |
              +--------------------------------------------------+

              we will work with the 1s 3p 5d 7f 9g ... basis set
              ...i.e. with spherical basis functions...

   type   atoms  prim   cont   basis
   ---------------------------------------------------------------------------
    c        4     77     55   cc-pVQZ   [5s4p3d2f1g|21s6p3d2f1g]
    h       12     32     30   cc-pVQZ   [4s3p2d1f|6s3p2d1f]
    o        1     77     55   cc-pVQZ   [5s4p3d2f1g|21s6p3d2f1g]
    n        2     77     55   cc-pVQZ   [5s4p3d2f1g|21s6p3d2f1g]
   ---------------------------------------------------------------------------
   total:   19    923    745
   ---------------------------------------------------------------------------

   total number of primitive shells          :  111
   total number of contracted shells         :  225
   total number of cartesian basis functions :  910
   total number of SCF-basis functions       :  745


 symmetry group of the molecule :   c1 

 the group has the following generators :
   c1(z)

    1 symmetry operations found

 there are 1 real representations :   a   


   =========================================================================


     restricted closed shell calculation for the wavefunction models:
               MP2        - Second Order Moeller Plesset PT


     global parameters for ricc2 program:

        hard restart (reuse of interm.) :  disabled
        soft restart (reuse of vectors) :  disabled
        threshold for vector function   :    0.100000E-05
        convergence threshold energy    :    0.100000E-06
        linear dependence threshold     :    0.100000E-13
        global print level              :      1
        maximum number of iterations    :   300
        maximum number DIIS vectors     :    10
        max. dim. of reduced space      :   100
        core memory limit (MB)          : 84000


     MP2 energy only: Energy will be calculated directly from T2 amplitudes!

     Scratch Directory : 


   =========================================================================

    der. integral neglect threshold  :  0.10E-07
    integral neglect threshold       :  0.37E-11
    integral storage threshold THIZE :  0.10E-04
    integral storage threshold THIME :         5


                  +------------------------------------------+
                  |     Auxiliary basis set information      |
                  +------------------------------------------+

              we will work with the 1s 3p 5d 7f 9g ... basis set
              ...i.e. with spherical basis functions...

   type   atoms  prim   cont   basis
   ---------------------------------------------------------------------------
    c        4    132    132   cc-pVQZ   [8s7p6d5f3g1h|8s7p6d5f3g1h]
    h       12     55     55   cc-pVQZ   [5s4p3d2f1g|5s4p3d2f1g]
    o        1    132    132   cc-pVQZ   [8s7p6d5f3g1h|8s7p6d5f3g1h]
    n        2    132    132   cc-pVQZ   [8s7p6d5f3g1h|8s7p6d5f3g1h]
   ---------------------------------------------------------------------------
   total:   19   1584   1584
   ---------------------------------------------------------------------------

   total number of primitive shells          :  105
   total number of contracted shells         :  390
   total number of cartesian basis functions : 2107
   total number of SCF-basis functions       : 1584


 maximum number of shells which are related by symmetry :  1


 The symmetry information takes   1 MB

*---------------------------------------------------------------------*
|               simplified C1 algorithm will be applied               |
*---------------------------------------------------------------------*
  MOs are in ASCII format !


 reading orbital data $scfmo  from file mos
 orbital characterization : scfconv=9



              +--------------------------------------------+
              | list of orbitals that will be kept frozen: |
              +--------------------------------------------+
              |   irrep   index      energy     occ/vir    |
              +--------------------------------------------+
              |   a         1      -20.4897     occupied   |
              |   a         2      -15.5689     occupied   |
              |   a         3      -15.5559     occupied   |
              |   a         4      -11.3253     occupied   |
              |   a         5      -11.2619     occupied   |
              |   a         6      -11.2411     occupied   |
              |   a         7      -11.2205     occupied   |
              +--------------------------------------------+



   Molecular Orbital Statistic:
   ============================

   -----------------------------
   orbitals in total:
   -----------------------------
    frozen occupied :      7
    active occupied :     22
    active virtual  :    716
    frozen virtual  :      0
    all together    :    745
   -----------------------------


     time in riccmos       cpu:  7.23 sec    wall:  0.44 sec    ratio: 16.4

     total memory allocated for calculation of (Q|P)**(-1/2) : 29 MiB


     calculation of (P|Q) ...
     time in lp2sym        cpu:  1.67 sec    wall:  0.06 sec    ratio: 28.2


     calculation of the Cholesky decomposition of (P|Q)**(-1) ...
     time in invmetri      cpu:  4.87 sec    wall:  0.18 sec    ratio: 27.5

   threshold for RMS(d[D]) in SCF was     :  0.10E-06
   integral neglect threshold             :  0.37E-11
   derivative integral neglect threshold  :  0.10E-07


   =========================================================================

     Energy of reference wave function is  -342.3836870363000
     Maximum orbital residual is           0.1353279842804E-05


     Number of symmetry-nonredundant auxiliary basis functions:     1584

     Block lengths for integral files:
        frozen occupied (BOI):        1 MiB
        active occupied (BJI):        1 MiB
        active virtual  (BAI):        9 MiB
        frozen virtual  (BGI):        0 MiB
               general  (BTI):       10 MiB

   =========================================================================




   **************************************************************************
   *                                                                        *
   *          OPTIMIZATION OF THE GROUND STATE CLUSTER AMPLITUDES           *
   *                                                                        *
   **************************************************************************


   Iter.   MP2 energy       Norm(Omega)   Norm(t1)  Norm(t2)     cpu    wall
   ...........................................................................
    1   -343.8375524576     ------          0.00000   0.38489    0.58    0.02
   ...........................................................................


     time in total         cpu: 35.02 sec    wall:  1.29 sec    ratio: 27.3


     **********************************************************************
     *                                                                    *
     *   RHF  energy                             :   -342.3836870363      *
     *   MP2 correlation energy (doubles)        :     -1.4538654213      *
     *                                                                    *
     *   Final MP2 energy                        :   -343.8375524576      *
     *                                                                    *
     *    E(S)   =     -0.9537437400      E(T)   =     -0.5001216813      *
     *    E(OS)  =     -1.1204509671      E(SS)  =     -0.3334144542      *
     *                                                                    *
     *   SCS-MP2 energy                          :   -343.8393663482      *
     *   (computed with  C(OS) =   1.2000  and  C(SS) =   0.3333)         *
     *                                                                    *
     *   SOS-MP2 energy                          :   -343.8402732935      *
     *   (computed with  C(OS) =   1.3000)                                *
     *                                                                    *
     *   Norm of MP1 T2 amplitudes               :      0.3848884412      *
     *                                                                    *
     **********************************************************************



    ------------------------------------------------------------------------
         total  cpu-time :  1 minutes and 33 seconds
         total wall-time :   3.70 seconds
    ------------------------------------------------------------------------

   ****  ricc2 : all done  ****


    2019-04-02 15:59:27.677 

