Using OpenMPI from /sopt/mpi/openmpi-1.8.6/intel_15.0.3/bin/mpiexec
STARTING ridft ON 8 PROCESSORS!
RUNNING PROGRAM /modfac/apps/TURBOMOLE/7.0_intel/bin/em64t-unknown-linux-gnu_mpi/ridft_mpi.
PLEASE WAIT UNTIL ridft HAS FINISHED.
Look for the output in slave1.output.
  this is node-proc. number 1 running on node c-5-25.local
  the total number of node-proc. spawned is            8
  parallel platform: MPP, or cluster with fast interconnect

 data group $actual step is not empty 
 due to the abend of ridft


 ridft (c-5-25.local) : TURBOMOLE V7.0( ) 6 Jul 2015 at 19:34:44
 Copyright (C) 2015 TURBOMOLE GmbH, Karlsruhe


    2016-01-04 19:52:47.702 



                                  r i d f t

                        DFT program with RI approximation 
                                for coulomb part 




                                                 
                                 References:     
                                                 
          TURBOMOLE:                             
              R. Ahlrichs, M. Baer, M. Haeser, H. Horn, and
              C. Koelmel
              Electronic structure calculations on workstation
              computers: the program system TURBOMOLE
              Chem. Phys. Lett. 162: 165 (1989)
          Density Functional:                              
              O. Treutler and R. Ahlrichs                      
              Efficient Molecular Numerical Integration Schemes
              J. Chem. Phys. 102: 346 (1995)                   
          Parallel Version:                                
              Performance of parallel TURBOMOLE for Density    
              Functional Calculations                          
              M. v. Arnim and R. Ahlrichs                      
              J. Comp. Chem. 19: 1746 (1998)                   
          RI-J Method:                                     
              Auxiliary Basis Sets to approximate Coulomb      
              Potentials                                       
              Chem. Phys. Lett. 240: 283 (1995)                
              K. Eichkorn, O. Treutler, H. Oehm, M. Haeser     
              and R. Ahlrichs                                  
              Chem. Phys. Lett. 242: 652 (1995)                
                                                           
              Auxiliary Basis Sets for Main Row Atoms and their
              Use to approximate Coulomb Potentials            
              K. Eichkorn, F. Weigend, O. Treutler and         
              R. Ahlrichs                                      
              Theo. Chem. Acc. 97: 119 (1997)                   
                                                           
              Accurate Coulomb-fitting basis sets for H to Rn 
              F. Weigend                                        
              Phys. Chem. Chem. Phys. 8: 1057 (2006)            
                                                           
          Multipole accelerated RI-J (MARI-J):             
              Fast evaluation of the Coulomb potential for     
              electron densities using multipole accelerated   
              resolution of identity approximation             
              M. Sierka, A. Hogekamp and R. Ahlrichs           
              J. Chem. Phys. 118: 9136 (2003)                  
          RI-JK Method:                                     
              A fully direct RI-HF algorithm: Implementation,
              optimised auxiliary basis sets, demonstration of
              accuracy and efficiency                         
              F. Weigend                                      
              Phys. Chem. Chem. Phys. 4: 4285 (2002)           
          Two-component HF and DFT with spin-orbit coupling:  
              Self-consistent treatment of spin-orbit         
              interactions with efficient Hartree-Fock and    
              density functional methods                      
              M. K. Armbruster, F. Weigend, C. van Wüllen and 
              W. Klopper                                      
              Phys. Chem. Chem. Phys. 10: 1748 (2008)         
          Relativistic all-electron 2c calculations           
              An efficient implementation of two-component    
              relativistic exact-decoupling methods for large 
              molecules                                       
              D. Peng, N. Middendorf, F. Weigend, M. Reiher   
              J. Chem. Phys. 138, 184105 (2013)               
                                         


 


              +--------------------------------------------------+
              |      general information about current run       |
              +--------------------------------------------------+

 

 SCF run will be profiled !


 DENSITY CONVERGENCE CHECK SWITCHED ON !
 SCF CONVERGENCE IF RMS(delta[D]) <     0.1000000000E-06

 PBE functional
 exchange:    LDA + PBE
 correlation: LDA (PW) + PBE
 A DFT calculation using the RI-J approximation will be carried out.
 Allocatable memory for RI due to $ricore (MB):        5000


              +--------------------------------------------------+
              | Atomic coordinate, charge and isotop information |
              +--------------------------------------------------+

                    atomic coordinates            atom    charge  isotop
          0.26909700    0.23891807   -0.00187083    fe    26.000     0
          2.72993617    0.64180769    2.88436459    c      6.000     0
         -0.11920392   -2.67152473    2.47331136    c      6.000     0
          1.95261622   -3.12965104    0.81057913    c      6.000     0
          3.70998593   -1.08844446    1.06510634    c      6.000     0
          0.34884344   -0.32703600    3.76499586    c      6.000     0
         -2.72952043    0.22387585   -2.40097264    c      6.000     0
         -2.83878439    2.37685974   -0.78257339    c      6.000     0
         -0.57147208    3.81184217   -1.12799643    c      6.000     0
          0.95062673    2.54969409   -2.95940561    c      6.000     0
         -0.37599881    0.31603780   -3.75628422    c      6.000     0
         -1.38144649    0.96865472    5.55439643    c      6.000     0
          0.60902094   -1.62444638   -5.52843160    c      6.000     0
         -0.72767684    0.46678125    8.34841321    n      7.000     0
          0.14915608   -0.96192729   -8.32688923    n      7.000     0
         -0.84973425   -2.32321041    8.89439289    c      6.000     0
          1.87727284    1.44856957    8.94600131    c      6.000     0
         -2.66385244    1.85327332    9.90261847    c      6.000     0
          1.49840165    1.45153644   -9.00637806    c      6.000     0
          1.19287072   -3.11787804   -9.85977838    c      6.000     0
         -2.63860570   -0.67228897   -8.81744324    c      6.000     0
          3.57556971    2.40114272    3.47896691    h      1.000     0
         -1.77388592   -3.84285258    2.70913028    h      1.000     0
          2.14270377   -4.71471552   -0.46143333    h      1.000     0
          5.44250575   -0.86755437    0.01007224    h      1.000     0
         -4.13530659   -1.24631218   -2.56505756    h      1.000     0
         -4.34582209    2.82478152    0.51905108    h      1.000     0
         -0.07483315    5.51775464   -0.12434398    h      1.000     0
          2.79758836    3.11687649   -3.61517837    h      1.000     0
         -3.33264542    0.33773185    5.33779602    h      1.000     0
         -1.30942903    3.02046266    5.35489805    h      1.000     0
          2.65279755   -1.85489848   -5.36818282    h      1.000     0
         -0.30082550   -3.45440047   -5.25251268    h      1.000     0
          0.59256142   -3.28088582    7.78177883    h      1.000     0
         -0.49773497   -2.59279874   10.90791498    h      1.000     0
         -2.71986393   -3.01243133    8.37265840    h      1.000     0
          3.26127046    0.34869227    7.89092941    h      1.000     0
          1.97593544    3.43442607    8.40334755    h      1.000     0
          2.18665880    1.22499607   10.97192000    h      1.000     0
         -4.52763264    1.12257291    9.41497464    h      1.000     0
         -2.24541039    1.53712213   11.89612836    h      1.000     0
         -2.55490973    3.85738457    9.43472228    h      1.000     0
          3.48764076    1.26182683   -8.50197236    h      1.000     0
          1.27960915    1.74688173  -11.03494237    h      1.000     0
          0.64159982    3.00808496   -7.96648066    h      1.000     0
          3.20100710   -3.30256098   -9.43440103    h      1.000     0
          0.20187944   -4.83943745   -9.31189008    h      1.000     0
          0.89690182   -2.69953047  -11.85636852    h      1.000     0
         -3.34464518    0.91878485   -7.71955015    h      1.000     0
         -2.89592971   -0.32227389  -10.83293065    h      1.000     0
         -3.58964817   -2.40677410   -8.24175707    h      1.000     0
 
       center of nuclear mass  :    0.03634993    0.03599133    0.00325313
       center of nuclear charge:    0.02157483    0.02311220    0.00358613

              +--------------------------------------------------+
              |               basis set information              |
              +--------------------------------------------------+

              we will work with the 1s 3p 5d 7f 9g ... basis set
              ...i.e. with spherical basis functions...

   type   atoms  prim   cont   basis
   ---------------------------------------------------------------------------
    fe       1    158     84   def2-QZVP   [11s6p5d3f1g|24s18p10d3f1g]
    c       18     77     57   def2-QZVP   [7s4p3d2f1g|15s8p3d2f1g]
    n        2     77     57   def2-QZVP   [7s4p3d2f1g|15s8p3d2f1g]
    h       30     33     30   def2-QZVP   [4s3p2d1f|7s3p2d1f]
   ---------------------------------------------------------------------------
   total:   51   2688   2124
   ---------------------------------------------------------------------------

   total number of primitive shells          :  127
   total number of contracted shells         :  666
   total number of cartesian basis functions : 2594
   total number of SCF-basis functions       : 2124


 integral neglect threshold       :  0.13E-13
 integral storage threshold THIZE :  0.10E-04
 integral storage threshold THIME :         5

 RI-J AUXILIARY BASIS SET information:

              we will work with the 1s 3p 5d 7f 9g ... basis set
              ...i.e. with spherical basis functions...

   type   atoms  prim   cont   basis
   ---------------------------------------------------------------------------
    fe       1    107     89   def2-QZVP   [8s5p5d2f3g|19s5p5d3f3g]
    c       18     70     49   def2-QZVP   [6s4p3d1f1g|12s5p4d2f1g]
    n        2     70     49   def2-QZVP   [6s4p3d1f1g|12s5p4d2f1g]
    h       30     16     11   def2-QZVP   [3s1p1d|5s2p1d]
   ---------------------------------------------------------------------------
   total:   51   1987   1399
   ---------------------------------------------------------------------------

   total number of primitive shells          :   91
   total number of contracted shells         :  473
   total number of cartesian basis functions : 1698
   total number of SCF-basis functions       : 1399


 symmetry group of the molecule :   c1 

 the group has the following generators :
   c1(z)

    1 symmetry operations found

 there are 1 real representations :   a   

 maximum number of shells which are related by symmetry :  1


    mo occupation :
   irrep   mo's   occupied
    a     2124       88
 
 number of basis functions   :         2124
 number of occupied orbitals :           88
 
  
           ------------------
           density functional
           ------------------
 PBE functional
 exchange:    LDA + PBE
 correlation: LDA (PW) + PBE
 grinp -> nfun, dfgga, dfhybrid 
           6 T F
 iterations will be done with small grid
  
 spherical integration : Lebedev's spherical grid
 spherical gridsize    :           5
    i.e. gridpoints    :         590
 value for diffuse not defined
 radial integration    : Chebyshev 2nd kind (scaling 3)
 radial gridsize       :           8
 integration cells     :          51
 partition function    : becke
 partition sharpness   :           3
  

 <rddim> : input of entry tasksize
           from data group '$pardft' failed !

               Default values taken

 <rddim> : input of entry memdiv
           from data group '$pardft' failed !

               Default values taken
  RIDFT: memory allocation for DFT gridpoints
  MEMORY is divided by 1 as DEFAULT
 Each node can hold at most  the            1 -th part
 of the gridpoints    

 biggest AO integral is expected to be    16.602593842
  
           ------------------------
               RI-J - INFORMATION
           ------------------------
 
 
 **************************************************
 *      MEMORY ALLOCATION FOR PARALLEL RI-DFT     *
 **************************************************
 
 
MEMORY FOR (MU NU/ ALPHA), SEQUENTIAL RUN               4984 MByte
 
            DIFFERENCE IN MEMORY NEED:       DIAG./SLAVE  
 
      TOTAL DIFFERENCE :                    200 MByte
 
      difference in xcore:                   17 MByte
      difference in fatmat:                  63 MByte
      getcor calls skipped by slaves:       121 MByte
 
 
           Integral memory available for diagonal.      4984 MByte
 
           Integral memory available for slave             0 MByte
 
         MEMORY FOR (MU NU/ ALPHA) ON DIAGONALIZER      4984 MByte
 
         MEMORY FOR (MU NU/ ALPHA) ON ONE SLAVE            0 MByte
 
         TOTAL MEMORY FOR (MU NU/ ALPHA),ALL NODES      4984 MByte
 
 Contributions to RI integral batches: 
  neglected integral batches:       96479
  direct contribution:              77478
  memory contribution:       48154
 Memory core needed for (P|Q) and Cholesky     15 MByte
 Memory core minimum needed except of (P|Q)     5 MByte
 Total minimum memory core needed (sum)        20 MByte
     number of direct tasks:         160
  
 ****************************************
 Memory allocated for RI-J  5003 MByte
 ****************************************
                                            

          ------------------------
          nuclear repulsion energy  :   2322.37716045    
          ------------------------

 
          -----------------
          -S integrals
          -----------------

 1e-integrals will be neglected if expon. factor < 0.128834E-14
 
          -----------------
          -T+V integrals
          -----------------

 1e-integrals will be neglected if expon. factor < 0.128834E-14
 Difference densities >>NOT<< switched on in parallel ridft!

 automatic virtual orbital shift switched on 
      shift if e(lumo)-e(homo) < 0.10000000    


 DIIS switched on: error vector is FDS-SDF
 Max. Iterations for DIIS is     :   4
 DIIS matrix (see manual) 
    Scaling factor of diagonals  :  1.200
    threshold for scaling factor :  0.000

 scf convergence criterion : increment of total energy < .1000000D-08
                  and increment of one-electron energy < .1000000D-05


 <geterg> : there is no data group $energy 

  MOs are in ASCII format !


 reading orbital data $scfmo  from file mos . 

 orbital characterization : expanded
 
 mo provided and orthogonalized by Cholesky decomposition

 DSCF restart information will be dumped onto file mos


 Starting SCF iterations


 ITERATION  ENERGY          1e-ENERGY        2e-ENERGY     RMS[dD(SAO)]   TOL
   1  -2069.3533138788    -7434.5882887     3042.8578144    0.000D+00 0.129D-13
                            Exc = -175.451143032     Coul =  3218.30895745    
                              N = 176.00013521    
                            current damping = 0.700
 
          max. resid. norm for Fia-block=  9.618D-01 for orbital     50a         
          max. resid. fock norm         =  8.803D+01 for orbital   1884a         

 ITERATION  ENERGY          1e-ENERGY        2e-ENERGY     RMS[dD(SAO)]   TOL
   2  -2073.2751604183    -7365.3022608     2969.6499400    0.622D-02 0.129D-13
                            Exc = -173.470222319     Coul =  3143.12016228    
                              N = 176.00013512    
                            current damping = 0.650
 
          Norm of current diis error:  10.415    
          max. resid. norm for Fia-block=  5.421D-01 for orbital     26a         
          max. resid. fock norm         =  1.258D+00 for orbital   2074a         

 ITERATION  ENERGY          1e-ENERGY        2e-ENERGY     RMS[dD(SAO)]   TOL
   3  -2074.9285067438    -7455.0573005     3057.7516333    0.492D-02 0.129D-13
                            Exc = -177.770021721     Coul =  3235.52165504    
                              N = 176.00011951    
                            current damping = 0.600
 
          Norm of current diis error:  6.0635    
          max. resid. norm for Fia-block=  1.122D-01 for orbital     85a         
          max. resid. fock norm         =  1.316D-01 for orbital     89a         

 ITERATION  ENERGY          1e-ENERGY        2e-ENERGY     RMS[dD(SAO)]   TOL
   4  -2075.7442049409    -7416.7839390     3018.6625736    0.103D-02 0.129D-13
                            Exc = -176.433954872     Coul =  3195.09652846    
                              N = 176.00010983    
                            current damping = 0.650
 
          Norm of current diis error:  1.5628    
          max. resid. norm for Fia-block=  4.776D-02 for orbital      1a         
          max. resid. fock norm         =  9.016D-02 for orbital   1905a         

 ITERATION  ENERGY          1e-ENERGY        2e-ENERGY     RMS[dD(SAO)]   TOL
   5  -2075.7881042442    -7422.8980099     3024.7327452    0.475D-03 0.129D-13
                            Exc = -176.620608319     Coul =  3201.35335348    
                              N = 176.00010860    
                            current damping = 0.700
 
          Norm of current diis error: 0.52464    
          max. resid. norm for Fia-block=  1.731D-02 for orbital      1a         
          max. resid. fock norm         =  2.376D-02 for orbital   1898a         
          mo-orthogonalization: Cholesky decomposition

 ITERATION  ENERGY          1e-ENERGY        2e-ENERGY     RMS[dD(SAO)]   TOL
   6  -2075.7948273576    -7423.1091584     3024.9371706    0.179D-03 0.129D-13
                            Exc = -176.703386779     Coul =  3201.64055734    
                              N = 176.00010453    
                            current damping = 0.550
 
          Norm of current diis error: 0.25442    
          max. resid. norm for Fia-block=  8.441D-03 for orbital     86a         
          max. resid. fock norm         =  1.279D-02 for orbital   1898a         

 ITERATION  ENERGY          1e-ENERGY        2e-ENERGY     RMS[dD(SAO)]   TOL
   7  -2075.7949938161    -7424.9283357     3026.7561814    0.879D-04 0.129D-13
                            Exc = -176.772537105     Coul =  3203.52871854    
                              N = 176.00010231    
                            current damping = 0.450
 
          Norm of current diis error: 0.25822    
          max. resid. norm for Fia-block=  8.363D-03 for orbital     88a         
          max. resid. fock norm         =  9.402D-03 for orbital     90a         

 ITERATION  ENERGY          1e-ENERGY        2e-ENERGY     RMS[dD(SAO)]   TOL
   8  -2075.7907527668    -7421.1431118     3022.9751986    0.762D-04 0.129D-13
                            Exc = -176.643523210     Coul =  3199.61872181    
                              N = 176.00010168    
                            current damping = 0.500
 
          Norm of current diis error: 0.54550    
          max. resid. norm for Fia-block=  2.028D-03 for orbital     82a         
          max. resid. fock norm         =  3.996D-03 for orbital   1898a         

 ITERATION  ENERGY          1e-ENERGY        2e-ENERGY     RMS[dD(SAO)]   TOL
   9  -2075.7939395220    -7422.2342759     3024.0631760    0.201D-04 0.129D-13
                            Exc = -176.681791238     Coul =  3200.74496722    
                              N = 176.00010199    
                            current damping = 0.550
 
          Norm of current diis error: 0.35492    
          max. resid. norm for Fia-block=  2.349D-03 for orbital     87a         
          max. resid. fock norm         =  2.684D-03 for orbital     89a         

 ITERATION  ENERGY          1e-ENERGY        2e-ENERGY     RMS[dD(SAO)]   TOL
  10  -2075.7958383107    -7423.1454112     3024.9724125    0.163D-04 0.129D-13
                            Exc = -176.717969642     Coul =  3201.69038210    
                              N = 176.00010192    
                            current damping = 0.450
 
          Norm of current diis error: 0.17972    
          max. resid. norm for Fia-block=  2.334D-03 for orbital     88a         
          max. resid. fock norm         =  2.461D-03 for orbital     90a         
          mo-orthogonalization: Cholesky decomposition

 ITERATION  ENERGY          1e-ENERGY        2e-ENERGY     RMS[dD(SAO)]   TOL
  11  -2075.7964969276    -7423.9610986     3025.7874412    0.165D-04 0.129D-13
                            Exc = -176.744510562     Coul =  3202.53195181    
                              N = 176.00010157    
                            current damping = 0.350
 
          Norm of current diis error: 0.13711E-01
          max. resid. norm for Fia-block=  3.695D-04 for orbital     87a         
          max. resid. fock norm         =  7.533D-04 for orbital   2107a         

 ITERATION  ENERGY          1e-ENERGY        2e-ENERGY     RMS[dD(SAO)]   TOL
  12  -2075.7964935698    -7423.9128478     3025.7391938    0.381D-05 0.129D-13
                            Exc = -176.742914262     Coul =  3202.48210801    
                              N = 176.00010154    
                            current damping = 0.400
 
          Norm of current diis error: 0.18508E-01
          max. resid. norm for Fia-block=  1.702D-04 for orbital     87a         
          max. resid. fock norm         =  3.289D-04 for orbital   2108a         

 ITERATION  ENERGY          1e-ENERGY        2e-ENERGY     RMS[dD(SAO)]   TOL
  13  -2075.7964998635    -7423.8825828     3025.7089225    0.157D-05 0.129D-13
                            Exc = -176.741899923     Coul =  3202.45082246    
                              N = 176.00010150    
                            current damping = 0.250
 
          Norm of current diis error: 0.60670E-02
          max. resid. norm for Fia-block=  6.561D-05 for orbital     82a         
          max. resid. fock norm         =  1.029D-04 for orbital   2107a         

 ITERATION  ENERGY          1e-ENERGY        2e-ENERGY     RMS[dD(SAO)]   TOL
  14  -2075.7965004969    -7423.9145964     3025.7409354    0.913D-06 0.129D-13
                            Exc = -176.742951552     Coul =  3202.48388697    
                              N = 176.00010152    
                            current damping = 0.300
 
          Norm of current diis error: 0.14696E-02
          max. resid. norm for Fia-block=  3.004D-05 for orbital     83a         
          max. resid. fock norm         =  6.936D-05 for orbital   2108a         

 ITERATION  ENERGY          1e-ENERGY        2e-ENERGY     RMS[dD(SAO)]   TOL
  15  -2075.7965005199    -7423.9057896     3025.7321286    0.259D-06 0.129D-13
                            Exc = -176.742622861     Coul =  3202.47475148    
                              N = 176.00010151    
                            current damping = 0.350
 
          Norm of current diis error: 0.10086E-02
          max. resid. norm for Fia-block=  1.244D-05 for orbital     83a         
          max. resid. fock norm         =  2.962D-05 for orbital   2109a         
          mo-orthogonalization: Cholesky decomposition

 ITERATION  ENERGY          1e-ENERGY        2e-ENERGY     RMS[dD(SAO)]   TOL
  16  -2075.7965005384    -7423.9101324     3025.7364715    0.108D-06 0.129D-13
                            Exc = -176.742781247     Coul =  3202.47925271    
                              N = 176.00010151    
                            current damping = 0.400
 
          Norm of current diis error: 0.25319E-03
          max. resid. norm for Fia-block=  8.427D-06 for orbital     88a         
          max. resid. fock norm         =  1.044D-05 for orbital   2107a         

 DENSITY CONVERGED !


 ITERATION  ENERGY          1e-ENERGY        2e-ENERGY     RMS[dD(SAO)]   TOL
  17  -2075.7965005345    -7423.9074141     3025.7337531    0.662D-07 0.129D-13
                            Exc = -176.742688609     Coul =  3202.47644168    
                              N = 176.00010151    
                            current damping = 0.450
 
          Norm of current diis error: 0.50611E-03
          max. resid. norm for Fia-block=  4.925D-06 for orbital     88a         
          max. resid. fock norm         =  6.151D-06 for orbital     89a         

 DENSITY CONVERGED !


 ITERATION  ENERGY          1e-ENERGY        2e-ENERGY     RMS[dD(SAO)]   TOL
  18  -2075.7965005392    -7423.9098135     3025.7361526    0.391D-07 0.129D-13
                            Exc = -176.742772507     Coul =  3202.47892506    
                              N = 176.00010151    
                            current damping = 0.500
 
          Norm of current diis error: 0.14472E-03
          max. resid. norm for Fia-block=  1.814D-06 for orbital     85a         
          max. resid. fock norm         =  3.872D-06 for orbital   2107a         

 DENSITY CONVERGED !


 ITERATION  ENERGY          1e-ENERGY        2e-ENERGY     RMS[dD(SAO)]   TOL
  19  -2075.7965005396    -7423.9097382     3025.7360772    0.154D-07 0.129D-13
                            Exc = -176.742770365     Coul =  3202.47884753    
                              N = 176.00010151    
                            current damping = 0.550
 
          Norm of current diis error: 0.40661E-04
          max. resid. norm for Fia-block=  7.097D-07 for orbital     85a         
          max. resid. fock norm         =  1.870D-06 for orbital   2107a         

 DENSITY CONVERGED !


 ITERATION  ENERGY          1e-ENERGY        2e-ENERGY     RMS[dD(SAO)]   TOL
  20  -2075.7965005397    -7423.9098849     3025.7362239    0.491D-08 0.129D-13
                            Exc = -176.742775076     Coul =  3202.47899899    
                              N = 176.00010151    
                            current damping = 0.600
 
          Norm of current diis error: 0.15892E-04
          max. resid. norm for Fia-block=  3.384D-07 for orbital     85a         
          max. resid. fock norm         =  8.530D-07 for orbital   2106a         
          mo-orthogonalization: Cholesky decomposition

 ENERGY & DENSITY CONVERGED !


 ITERATION  ENERGY          1e-ENERGY        2e-ENERGY     RMS[dD(SAO)]   TOL
  21  -2075.7964530412    -7423.9098357     3025.7362222    0.230D-08 0.129D-13
                            Exc = -176.742725889     Coul =  3202.47894806    
                              N = 175.99994232    
                            current damping = 0.650
 
          Norm of current diis error: 0.89145E-05
          max. resid. norm for Fia-block=  1.331D-07 for orbital     84a         
          max. resid. fock norm         =  3.314D-07 for orbital   2109a         

 End of SCF iterations

   convergence criteria satisfied after   21 iterations


                  ------------------------------------------ 
                 |  total energy      =  -2075.79645304123  |
                  ------------------------------------------ 
                 :  kinetic energy    =   2069.77503380225  :
                 :  potential energy  =  -4145.57148684348  :
                 :  virial theorem    =      1.99709922462  :
                 :  wavefunction norm =      1.00000000000  :
                  .......................................... 


 <geterg> : there is no data group $energy 


 <skperg> : $end is missing 


 orbitals $scfmo  will be written to file mos

    irrep                 84a         85a         86a         87a         88a   
 eigenvalues H         -0.45261    -0.45252    -0.39285    -0.38937    -0.38896
            eV         -12.3162    -12.3137    -10.6901    -10.5953    -10.5843
 occupation              2.0000      2.0000      2.0000      2.0000      2.0000 

    irrep                 89a         90a         91a         92a         93a   
 eigenvalues H         -0.27961    -0.27420    -0.23973    -0.23202    -0.21313
            eV          -7.6086     -7.4613     -6.5234     -6.3136     -5.7996
 
 
 ! grave: sending quit signal to master process
 
 
 
 
 ==============================================================================
                           electrostatic moments
 ==============================================================================

 reference point for electrostatic moments:    0.00000   0.00000   0.00000

 
              nuc           elec       ->  total
 ------------------------------------------------------------------------------
                          charge      
 ------------------------------------------------------------------------------
         178.000000    -176.000000       2.000000
 
 ------------------------------------------------------------------------------
                       dipole moment  
 ------------------------------------------------------------------------------
   x       3.840320      -4.204038      -0.363717
   y       4.113972      -4.421827      -0.307856
   z       0.638331      -0.622987       0.015343
 
   | dipole moment | =     0.4768 a.u. =     1.2118 debye 
 
 ------------------------------------------------------------------------------
                     quadrupole moment
 ------------------------------------------------------------------------------
  xx     634.593243    -718.939277     -84.346034
  yy     681.353793    -765.432062     -84.078269
  zz    6580.851680   -6537.248967      43.602712
  xy    -114.654942     115.596726       0.941784
  xz    -185.640086     176.489722      -9.150364
  yz     364.939926    -351.206667      13.733259
 
     1/3  trace=     -41.607197
     anisotropy=     130.982246
 
 ==============================================================================
 

    ridft profiling
  --------------------------------------------------------------------
             module   cpu total (s)       %  wall total (s)       %

               RIDFT          4557.4  100.00          4557.8  100.00
         Ridft_b_scf          2912.6   63.91          2910.6   63.86
        b_scf_prelim             0.0    0.00             0.0    0.00
        b_scf_molinp             0.0    0.00             0.0    0.00
         b_scf_init0             0.0    0.00             0.0    0.00
        b_scf_auxbas             0.0    0.00             0.0    0.00
      b_scf_symmetry             0.0    0.00             0.0    0.00
         b_scf_cosmo             0.0    0.00             0.0    0.00
        b_scf_params          2355.3   51.68          2353.7   51.64
          b_scf_ri-j           543.9   11.93           543.4   11.92
    b_scf_ri-j_auxpq           543.9   11.93           543.4   11.92
     ri-j_auxpq_chol             0.6    0.01             0.6    0.01
         b_scf_1elec             1.9    0.04             1.9    0.04
       b_scf_moinput            11.5    0.25            11.5    0.25
     moinput_orthmos            11.4    0.25            11.4    0.25
    b_scf_dft-dstmax             0.0    0.00             0.0    0.00
           Ridft_scf          1643.7   36.07          1646.1   36.12
          Scf_b_loop             0.0    0.00             0.0    0.00
                noga             0.0    0.00             0.0    0.00
            Scf_loop          1641.8   36.03          1644.0   36.07
     scf_loop_mkdmat             5.5    0.12             5.8    0.13
       scf_loop_ri-j           190.1    4.17           190.0    4.17
      parlp1.bc.dens             1.5    0.03             1.5    0.03
        parlp1.gs.gp             5.6    0.12             5.6    0.12
        parlp2.bc.gq             0.0    0.00             0.0    0.00
        scf_loop_dft          1252.7   27.49          1252.9   27.49
      pardft.bc.dens             0.0    0.00             0.0    0.00
        dft_grid_con             1.2    0.03             1.2    0.03
           dft_xcrhf          1212.3   26.60          1212.5   26.60
          dft_getval           186.2    4.09           186.7    4.10
          funct2 dst             0.5    0.01             0.5    0.01
      funct2 f2loop1           126.9    2.78           127.1    2.79
      funct2 f2loop2            38.3    0.84            38.5    0.85
          funct2 s+c            16.4    0.36            16.4    0.36
        funct2 cmf_2            15.4    0.34            15.5    0.34
          dft_mkdens           410.8    9.01           410.7    9.01
         dft_gga-fun             0.4    0.01             0.4    0.01
          dft_mkfock           597.1   13.10           596.9   13.10
     pardft.red.fock           121.6    2.67           121.7    2.67
     scf_loop_energy             0.1    0.00             0.1    0.00
     scf_loop_mkfock             0.1    0.00             0.1    0.00
       scf_loop_diis            81.9    1.80            81.8    1.80
       scf_loop_diag            63.5    1.39            63.4    1.39
         diag_tritrn            21.9    0.48            21.9    0.48
          diag_rdiag            41.3    0.91            41.2    0.91
     scf_loop_modump            31.6    0.69            33.5    0.74
      scf_loop_ortho            14.9    0.33            14.9    0.33
          Scf_a_loop             1.8    0.04             2.0    0.04
         Ridft_a_scf             1.1    0.02             1.1    0.03
         a_scf_fanal             0.9    0.02             0.9    0.02
 


    ------------------------------------------------------------------------
         total  cpu-time :  1 hours 16 minutes and  0 seconds
         total wall-time :  1 hours 16 minutes and  0 seconds
    ------------------------------------------------------------------------


   ****  ridft : all done  ****


    2016-01-04 21:08:47.588 

