 operating system is UNIX !

 ridft (gplogin2.gp.local) : TURBOMOLE V7.2 ( 21454 ) 4 Oct 2017 at 12:48:15
 Copyright (C) 2017 TURBOMOLE GmbH, Karlsruhe


    2018-05-02 18:03:07.607 



                                  r i d f t

                        DFT program with RI approximation 
                                for coulomb part 




                                                 
                                 References:     
                                                 
          TURBOMOLE:                             
              R. Ahlrichs, M. Baer, M. Haeser, H. Horn, and
              C. Koelmel
              Electronic structure calculations on workstation
              computers: the program system TURBOMOLE
              Chem. Phys. Lett. 162: 165 (1989)
          Density Functional:                              
              O. Treutler and R. Ahlrichs                      
              Efficient Molecular Numerical Integration Schemes
              J. Chem. Phys. 102: 346 (1995)                   
          Parallel Version:                                
              Performance of parallel TURBOMOLE for Density    
              Functional Calculations                          
              M. v. Arnim and R. Ahlrichs                      
              J. Comp. Chem. 19: 1746 (1998)                   
          RI-J Method:                                     
              Auxiliary Basis Sets to approximate Coulomb      
              Potentials                                       
              Chem. Phys. Lett. 240: 283 (1995)                
              K. Eichkorn, O. Treutler, H. Oehm, M. Haeser     
              and R. Ahlrichs                                  
              Chem. Phys. Lett. 242: 652 (1995)                
                                                           
              Auxiliary Basis Sets for Main Row Atoms and their
              Use to approximate Coulomb Potentials            
              K. Eichkorn, F. Weigend, O. Treutler and         
              R. Ahlrichs                                      
              Theo. Chem. Acc. 97: 119 (1997)                   
                                                           
              Accurate Coulomb-fitting basis sets for H to Rn 
              F. Weigend                                        
              Phys. Chem. Chem. Phys. 8: 1057 (2006)            
                                                           
          Multipole accelerated RI-J (MARI-J):             
              Fast evaluation of the Coulomb potential for     
              electron densities using multipole accelerated   
              resolution of identity approximation             
              M. Sierka, A. Hogekamp and R. Ahlrichs           
              J. Chem. Phys. 118: 9136 (2003)                  
          RI-JK Method:                                     
              A fully direct RI-HF algorithm: Implementation,
              optimised auxiliary basis sets, demonstration of
              accuracy and efficiency                         
              F. Weigend                                      
              Phys. Chem. Chem. Phys. 4: 4285 (2002)           
          Two-component HF and DFT with spin-orbit coupling:  
              Self-consistent treatment of spin-orbit         
              interactions with efficient Hartree-Fock and    
              density functional methods                      
              M. K. Armbruster, F. Weigend, C. van Wüllen and 
              W. Klopper                                      
              Phys. Chem. Chem. Phys. 10: 1748 (2008)         
          Relativistic all-electron 2c calculations           
              An efficient implementation of two-component    
              relativistic exact-decoupling methods for large 
              molecules                                       
              D. Peng, N. Middendorf, F. Weigend, M. Reiher   
              J. Chem. Phys. 138, 184105 (2013)               
                                         




              +--------------------------------------------------+
              |      general information about current run       |
              +--------------------------------------------------+

 

 DENSITY CONVERGENCE CHECK SWITCHED ON !
 SCF CONVERGENCE IF RMS(delta[D]) <     0.1000000000E-06

 PBE functional
 exchange:    LDA + PBE
 correlation: LDA (PW) + PBE
 A DFT calculation using the RI-J approximation will be carried out.
 Allocatable memory for RI due to $ricore (MB):                   500


              +--------------------------------------------------+
              | Atomic coordinate, charge and isotop information |
              +--------------------------------------------------+

                    atomic coordinates            atom    charge  isotop
         58.58151012    0.00000000    0.00000000    he     2.000     0
        -58.58151012    0.00000000    0.00000000    he     2.000     0
 
       center of nuclear mass  :    0.00000000    0.00000000    0.00000000
       center of nuclear charge:    0.00000000    0.00000000    0.00000000

              +--------------------------------------------------+
              |               basis set information              |
              +--------------------------------------------------+

              we will work with the 1s 3p 5d 7f 9g ... basis set
              ...i.e. with spherical basis functions...

   type   atoms  prim   cont   basis
   ---------------------------------------------------------------------------
    he       2     17     14   cc-pVTZ   [3s2p1d|6s2p1d]
   ---------------------------------------------------------------------------
   total:    2     34     28
   ---------------------------------------------------------------------------

   total number of primitive shells          :    9
   total number of contracted shells         :   12
   total number of cartesian basis functions :   30
   total number of SCF-basis functions       :   28


 integral neglect threshold       :  0.11E-11
 integral storage threshold THIZE :  0.10E-04
 integral storage threshold THIME :         5

 RI-J AUXILIARY BASIS SET information:

              we will work with the 1s 3p 5d 7f 9g ... basis set
              ...i.e. with spherical basis functions...

   type   atoms  prim   cont   basis
   ---------------------------------------------------------------------------
    he       2     16     11   cc-pVTZ   [3s1p1d|5s2p1d]
   ---------------------------------------------------------------------------
   total:    2     32     22
   ---------------------------------------------------------------------------

   total number of primitive shells          :    8
   total number of contracted shells         :   10
   total number of cartesian basis functions :   24
   total number of SCF-basis functions       :   22


 symmetry group of the molecule :   c1 

 the group has the following generators :
   c1(z)

    1 symmetry operations found

 there are 1 real representations :   a   

 maximum number of shells which are related by symmetry :  1


    mo occupation :
   irrep   mo's   occupied
    a       28        2
 
 number of basis functions   :                     28
 number of occupied orbitals :                      2
 
  
           ------------------
           density functional
           ------------------
 PBE functional
 exchange:    LDA + PBE
 correlation: LDA (PW) + PBE

 iterations will be done with small grid
  
 spherical integration : Lebedev's spherical grid
 spherical gridsize    :                     5
    i.e. gridpoints    :                   590
 value for diffuse not defined
 radial integration    : Chebyshev 2nd kind (scaling 3)
 radial gridsize       :                     8
 integration cells     :                     2
 partition function    : becke
 partition sharpness   :                     3
  

 biggest AO integral is expected to be     2.049597007
  
           ------------------------
               RI-J - INFORMATION
           ------------------------
 Contributions to RI integral batches: 
  neglected integral batches:                    36
  direct contribution:                            0
  memory contribution:                    42
 Memory core needed for (P|Q) and Cholesky      1 MByte
 Memory core minimum needed except of (P|Q)     1 MByte
 Total minimum memory core needed (sum)         1 MByte
  
 ****************************************
 Memory allocated for RI-J     1 MByte
 ****************************************
                                            

          ------------------------
          nuclear repulsion energy  :  0.341404650703E-01
          ------------------------


         -----------------
         -S,T+V- integrals
         -----------------

 1e-integrals will be neglected if expon. factor < 0.111399E-12
 
   Difference densities algorithm switched on.
   The maximal number of linear combinations of
   difference densities is                    20 .

 DIIS switched on: error vector is FDS-SDF
 Max. Iterations for DIIS is     :   4
 DIIS matrix (see manual) 
    Scaling factor of diagonals  :  1.200
    threshold for scaling factor :  0.000

 scf convergence criterion : increment of total energy < .1000000D-08
                  and increment of one-electron energy < .1000000D-05

  MOs are in ASCII format !


 automatic virtual orbital shift switched on 
      shift if e(lumo)-e(homo) < 0.10000000    


 reading orbital data $scfmo  from file mos
 orbital characterization : expanded
 mo provided and orthogonalized by Cholesky decomposition

 DSCF restart information will be dumped onto file mos


 Starting SCF iterations

          Overall gridpoints after grid construction =         10680

 ITERATION  ENERGY          1e-ENERGY        2e-ENERGY     RMS[dD(SAO)]   TOL
   1  -5.7800821710142    -7.8449458294     2.0307231933    0.000D+00 0.111D-11
                            Exc = -2.11267312811     Coul =  4.14339632144    
                              N = 4.0000000003    
                            current damping = 0.700
 
          max. resid. norm for Fia-block=  5.526D-02 for orbital      1a         
          max. resid. fock norm         =  2.831D+00 for orbital     14a         

 ITERATION  ENERGY          1e-ENERGY        2e-ENERGY     RMS[dD(SAO)]   TOL
   2  -5.7832495728356    -7.8409025779     2.0235125400    0.300D-02 0.717D-12
                            Exc = -2.11209437076     Coul =  4.13560691071    
                              N = 4.0000000003    
                            current damping = 0.650
 
          Norm of current diis error: 0.35300E-01
          max. resid. norm for Fia-block=  2.204D-02 for orbital      1a         
          max. resid. fock norm         =  2.204D-02 for orbital      1a         

 ITERATION  ENERGY          1e-ENERGY        2e-ENERGY     RMS[dD(SAO)]   TOL
   3  -5.7840813963975    -7.8283629770     2.0101411156    0.169D-02 0.530D-12
                            Exc = -2.10224884986     Coul =  4.11238996543    
                              N = 4.0000000003    
                            current damping = 0.500
 
          Norm of current diis error: 0.15134E-01
          max. resid. norm for Fia-block=  9.982D-03 for orbital      2a         
          max. resid. fock norm         =  9.982D-03 for orbital      2a         

 ITERATION  ENERGY          1e-ENERGY        2e-ENERGY     RMS[dD(SAO)]   TOL
   4  -5.7842512278100    -7.8221547087     2.0037630158    0.848D-03 0.457D-12
                            Exc = -2.09768019753     Coul =  4.10144321337    
                              N = 4.0000000002    
                            current damping = 0.350
 
          Norm of current diis error: 0.52288E-02
          max. resid. norm for Fia-block=  3.534D-03 for orbital      2a         
          max. resid. fock norm         =  3.534D-03 for orbital      2a         

 ITERATION  ENERGY          1e-ENERGY        2e-ENERGY     RMS[dD(SAO)]   TOL
   5  -5.7842728450145    -7.8196954743     2.0012821642    0.333D-03 0.420D-12
                            Exc = -2.09591638050     Coul =  4.09719854473    
                              N = 4.0000000002    
                            current damping = 0.200
 
          Norm of current diis error: 0.13489E-02
          max. resid. norm for Fia-block=  9.451D-04 for orbital      2a         
          max. resid. fock norm         =  9.451D-04 for orbital      2a         
          mo-orthogonalization: Cholesky decomposition

 ITERATION  ENERGY          1e-ENERGY        2e-ENERGY     RMS[dD(SAO)]   TOL
   6  -5.7842743461175    -7.8190172638     2.0006024527    0.964D-04 0.329D-12
                            Exc = -2.09544675307     Coul =  4.09604920573    
                              N = 4.0000000002    
                            current damping = 0.050
 
          Norm of current diis error: 0.22786E-03
          max. resid. norm for Fia-block=  1.581D-04 for orbital      1a         
          max. resid. fock norm         =  1.581D-04 for orbital      1a         

 ITERATION  ENERGY          1e-ENERGY        2e-ENERGY     RMS[dD(SAO)]   TOL
   7  -5.7842743901521    -7.8188819786     2.0004671234    0.187D-04 0.319D-12
                            Exc = -2.09535212928     Coul =  4.09581925271    
                              N = 4.0000000002    
                            current damping = 0.050
 
          Norm of current diis error: 0.10930E-04
          max. resid. norm for Fia-block=  7.991D-06 for orbital      2a         
          max. resid. fock norm         =  8.288D-06 for orbital     11a         

 ITERATION  ENERGY          1e-ENERGY        2e-ENERGY     RMS[dD(SAO)]   TOL
   8  -5.7842743902418    -7.8188776593     2.0004628039    0.796D-06 0.315D-12
                            Exc = -2.09534961077     Coul =  4.09581241471    
                              N = 4.0000000002    
                            current damping = 0.050
 
          Norm of current diis error: 0.10948E-05
          max. resid. norm for Fia-block=  3.819D-07 for orbital      1a         
          max. resid. fock norm         =  3.819D-07 for orbital      1a         

 ENERGY & DENSITY CONVERGED !

          Overall gridpoints after grid construction =         35956

 ITERATION  ENERGY          1e-ENERGY        2e-ENERGY     RMS[dD(SAO)]   TOL
   9  -5.7842744238893    -7.8188769591     2.0004620701    0.636D-07 0.316D-12
                            Exc = -2.09534906568     Coul =  4.09581113580    
                              N = 4.0000000000    
                            current damping = 0.050
 
          Norm of current diis error: 0.17285E-06
          max. resid. norm for Fia-block=  4.677D-08 for orbital      1a         
          max. resid. fock norm         =  5.347D-08 for orbital     11a         

 End of SCF iterations

   convergence criteria satisfied after     9 iterations


                  ------------------------------------------ 
                 |  total energy      =     -5.78427442389  |
                  ------------------------------------------ 
                 :  kinetic energy    =      5.71592362908  :
                 :  potential energy  =    -11.50019805297  :
                 :  virial theorem    =      1.98818334163  :
                 :  wavefunction norm =      1.00000000000  :
                  .......................................... 


 <geterg> : there is no data group $energy 


 <skperg> : $end is missing 


 orbitals $scfmo  will be written to file mos

    irrep                  1a          2a          3a          4a          5a   
 eigenvalues H         -0.57707    -0.57707     0.45008     0.45008     1.19300
            eV         -15.7030    -15.7030     12.2475     12.2475     32.4634
 occupation              2.0000      2.0000 

    irrep                  6a          7a          8a          9a         10a   
 eigenvalues H          1.19300     1.19300     1.19300     1.19300     1.19300
            eV          32.4634     32.4634     32.4634     32.4634     32.4634
 
 
 
 
 ==============================================================================
                           electrostatic moments
 ==============================================================================

 reference point for electrostatic moments:    0.00000   0.00000   0.00000

 
              nuc           elec       ->  total
 ------------------------------------------------------------------------------
                          charge      
 ------------------------------------------------------------------------------
           4.000000      -4.000000      -0.000000
 
 ------------------------------------------------------------------------------
                       dipole moment  
 ------------------------------------------------------------------------------
   x       0.000000      -0.000000      -0.000000
   y       0.000000      -0.000000      -0.000000
   z       0.000000       0.000000       0.000000
 
   | dipole moment | =     0.0000 a.u. =     0.0000 debye 
 
 ------------------------------------------------------------------------------
                     quadrupole moment
 ------------------------------------------------------------------------------
  xx   13727.173312  -13728.815088      -1.641777
  yy       0.000000      -1.641777      -1.641777
  zz       0.000000      -1.641777      -1.641777
  xy       0.000000       0.000000       0.000000
  xz       0.000000       0.000000       0.000000
  yz       0.000000       0.000000       0.000000
 
     1/3  trace=      -1.641777
     anisotropy=       0.000000
 
 ==============================================================================
 


    ------------------------------------------------------------------------
         total  cpu-time :   0.32 seconds
         total wall-time :   0.68 seconds
    ------------------------------------------------------------------------

   ****  ridft : all done  ****


    2018-05-02 18:03:08.250 

