Using Slurm to start processes with PMI2
STARTING ridft ON 8 PROCESSORS!
RUNNING PROGRAM /beegfs/modfac/apps/TURBOMOLE/7.0_intel_GA/bin/em64t-unknown-linux-gnu_mpi/ridft_mpi.
PLEASE WAIT UNTIL ridft HAS FINISHED.
Look for the output in slave1.output.
  this is node-proc. number 1 running on node c-16-33.local
  the total number of node-proc. spawned is            8
  parallel platform: MPP, or cluster with fast interconnect

 ridft (c-16-33.local) : TURBOMOLE V7.0.2( ) 15 Jan 2016 at 17:47:42
 Copyright (C) 2016 TURBOMOLE GmbH, Karlsruhe


    2017-10-30 01:01:44.570 



                                  r i d f t

                        DFT program with RI approximation 
                                for coulomb part 




                                                 
                                 References:     
                                                 
          TURBOMOLE:                             
              R. Ahlrichs, M. Baer, M. Haeser, H. Horn, and
              C. Koelmel
              Electronic structure calculations on workstation
              computers: the program system TURBOMOLE
              Chem. Phys. Lett. 162: 165 (1989)
          Density Functional:                              
              O. Treutler and R. Ahlrichs                      
              Efficient Molecular Numerical Integration Schemes
              J. Chem. Phys. 102: 346 (1995)                   
          Parallel Version:                                
              Performance of parallel TURBOMOLE for Density    
              Functional Calculations                          
              M. v. Arnim and R. Ahlrichs                      
              J. Comp. Chem. 19: 1746 (1998)                   
          RI-J Method:                                     
              Auxiliary Basis Sets to approximate Coulomb      
              Potentials                                       
              Chem. Phys. Lett. 240: 283 (1995)                
              K. Eichkorn, O. Treutler, H. Oehm, M. Haeser     
              and R. Ahlrichs                                  
              Chem. Phys. Lett. 242: 652 (1995)                
                                                           
              Auxiliary Basis Sets for Main Row Atoms and their
              Use to approximate Coulomb Potentials            
              K. Eichkorn, F. Weigend, O. Treutler and         
              R. Ahlrichs                                      
              Theo. Chem. Acc. 97: 119 (1997)                   
                                                           
              Accurate Coulomb-fitting basis sets for H to Rn 
              F. Weigend                                        
              Phys. Chem. Chem. Phys. 8: 1057 (2006)            
                                                           
          Multipole accelerated RI-J (MARI-J):             
              Fast evaluation of the Coulomb potential for     
              electron densities using multipole accelerated   
              resolution of identity approximation             
              M. Sierka, A. Hogekamp and R. Ahlrichs           
              J. Chem. Phys. 118: 9136 (2003)                  
          RI-JK Method:                                     
              A fully direct RI-HF algorithm: Implementation,
              optimised auxiliary basis sets, demonstration of
              accuracy and efficiency                         
              F. Weigend                                      
              Phys. Chem. Chem. Phys. 4: 4285 (2002)           
          Two-component HF and DFT with spin-orbit coupling:  
              Self-consistent treatment of spin-orbit         
              interactions with efficient Hartree-Fock and    
              density functional methods                      
              M. K. Armbruster, F. Weigend, C. van Wüllen and 
              W. Klopper                                      
              Phys. Chem. Chem. Phys. 10: 1748 (2008)         
          Relativistic all-electron 2c calculations           
              An efficient implementation of two-component    
              relativistic exact-decoupling methods for large 
              molecules                                       
              D. Peng, N. Middendorf, F. Weigend, M. Reiher   
              J. Chem. Phys. 138, 184105 (2013)               
                                         


 


              +--------------------------------------------------+
              |      general information about current run       |
              +--------------------------------------------------+

 

 SCF run will be profiled !


 DENSITY CONVERGENCE CHECK SWITCHED ON !
 SCF CONVERGENCE IF RMS(delta[D]) <     0.1000000000E-06

 TPSS meta-GGA functional
 exchange:    LDA + TPSS
 correlation: LDA (PW) + TPSS
 A DFT calculation using the RI-J approximation will be carried out.
 Allocatable memory for RI due to $ricore (MB):       10000


              +--------------------------------------------------+
              | Atomic coordinate, charge and isotop information |
              +--------------------------------------------------+

                    atomic coordinates            atom    charge  isotop
         -2.28170963    0.00000000   -2.34009961    c      6.000     0
         -2.27274361    0.00000000    0.29854732    c      6.000     0
          0.00000000    0.00000000   -3.67272512    c      6.000     0
          0.00000000    0.00000000    1.65224385    c      6.000     0
          2.28170963    0.00000000   -2.34009961    c      6.000     0
          2.27274361    0.00000000    0.29854732    c      6.000     0
          0.00000000    0.00000000    4.58243267    c      6.000     0
          2.15490929    0.00000000    5.59892366    o      8.000     0
         -2.15490929    0.00000000    5.59892366    o      8.000     0
         -4.06540167    0.00000000   -3.36943437    h      1.000     0
         -4.00977500    0.00000000    1.39631906    h      1.000     0
          0.00000000    0.00000000   -5.73046351    h      1.000     0
          4.06540167    0.00000000   -3.36943437    h      1.000     0
          4.00977500    0.00000000    1.39631906    h      1.000     0
 
       center of nuclear mass  :    0.00000000    0.00000000    1.24783966
       center of nuclear charge:   -0.00000000    0.00000000    1.12347881

              +--------------------------------------------------+
              |               basis set information              |
              +--------------------------------------------------+

              we will work with the 1s 3p 5d 7f 9g ... basis set
              ...i.e. with spherical basis functions...

   type   atoms  prim   cont   basis
   ---------------------------------------------------------------------------
    c        7     50     30   cc-pVTZ   [4s3p2d1f|18s5p2d1f]
    o        2     50     30   cc-pVTZ   [4s3p2d1f|18s5p2d1f]
    h        5     16     14   cc-pVTZ   [3s2p1d|5s2p1d]
   ---------------------------------------------------------------------------
   total:   14    530    340
   ---------------------------------------------------------------------------

   total number of primitive shells          :   60
   total number of contracted shells         :  120
   total number of cartesian basis functions :  390
   total number of SCF-basis functions       :  340


 integral neglect threshold       :  0.85E-13
 integral storage threshold THIZE :  0.10E-04
 integral storage threshold THIME :         5

 RI-J AUXILIARY BASIS SET information:

              we will work with the 1s 3p 5d 7f 9g ... basis set
              ...i.e. with spherical basis functions...

   type   atoms  prim   cont   basis
   ---------------------------------------------------------------------------
    c        7     70     49   cc-pVTZ   [6s4p3d1f1g|12s5p4d2f1g]
    o        2     70     49   cc-pVTZ   [6s4p3d1f1g|12s5p4d2f1g]
    h        5     16     11   cc-pVTZ   [3s1p1d|5s2p1d]
   ---------------------------------------------------------------------------
   total:   14    710    496
   ---------------------------------------------------------------------------

   total number of primitive shells          :   56
   total number of contracted shells         :  160
   total number of cartesian basis functions :  609
   total number of SCF-basis functions       :  496


 symmetry group of the molecule :   c1 

 the group has the following generators :
   c1(z)

    1 symmetry operations found

 there are 1 real representations :   a   

 maximum number of shells which are related by symmetry :  1


    mo occupation :
   irrep   mo's   occupied
    a      340       32
 
 number of basis functions   :          340
 number of occupied orbitals :           32
 
  
           ------------------
           density functional
           ------------------
 TPSS meta-GGA functional
 exchange:    LDA + TPSS
 correlation: LDA (PW) + TPSS
 grinp -> nfun, dfgga, dfhybrid 
           5 F F
 iterations will be done with small grid
  
 spherical integration : Lebedev's spherical grid
 spherical gridsize    :           5
    i.e. gridpoints    :         590
 value for diffuse not defined
 radial integration    : Chebyshev 2nd kind (scaling 3)
 radial gridsize       :           8
 integration cells     :          14
 partition function    : becke
 partition sharpness   :           3
  

 <rddim> : input of entry tasksize
           from data group '$pardft' failed !

               Default values taken

 <rddim> : input of entry memdiv
           from data group '$pardft' failed !

               Default values taken
  RIDFT: memory allocation for DFT gridpoints
  MEMORY is divided by 1 as DEFAULT
 Each node can hold at most  the            1 -th part
 of the gridpoints    

 biggest AO integral is expected to be     4.866064444
  
           ------------------------
               RI-J - INFORMATION
           ------------------------
 
 
 **************************************************
 *      MEMORY ALLOCATION FOR PARALLEL RI-DFT     *
 **************************************************
 
 
MEMORY FOR (MU NU/ ALPHA), SEQUENTIAL RUN               9999 MByte
 
            DIFFERENCE IN MEMORY NEED:       DIAG./SLAVE  
 
      TOTAL DIFFERENCE :                      7 MByte
 
      difference in xcore:                    2 MByte
      difference in fatmat:                   2 MByte
      getcor calls skipped by slaves:         3 MByte
 
 
           Integral memory available for diagonal.      9999 MByte
 
           Integral memory available for slave             0 MByte
 
         MEMORY FOR (MU NU/ ALPHA) ON DIAGONALIZER      9999 MByte
 
         MEMORY FOR (MU NU/ ALPHA) ON ONE SLAVE            0 MByte
 
         TOTAL MEMORY FOR (MU NU/ ALPHA),ALL NODES      9999 MByte
 
 Contributions to RI integral batches: 
  neglected integral batches:         735
  direct contribution:                  0
  memory contribution:        6525
 Memory core needed for (P|Q) and Cholesky      2 MByte
 Memory core minimum needed except of (P|Q)     1 MByte
 Total minimum memory core needed (sum)         3 MByte
  
 ****************************************
 Memory allocated for RI-J 10001 MByte
 ****************************************
                                            

          ------------------------
          nuclear repulsion energy  :   390.759859890    
          ------------------------

 
          -----------------
          -S integrals
          -----------------

 1e-integrals will be neglected if expon. factor < 0.856913E-14
 
          -----------------
          -T+V integrals
          -----------------

 1e-integrals will be neglected if expon. factor < 0.856913E-14
 Difference densities >>NOT<< switched on in parallel ridft!

 automatic virtual orbital shift switched on 
      shift if e(lumo)-e(homo) < 0.10000000    


 DIIS switched on: error vector is FDS-SDF
 Max. Iterations for DIIS is     :   4
 DIIS matrix (see manual) 
    Scaling factor of diagonals  :  1.200
    threshold for scaling factor :  0.000

 scf convergence criterion : increment of total energy < .1000000D-08
                  and increment of one-electron energy < .1000000D-05


 <geterg> : there is no data group $energy 

  MOs are in ASCII format !


 reading orbital data $scfmo  from file mos . 

 orbital characterization : expanded
 
 mo provided and orthogonalized by Cholesky decomposition

 DSCF restart information will be dumped onto file mos


 Starting SCF iterations


 ITERATION  ENERGY          1e-ENERGY        2e-ENERGY     RMS[dD(SAO)]   TOL
   1  -418.83862577945    -1347.9403566     538.34187091    0.000D+00 0.855D-13
                            Exc = -56.9917026488     Coul =  595.333573556    
                              N = 64.000024770    
                            current damping = 0.700
 
          max. resid. norm for Fia-block=  3.990D-01 for orbital     20a         
          max. resid. fock norm         =  4.654D+00 for orbital    320a         

 ITERATION  ENERGY          1e-ENERGY        2e-ENERGY     RMS[dD(SAO)]   TOL
   2  -420.21392618366    -1354.1481205     543.17433443    0.471D-02 0.855D-13
                            Exc = -57.0576560318     Coul =  600.231990461    
                              N = 64.000008655    
                            current damping = 0.650
 
          Norm of current diis error:  2.3047    
          max. resid. norm for Fia-block=  1.608D-01 for orbital      1a         
          max. resid. fock norm         =  3.897D-01 for orbital    333a         

 ITERATION  ENERGY          1e-ENERGY        2e-ENERGY     RMS[dD(SAO)]   TOL
   3  -420.41012597080    -1356.7611831     545.59119725    0.363D-02 0.855D-13
                            Exc = -57.3568092364     Coul =  602.948006490    
                              N = 64.000002146    
                            current damping = 0.550
 
          Norm of current diis error:  1.1061    
          max. resid. norm for Fia-block=  6.311D-02 for orbital      1a         
          max. resid. fock norm         =  7.607D-02 for orbital     76a         

 ITERATION  ENERGY          1e-ENERGY        2e-ENERGY     RMS[dD(SAO)]   TOL
   4  -420.47064129181    -1356.6826849     545.45218373    0.358D-02 0.855D-13
                            Exc = -57.2867567258     Coul =  602.738940455    
                              N = 63.999996996    
                            current damping = 0.600
 
          Norm of current diis error: 0.44098    
          max. resid. norm for Fia-block=  3.238D-02 for orbital     10a         
          max. resid. fock norm         =  5.672D-02 for orbital    333a         

 ITERATION  ENERGY          1e-ENERGY        2e-ENERGY     RMS[dD(SAO)]   TOL
   5  -420.47915766269    -1357.3563191     546.11730152    0.111D-02 0.855D-13
                            Exc = -57.3895956722     Coul =  603.506897190    
                              N = 63.999995970    
                            current damping = 0.650
 
          Norm of current diis error: 0.22124    
          max. resid. norm for Fia-block=  8.814D-03 for orbital     29a         
          max. resid. fock norm         =  1.599D-02 for orbital    183a         
          mo-orthogonalization: Cholesky decomposition

 ITERATION  ENERGY          1e-ENERGY        2e-ENERGY     RMS[dD(SAO)]   TOL
   6  -420.48157961162    -1357.4634810     546.22204154    0.751D-03 0.855D-13
                            Exc = -57.3791921890     Coul =  603.601233730    
                              N = 63.999994975    
                            current damping = 0.500
 
          Norm of current diis error: 0.80538E-01
          max. resid. norm for Fia-block=  4.158D-03 for orbital     29a         
          max. resid. fock norm         =  5.501D-03 for orbital    333a         

 ITERATION  ENERGY          1e-ENERGY        2e-ENERGY     RMS[dD(SAO)]   TOL
   7  -420.48191141763    -1357.3294615     546.08769020    0.444D-03 0.855D-13
                            Exc = -57.3715646512     Coul =  603.459254849    
                              N = 63.999994546    
                            current damping = 0.550
 
          Norm of current diis error: 0.44772E-01
          max. resid. norm for Fia-block=  2.014D-03 for orbital     10a         
          max. resid. fock norm         =  3.926D-03 for orbital    324a         

 ITERATION  ENERGY          1e-ENERGY        2e-ENERGY     RMS[dD(SAO)]   TOL
   8  -420.48200147979    -1357.3949828     546.15312143    0.668D-04 0.855D-13
                            Exc = -57.3782753761     Coul =  603.531396811    
                              N = 63.999994460    
                            current damping = 0.600
 
          Norm of current diis error: 0.10353E-01
          max. resid. norm for Fia-block=  5.677D-04 for orbital     10a         
          max. resid. fock norm         =  1.202D-03 for orbital    324a         

 ITERATION  ENERGY          1e-ENERGY        2e-ENERGY     RMS[dD(SAO)]   TOL
   9  -420.48200664611    -1357.4284466     546.18658008    0.236D-04 0.855D-13
                            Exc = -57.3807077248     Coul =  603.567287806    
                              N = 63.999994433    
                            current damping = 0.450
 
          Norm of current diis error: 0.41506E-02
          max. resid. norm for Fia-block=  2.995D-04 for orbital     31a         
          max. resid. fock norm         =  3.035D-04 for orbital     31a         

 ITERATION  ENERGY          1e-ENERGY        2e-ENERGY     RMS[dD(SAO)]   TOL
  10  -420.48200725878    -1357.4168818     546.17501461    0.321D-04 0.855D-13
                            Exc = -57.3792483745     Coul =  603.554262989    
                              N = 63.999994397    
                            current damping = 0.500
 
          Norm of current diis error: 0.34317E-02
          max. resid. norm for Fia-block=  1.451D-04 for orbital     10a         
          max. resid. fock norm         =  2.783D-04 for orbital    333a         
          mo-orthogonalization: Cholesky decomposition

 ITERATION  ENERGY          1e-ENERGY        2e-ENERGY     RMS[dD(SAO)]   TOL
  11  -420.48200768436    -1357.4160564     546.17418882    0.372D-05 0.855D-13
                            Exc = -57.3797922693     Coul =  603.553981088    
                              N = 63.999994395    
                            current damping = 0.350
 
          Norm of current diis error: 0.16567E-02
          max. resid. norm for Fia-block=  8.351D-05 for orbital     29a         
          max. resid. fock norm         =  1.605D-04 for orbital    338a         

 ITERATION  ENERGY          1e-ENERGY        2e-ENERGY     RMS[dD(SAO)]   TOL
  12  -420.48200772468    -1357.4200459     546.17817824    0.377D-05 0.855D-13
                            Exc = -57.3800610513     Coul =  603.558239292    
                              N = 63.999994395    
                            current damping = 0.400
 
          Norm of current diis error: 0.13729E-02
          max. resid. norm for Fia-block=  3.904D-05 for orbital     29a         
          max. resid. fock norm         =  6.312D-05 for orbital    338a         

 ITERATION  ENERGY          1e-ENERGY        2e-ENERGY     RMS[dD(SAO)]   TOL
  13  -420.48200781053    -1357.4199590     546.17809134    0.221D-05 0.855D-13
                            Exc = -57.3799725406     Coul =  603.558063881    
                              N = 63.999994394    
                            current damping = 0.450
 
          Norm of current diis error: 0.27465E-03
          max. resid. norm for Fia-block=  9.594D-06 for orbital     26a         
          max. resid. fock norm         =  1.520D-05 for orbital     75a         

 ITERATION  ENERGY          1e-ENERGY        2e-ENERGY     RMS[dD(SAO)]   TOL
  14  -420.48200781361    -1357.4193595     546.17749184    0.594D-06 0.855D-13
                            Exc = -57.3799420601     Coul =  603.557433896    
                              N = 63.999994393    
                            current damping = 0.300
 
          Norm of current diis error: 0.68004E-04
          max. resid. norm for Fia-block=  2.946D-06 for orbital     28a         
          max. resid. fock norm         =  4.618D-06 for orbital    150a         

 DENSITY CONVERGED !


 ITERATION  ENERGY          1e-ENERGY        2e-ENERGY     RMS[dD(SAO)]   TOL
  15  -420.48200781371    -1357.4192713     546.17740363    0.966D-07 0.855D-13
                            Exc = -57.3799440758     Coul =  603.557347708    
                              N = 63.999994393    
                            current damping = 0.150
 
          Norm of current diis error: 0.47966E-04
          max. resid. norm for Fia-block=  1.113D-06 for orbital     26a         
          max. resid. fock norm         =  1.775D-06 for orbital    150a         
          mo-orthogonalization: Cholesky decomposition

 DENSITY CONVERGED !


 ITERATION  ENERGY          1e-ENERGY        2e-ENERGY     RMS[dD(SAO)]   TOL
  16  -420.48200781379    -1357.4193124     546.17744475    0.734D-07 0.855D-13
                            Exc = -57.3799418274     Coul =  603.557386573    
                              N = 63.999994393    
                            current damping = 0.200
 
          Norm of current diis error: 0.83036E-05
          max. resid. norm for Fia-block=  5.596D-07 for orbital     31a         
          max. resid. fock norm         =  6.945D-07 for orbital     31a         

 DENSITY CONVERGED !


 ITERATION  ENERGY          1e-ENERGY        2e-ENERGY     RMS[dD(SAO)]   TOL
  17  -420.48200781380    -1357.4193318     546.17746413    0.331D-07 0.855D-13
                            Exc = -57.3799452393     Coul =  603.557409372    
                              N = 63.999994393    
                            current damping = 0.050
 
          Norm of current diis error: 0.63914E-05
          max. resid. norm for Fia-block=  2.758D-07 for orbital     31a         
          max. resid. fock norm         =  3.344D-07 for orbital    254a         

 DENSITY CONVERGED !


 ITERATION  ENERGY          1e-ENERGY        2e-ENERGY     RMS[dD(SAO)]   TOL
  18  -420.48200781380    -1357.4193166     546.17744892    0.248D-07 0.855D-13
                            Exc = -57.3799431065     Coul =  603.557392030    
                              N = 63.999994393    
                            current damping = 0.100
 
          Norm of current diis error: 0.15785E-05
          max. resid. norm for Fia-block=  6.108D-08 for orbital     29a         
          max. resid. fock norm         =  1.071D-07 for orbital    338a         

 ENERGY & DENSITY CONVERGED !


 ITERATION  ENERGY          1e-ENERGY        2e-ENERGY     RMS[dD(SAO)]   TOL
  19  -420.48183645451    -1357.4193203     546.17762397    0.517D-08 0.855D-13
                            Exc = -57.3797721109     Coul =  603.557396086    
                              N = 64.000002457    
                            current damping = 0.150
 
          Norm of current diis error: 0.98424E-06
          max. resid. norm for Fia-block=  2.384D-08 for orbital     29a         
          max. resid. fock norm         =  3.948D-08 for orbital    335a         

 End of SCF iterations

   convergence criteria satisfied after   19 iterations


                  ------------------------------------------ 
                 |  total energy      =   -420.48183645451  |
                  ------------------------------------------ 
                 :  kinetic energy    =    418.21461113674  :
                 :  potential energy  =   -838.69644759125  :
                 :  virial theorem    =      1.99460803031  :
                 :  wavefunction norm =      1.00000000000  :
                  .......................................... 


 <geterg> : there is no data group $energy 


 <skperg> : $end is missing 


 orbitals $scfmo  will be written to file mos

    irrep                 28a         29a         30a         31a         32a   
 eigenvalues H         -0.09129    -0.07776    -0.02159    -0.00960     0.00033
            eV          -2.4842     -2.1160     -0.5874     -0.2613      0.0090
 occupation              2.0000      2.0000      2.0000      2.0000      2.0000 

    irrep                 33a         34a         35a         36a         37a   
 eigenvalues H          0.09804     0.10577     0.14709     0.17774     0.19658
            eV           2.6677      2.8782      4.0026      4.8365      5.3492
 

    !!!!!!!!!!!!!!!!!!!!!!!!!!!!!!!!!!!!!!!!!!!!!!!!!!!!!!!!!!!!!!!!!!!!!!!
    !                                                                     !
    ! WARNING : ORBITAL ENERGIES SHOULD BE NEGATIVE FOR OCCUPIED ORBITALS !
    !                                                                     !
    !      orbital energy (   0.00033) of occupied MO  32a    is > 0      !
    !!!!!!!!!!!!!!!!!!!!!!!!!!!!!!!!!!!!!!!!!!!!!!!!!!!!!!!!!!!!!!!!!!!!!!!

 
 ! grave: sending quit signal to master process
 
 
 
 
 ==============================================================================
                           electrostatic moments
 ==============================================================================

 reference point for electrostatic moments:    0.00000   0.00000   0.00000

 
              nuc           elec       ->  total
 ------------------------------------------------------------------------------
                          charge      
 ------------------------------------------------------------------------------
          63.000000     -64.000000      -1.000000
 
 ------------------------------------------------------------------------------
                       dipole moment  
 ------------------------------------------------------------------------------
   x       0.000000      -0.000000      -0.000000
   y       0.000000       0.000000       0.000000
   z      70.779165     -75.124975      -4.345810
 
   | dipole moment | =     4.3458 a.u. =    11.0459 debye 
 
 ------------------------------------------------------------------------------
                     quadrupole moment
 ------------------------------------------------------------------------------
  xx     263.968465    -308.600046     -44.631581
  yy       0.000000     -41.429982     -41.429982
  zz     851.098351    -921.118423     -70.020071
  xy       0.000000      -0.000000      -0.000000
  xz       0.000000      -0.000000      -0.000000
  yz       0.000000      -0.000000      -0.000000
 
     1/3  trace=     -52.027212
     anisotropy=      27.131337
 
 ==============================================================================
 

    ridft profiling
  --------------------------------------------------------------------
             module   cpu total (s)       %  wall total (s)       %

               RIDFT            75.8  100.00            76.1  100.00
         Ridft_b_scf             1.8    2.42             1.8    2.43
        b_scf_prelim             0.0    0.00             0.0    0.00
        b_scf_molinp             0.0    0.02             0.0    0.02
         b_scf_init0             0.0    0.00             0.0    0.00
        b_scf_auxbas             0.0    0.01             0.0    0.01
      b_scf_symmetry             0.0    0.00             0.0    0.01
         b_scf_cosmo             0.0    0.00             0.0    0.00
        b_scf_params             0.1    0.14             0.1    0.14
          b_scf_ri-j             1.6    2.08             1.6    2.08
    b_scf_ri-j_auxpq             1.6    2.08             1.6    2.07
     ri-j_auxpq_chol             0.0    0.02             0.0    0.03
         b_scf_1elec             0.1    0.07             0.1    0.07
       b_scf_moinput             0.1    0.10             0.1    0.10
     moinput_orthmos             0.1    0.08             0.1    0.08
    b_scf_dft-dstmax             0.0    0.00             0.0    0.00
           Ridft_scf            74.0   97.53            74.1   97.27
          Scf_b_loop             0.0    0.00             0.0    0.00
                noga             0.0    0.00             0.0    0.00
            Scf_loop            73.9   97.40            74.0   97.14
     scf_loop_mkdmat             0.1    0.13             0.1    0.13
       scf_loop_ri-j             4.6    6.09             4.6    6.07
      parlp1.bc.dens             1.0    1.27             1.0    1.27
        parlp1.gs.gp             0.0    0.00             0.0    0.00
        parlp2.bc.gq             0.0    0.00             0.0    0.00
        scf_loop_dft            65.7   86.58            65.7   86.35
      pardft.bc.dens             0.0    0.00             0.0    0.00
        dft_grid_con             0.2    0.23             0.2    0.24
          dft_xcmrhf            63.5   83.76            63.6   83.53
          dft_getval             3.8    5.07             3.9    5.08
          funct2 dst             0.1    0.07             0.1    0.09
      funct2 f2loop1             1.1    1.50             1.1    1.50
      funct2 f2loop2             1.5    2.01             1.6    2.04
          funct2 s+c             0.9    1.20             0.9    1.15
        funct2 cmf_2             0.7    0.96             0.7    0.92
          dft_mkdens            28.6   37.76            28.7   37.68
        dft_mgga-fun             0.5    0.61             0.5    0.65
          dft_mkfock            30.3   40.01            30.4   39.90
     pardft.red.fock             6.2    8.12             6.2    8.10
     scf_loop_energy             0.0    0.01             0.0    0.01
     scf_loop_mkfock             0.0    0.00             0.0    0.00
       scf_loop_diis             0.3    0.43             0.3    0.42
       scf_loop_diag             1.6    2.17             1.7    2.17
         diag_tritrn             0.2    0.33             0.2    0.33
          diag_rdiag             1.4    1.83             1.4    1.82
     scf_loop_modump             1.4    1.81             1.4    1.82
      scf_loop_ortho             0.1    0.11             0.1    0.11
          Scf_a_loop             0.1    0.13             0.1    0.12
         Ridft_a_scf             0.0    0.05             0.2    0.30
         a_scf_fanal             0.0    0.04             0.2    0.28
 


    ------------------------------------------------------------------------
         total  cpu-time :  1 minutes and 16 seconds
         total wall-time :  1 minutes and 16 seconds
    ------------------------------------------------------------------------


   ****  ridft : all done  ****


    2017-10-30 01:03:00.923 

