
   OpenMP run-time library returned nthreads = 28
 operating system is UNIX !

 dscf (c-13-42) : TURBOMOLE V7.3 ( 22142 ) 4 Jul 2018 at 18:12:42
 Copyright (C) 2018 TURBOMOLE GmbH, Karlsruhe


    2019-04-01 23:17:03.049 



                             d s c f - program

                   idea & directorship : reinhart ahlrichs
                   program development : marco haeser
                                         michael baer
                           dft version : oliver treutler


                          quantum chemistry group
                          universitaet  karlsruhe
                                  germany




                          References             
                                                 
          TURBOMOLE:                             
              R. Ahlrichs, M. Baer, M. Haeser, H. Horn, and
              C. Koelmel
              Electronic structure calculations on workstation
              computers: the program system TURBOMOLE
              Chem. Phys. Lett. 162: 165 (1989)
          Density Functional:                              
              O. Treutler and R. Ahlrichs                      
              Efficient Molecular Numerical Integration Schemes
              J. Chem. Phys. 102: 346 (1995)                   
          Parallel Version:                                
              Performance of parallel TURBOMOLE for Density    
              Functional Calculations                          
              M. v. Arnim and R. Ahlrichs                      
              J. Comp. Chem. 19: 1746 (1998)                   
                                         




              +--------------------------------------------------+
              | Atomic coordinate, charge and isotop information |
              +--------------------------------------------------+

                    atomic coordinates            atom    charge  isotop
          2.59306506    1.91330493    1.83459277    c      0.000     0
          1.79935231    3.80600206    1.95230866    h      0.000     0
          3.68009367    1.75086073    0.09584267    h      0.000     0
          3.87715505    1.60971628    3.40708639    h      0.000     0
          0.61744356   -0.14673208    1.86742503    c      0.000     0
          1.16940274   -2.36684665    2.21340080    o      0.000     0
         -1.79529433    0.65174159    1.46248724    n      0.000     0
         -2.08752672    2.49826613    1.14538599    h      0.000     0
         -3.89256069   -1.09106919    1.28530382    c      0.000     0
         -3.15462569   -2.96081536    1.69543253    h      0.000     0
         -5.35660212   -0.62621806    2.65253562    h      0.000     0
         -4.70725206   -1.09400938   -0.60459758    h      0.000     0
          5.02792916    0.87446206    9.17149562    c      6.000     0
          5.24872340    2.30010149    7.69988117    h      1.000     0
          4.86520414    1.86635346   10.96986494    h      1.000     0
          6.75153219   -0.24849240    9.22215541    h      1.000     0
          2.70683103   -0.75710388    8.68479372    c      6.000     0
          2.52812086   -2.16580779   10.18344261    h      1.000     0
          2.92683320   -1.80299988    6.92008469    h      1.000     0
          0.28318575    0.78985229    8.56139205    c      6.000     0
          0.07234840    1.88161300   10.30576734    h      1.000     0
          0.43291659    2.17467177    7.03137028    h      1.000     0
         -2.06830685   -0.81704842    8.15154844    c      6.000     0
         -2.23989769   -2.16723221    9.70380204    h      1.000     0
         -1.82678661   -1.92997944    6.43149241    h      1.000     0
         -4.46228466    0.77087239    7.98125629    c      6.000     0
         -4.33583697    2.10700511    6.41699914    h      1.000     0
         -6.13533898   -0.39323196    7.69055423    h      1.000     0
         -4.74641640    1.85975355    9.70699122    h      1.000     0
 
       center of nuclear mass  :    0.00556987   -0.01205370    5.09757071
       center of nuclear charge:    0.29679830    0.20590384    8.51393624

              +--------------------------------------------------+
              |               basis set information              |
              +--------------------------------------------------+

              we will work with the 1s 3p 5d 7f 9g ... basis set
              ...i.e. with spherical basis functions...

   type   atoms  prim   cont   basis
   ---------------------------------------------------------------------------
    c        8     77     55   cc-pVQZ   [5s4p3d2f1g|21s6p3d2f1g]
    h       19     32     30   cc-pVQZ   [4s3p2d1f|6s3p2d1f]
    o        1     77     55   cc-pVQZ   [5s4p3d2f1g|21s6p3d2f1g]
    n        1     77     55   cc-pVQZ   [5s4p3d2f1g|21s6p3d2f1g]
   ---------------------------------------------------------------------------
   total:   29   1378   1120
   ---------------------------------------------------------------------------

   total number of primitive shells          :  111
   total number of contracted shells         :  340
   total number of cartesian basis functions : 1365
   total number of SCF-basis functions       : 1120


 integral neglect threshold       :  0.24E-13
 integral storage threshold THIZE :  0.10E-04
 integral storage threshold THIME :         5


 DENSITY CONVERGENCE CHECK SWITCHED ON !
 SCF CONVERGENCE IF RMS(delta[D]) <     0.1000000000E-06


 symmetry group of the molecule :   c1 

 the group has the following generators :
   c1(z)

    1 symmetry operations found

 there are 1 real representations :   a   

 maximum number of shells which are related by symmetry :  1


    mo occupation :
   irrep   mo's   occupied
    a     1120       21
 
 number of basis functions   :                   1120
 number of occupied orbitals :                     21
 

 automatic virtual orbital shift switched on 
      shift if e(lumo)-e(homo) < 0.10000000    


          ------------------------
          nuclear repulsion energy  :   185.676879951    
          ------------------------


         -----------------
         -S,T+V- integrals
         -----------------

 1e-integrals will be neglected if expon. factor < 0.244832E-14
 
   Difference densities algorithm switched on.
   The maximal number of linear combinations of
   difference densities is                    20 .

 DIIS switched on: error vector is FDS-SDF
 Max. Iterations for DIIS is     :   5
 DIIS matrix (see manual) 
    Scaling factor of diagonals  :  1.200
    threshold for scaling factor :  0.000

 scf convergence criterion : increment of total energy < .1000000D-08
                  and increment of one-electron energy < .1000000D-05

  MOs are in ASCII format !


 reading orbital data $scfmo  from file mos
 orbital characterization : scfconv=9

 DSCF restart information will be dumped onto file mos

 
                                              current damping :  0.700
 ITERATION  ENERGY          1e-ENERGY        2e-ENERGY     RMS[dD(SAO)]   TOL
   1  -196.36793464888    -631.82146656     249.77665196    0.000D+00 0.244D-13
          max. resid. norm for Fia-block=  1.022D-01 for orbital      4a         
          max. resid. fock norm         =  3.136D-01 for orbital   1065a         
          Delta Eig. =    22.4574778884 eV 
 
                                              current damping :  0.650
 ITERATION  ENERGY          1e-ENERGY        2e-ENERGY     RMS[dD(SAO)]   TOL
   2  -196.40576539333    -631.17801699     249.09537164    0.418D-03 0.159D-13
          Norm of current diis error: 0.61046    
          max. resid. norm for Fia-block=  4.874D-02 for orbital      4a         
          max. resid. fock norm         =  1.248D-01 for orbital   1066a         
          Delta Eig. =     9.7193703584 eV 
 
                                              current damping :  0.600
 ITERATION  ENERGY          1e-ENERGY        2e-ENERGY     RMS[dD(SAO)]   TOL
   3  -196.41378015543    -631.33123728     249.24057718    0.203D-03 0.118D-13
          Norm of current diis error: 0.27376    
          max. resid. norm for Fia-block=  2.001D-02 for orbital      4a         
          max. resid. fock norm         =  5.345D-02 for orbital   1070a         
          Delta Eig. =     3.8408280201 eV 
 
                                              current damping :  0.650
 ITERATION  ENERGY          1e-ENERGY        2e-ENERGY     RMS[dD(SAO)]   TOL
   4  -196.41547518059    -631.26934501     249.17698988    0.869D-04 0.104D-13
          Norm of current diis error: 0.11045    
          max. resid. norm for Fia-block=  7.586D-03 for orbital      3a         
          max. resid. fock norm         =  1.992D-02 for orbital   1063a         
          Delta Eig. =     1.3784957669 eV 
 
                                              current damping :  0.500
 ITERATION  ENERGY          1e-ENERGY        2e-ENERGY     RMS[dD(SAO)]   TOL
   5  -196.41575477379    -631.25889007     249.16625535    0.333D-04 0.955D-14
          Norm of current diis error: 0.47074E-01
          max. resid. norm for Fia-block=  2.972D-03 for orbital      4a         
          max. resid. fock norm         =  7.829D-03 for orbital   1067a         
 mo-orthogonalization: Cholesky decomposition
          Delta Eig. =     0.5978908778 eV 
 
                                              current damping :  0.350
 ITERATION  ENERGY          1e-ENERGY        2e-ENERGY     RMS[dD(SAO)]   TOL
   6  -196.41581013943    -631.25301728     249.16032719    0.150D-04 0.880D-14
          Norm of current diis error: 0.17554E-01
          max. resid. norm for Fia-block=  1.057D-03 for orbital     14a         
          max. resid. fock norm         =  2.642D-03 for orbital   1064a         
          Delta Eig. =     0.2215333294 eV 
 
                                              current damping :  0.200
 ITERATION  ENERGY          1e-ENERGY        2e-ENERGY     RMS[dD(SAO)]   TOL
   7  -196.41581868925    -631.25031224     249.15761360    0.593D-05 0.811D-14
          Norm of current diis error: 0.54594E-02
          max. resid. norm for Fia-block=  3.273D-04 for orbital     14a         
          max. resid. fock norm         =  6.819D-04 for orbital   1065a         
          Delta Eig. =     0.0647231621 eV 
 
                                              current damping :  0.050
 ITERATION  ENERGY          1e-ENERGY        2e-ENERGY     RMS[dD(SAO)]   TOL
   8  -196.41581963435    -631.24946933     249.15676974    0.196D-05 0.752D-14
          Norm of current diis error: 0.13381E-02
          max. resid. norm for Fia-block=  7.783D-05 for orbital     14a         
          max. resid. fock norm         =  1.182D-04 for orbital   1065a         
          Delta Eig. =     0.0122820371 eV 
 
                                              current damping :  0.050
 ITERATION  ENERGY          1e-ENERGY        2e-ENERGY     RMS[dD(SAO)]   TOL
   9  -196.41581970290    -631.24904271     249.15634306    0.534D-06 0.706D-14
          Norm of current diis error: 0.24411E-03
          max. resid. norm for Fia-block=  1.607D-05 for orbital     19a         
          max. resid. fock norm         =  1.634D-05 for orbital     19a         
          Delta Eig. =     0.0007859597 eV 
 
                                              current damping :  0.050
 ITERATION  ENERGY          1e-ENERGY        2e-ENERGY     RMS[dD(SAO)]   TOL
  10  -196.41581970565    -631.24901730     249.15631764    0.121D-06 0.679D-14
          Norm of current diis error: 0.54633E-04
          max. resid. norm for Fia-block=  4.203D-06 for orbital     19a         
          max. resid. fock norm         =  4.214D-06 for orbital     19a         
 mo-orthogonalization: Cholesky decomposition
          Delta Eig. =     0.0000646940 eV 

 DENSITY CONVERGED !

 
                                              current damping :  0.050
 ITERATION  ENERGY          1e-ENERGY        2e-ENERGY     RMS[dD(SAO)]   TOL
  11  -196.41581970580    -631.24897338     249.15627373    0.352D-07 0.697D-14
          Norm of current diis error: 0.12476E-04
          max. resid. norm for Fia-block=  8.887D-07 for orbital     19a         
          max. resid. fock norm         =  9.298D-07 for orbital     19a         
          Delta Eig. =     0.0000485092 eV 

 DENSITY CONVERGED !

 
                                              current damping :  0.100
 ITERATION  ENERGY          1e-ENERGY        2e-ENERGY     RMS[dD(SAO)]   TOL
  12  -196.41581970581    -631.24898493     249.15628528    0.797D-08 0.698D-14
          Norm of current diis error: 0.33463E-05
          max. resid. norm for Fia-block=  2.027D-07 for orbital     19a         
          max. resid. fock norm         =  2.409D-07 for orbital     19a         
          Delta Eig. =     0.0000175738 eV 

 ENERGY & DENSITY CONVERGED !

 
                                              current damping :  0.150
 ITERATION  ENERGY          1e-ENERGY        2e-ENERGY     RMS[dD(SAO)]   TOL
  13  -196.41581970581    -631.24897945     249.15627979    0.155D-08 0.696D-14
          max. resid. norm for Fia-block=  6.455D-08 for orbital     21a         
          max. resid. fock norm         =  7.191D-08 for orbital     21a         

 convergence criteria satisfied after    13 iterations


                  ------------------------------------------ 
                 |  total energy      =   -196.41581970581  |
                  ------------------------------------------ 
                 :  kinetic energy    =    196.31267644702  :
                 :  potential energy  =   -392.72849615283  :
                 :  virial theorem    =      1.99947487296  :
                 :  wavefunction norm =      1.00000000000  :
                  .......................................... 


 orbitals $scfmo  will be written to file mos

    irrep                 17a         18a         19a         20a         21a   
 eigenvalues H         -0.49501    -0.47624    -0.46225    -0.45936    -0.44634
            eV         -13.4700    -12.9593    -12.5785    -12.4999    -12.1457
 occupation              2.0000      2.0000      2.0000      2.0000      2.0000 

    irrep                 22a         23a         24a         25a         26a   
 eigenvalues H          0.05824     0.08967     0.11471     0.12039     0.13402
            eV           1.5848      2.4400      3.1215      3.2761      3.6468
 
 
 
 
 ==============================================================================
                           electrostatic moments
 ==============================================================================

 reference point for electrostatic moments:    0.00000   0.00000   0.00000

 
              nuc           elec       ->  total
 ------------------------------------------------------------------------------
                          charge      
 ------------------------------------------------------------------------------
          42.000000     -42.000000       0.000000
 
 ------------------------------------------------------------------------------
                       dipole moment  
 ------------------------------------------------------------------------------
   x      12.465529     -12.464537       0.000991
   y       8.647961      -8.680603      -0.032641
   z     357.585322    -357.587246      -0.001924
 
   | dipole moment | =     0.0327 a.u. =     0.0831 debye 
 
 ------------------------------------------------------------------------------
                     quadrupole moment
 ------------------------------------------------------------------------------
  xx     540.539986    -567.685528     -27.145542
  yy      60.862604     -87.460495     -26.597891
  zz    3079.915002   -3105.687076     -25.772075
  xy       7.556681      -7.562367      -0.005686
  xz     168.703174    -168.885503      -0.182328
  yz      77.345001     -77.688292      -0.343291
 
     1/3  trace=     -26.505169
     anisotropy=       1.373873
 
 ==============================================================================
 


    ------------------------------------------------------------------------
         total  cpu-time :  8 hours 57 minutes and 30 seconds
         total wall-time : 23 minutes and 40 seconds
    ------------------------------------------------------------------------

   ****  dscf : all done  ****


    2019-04-01 23:40:43.092 

