[Molden Format]
[Title]
                                                                                
[Atoms] AU
 o     1    8 -.13269582336530E+01 -.10593853077946E+00 0.18788152321400E-01
 h     2    1 -.19316652482514E+01 0.16001743239401E+01 -.21710523079050E-01
 h     3    1 0.48664428062986E+00 0.79598091747440E-01 0.98624787978000E-02
 o     4    8 0.41968380930795E+01 0.50487420029270E-01 0.11725297120300E-02
 h     5    1 0.49085498011546E+01 -.77793084682706E+00 0.14489377954183E+01
 h     6    1 0.49003157012553E+01 -.84942468364745E+00 -.14074340578357E+01
[GTO]
    1 0
 s    8 1.00
 0.15330000000000E+05 0.52019830712555E-03
 0.22990000000000E+04 0.40233447808982E-02
 0.52240000000000E+03 0.20729083329021E-01
 0.14730000000000E+03 0.81082327079741E-01
 0.47550000000000E+02 0.23622635211786E+00
 0.16760000000000E+02 0.44351820942048E+00
 0.62070000000000E+01 0.35867058868857E+00
 0.68820000000000E+00 -.83497972368145E-02
 s    8 1.00
 0.15330000000000E+05 -.19723601167594E-03
 0.22990000000000E+04 -.15350106995649E-02
 0.52240000000000E+03 -.79511839141710E-02
 0.14730000000000E+03 -.32113452892351E-01
 0.47550000000000E+02 -.10026964304879E+00
 0.16760000000000E+02 -.23404711183769E+00
 0.62070000000000E+01 -.30141092775591E+00
 0.68820000000000E+00 0.10349196495085E+01
 s    1 1.00
 0.17520000000000E+01 0.10000000000000E+01
 s    1 1.00
 0.23840000000000E+00 0.10000000000000E+01
 p    3 1.00
 0.34460000000000E+02 0.41163489568397E-01
 0.77490000000000E+01 0.25776283585835E+00
 0.22800000000000E+01 0.80241927442683E+00
 p    1 1.00
 0.71560000000000E+00 0.10000000000000E+01
 p    1 1.00
 0.21400000000000E+00 0.10000000000000E+01
 d    1 1.00
 0.23140000000000E+01 0.10000000000000E+01
 d    1 1.00
 0.64500000000000E+00 0.10000000000000E+01
 f    1 1.00
 0.14280000000000E+01 0.10000000000000E+01
 
    2 0
 s    3 1.00
 0.33870000000000E+02 0.25494863234680E-01
 0.50950000000000E+01 0.19036276589270E+00
 0.11590000000000E+01 0.85216202224527E+00
 s    1 1.00
 0.32580000000000E+00 0.10000000000000E+01
 s    1 1.00
 0.10270000000000E+00 0.10000000000000E+01
 p    1 1.00
 0.14070000000000E+01 0.10000000000000E+01
 p    1 1.00
 0.38800000000000E+00 0.10000000000000E+01
 d    1 1.00
 0.10570000000000E+01 0.10000000000000E+01
 
    3 0
 s    3 1.00
 0.33870000000000E+02 0.25494863234680E-01
 0.50950000000000E+01 0.19036276589270E+00
 0.11590000000000E+01 0.85216202224527E+00
 s    1 1.00
 0.32580000000000E+00 0.10000000000000E+01
 s    1 1.00
 0.10270000000000E+00 0.10000000000000E+01
 p    1 1.00
 0.14070000000000E+01 0.10000000000000E+01
 p    1 1.00
 0.38800000000000E+00 0.10000000000000E+01
 d    1 1.00
 0.10570000000000E+01 0.10000000000000E+01
 
    4 0
 s    8 1.00
 0.15330000000000E+05 0.52019830712555E-03
 0.22990000000000E+04 0.40233447808982E-02
 0.52240000000000E+03 0.20729083329021E-01
 0.14730000000000E+03 0.81082327079741E-01
 0.47550000000000E+02 0.23622635211786E+00
 0.16760000000000E+02 0.44351820942048E+00
 0.62070000000000E+01 0.35867058868857E+00
 0.68820000000000E+00 -.83497972368145E-02
 s    8 1.00
 0.15330000000000E+05 -.19723601167594E-03
 0.22990000000000E+04 -.15350106995649E-02
 0.52240000000000E+03 -.79511839141710E-02
 0.14730000000000E+03 -.32113452892351E-01
 0.47550000000000E+02 -.10026964304879E+00
 0.16760000000000E+02 -.23404711183769E+00
 0.62070000000000E+01 -.30141092775591E+00
 0.68820000000000E+00 0.10349196495085E+01
 s    1 1.00
 0.17520000000000E+01 0.10000000000000E+01
 s    1 1.00
 0.23840000000000E+00 0.10000000000000E+01
 p    3 1.00
 0.34460000000000E+02 0.41163489568397E-01
 0.77490000000000E+01 0.25776283585835E+00
 0.22800000000000E+01 0.80241927442683E+00
 p    1 1.00
 0.71560000000000E+00 0.10000000000000E+01
 p    1 1.00
 0.21400000000000E+00 0.10000000000000E+01
 d    1 1.00
 0.23140000000000E+01 0.10000000000000E+01
 d    1 1.00
 0.64500000000000E+00 0.10000000000000E+01
 f    1 1.00
 0.14280000000000E+01 0.10000000000000E+01
 
    5 0
 s    3 1.00
 0.33870000000000E+02 0.25494863234680E-01
 0.50950000000000E+01 0.19036276589270E+00
 0.11590000000000E+01 0.85216202224527E+00
 s    1 1.00
 0.32580000000000E+00 0.10000000000000E+01
 s    1 1.00
 0.10270000000000E+00 0.10000000000000E+01
 p    1 1.00
 0.14070000000000E+01 0.10000000000000E+01
 p    1 1.00
 0.38800000000000E+00 0.10000000000000E+01
 d    1 1.00
 0.10570000000000E+01 0.10000000000000E+01
 
    6 0
 s    3 1.00
 0.33870000000000E+02 0.25494863234680E-01
 0.50950000000000E+01 0.19036276589270E+00
 0.11590000000000E+01 0.85216202224527E+00
 s    1 1.00
 0.32580000000000E+00 0.10000000000000E+01
 s    1 1.00
 0.10270000000000E+00 0.10000000000000E+01
 p    1 1.00
 0.14070000000000E+01 0.10000000000000E+01
 p    1 1.00
 0.38800000000000E+00 0.10000000000000E+01
 d    1 1.00
 0.10570000000000E+01 0.10000000000000E+01
 
[MO]
 Sym=     1a   
 Ene= -.94939920887833E+00
 Spin= Alpha
 Occup= 2.000000
     1 -.11461889740422E-02
     2 0.24389607867114E-01
     3 0.70921302785771E-02
     4 0.12659849926575E-01
     5 0.33554800178352E-02
     6 0.27283636932589E-02
     7 -.75249990204574E-04
     8 0.39498912099266E-02
     9 0.29412935496921E-02
    10 -.81962357308507E-04
    11 0.14745303556649E-02
    12 0.95932853144553E-03
    13 -.27395683071778E-04
    14 0.10200609052717E-03
    15 0.25244451959332E-04
    16 -.12725054248650E-03
    17 -.92426750870392E-05
    18 -.40576277477567E-06
    19 -.43089694077176E-05
    20 0.24100409708533E-03
    21 0.57326306657048E-04
    22 -.29833040374238E-03
    23 -.10858099698558E-04
    24 -.13404114877034E-05
    25 -.10092226657198E-04
    26 -.44270057757696E-05
    27 0.17324031480839E-04
    28 0.32713371692829E-06
    29 0.15965434375491E-05
    30 -.17040027436340E-04
    31 0.43988233202088E-06
    32 0.43429080732940E-05
    33 -.62025997849614E-05
    34 -.87877826929118E-06
    35 0.10551568925679E-06
    36 0.44607331847078E-02
    37 0.35957721977245E-02
    38 0.47130308859728E-03
    39 0.27972107921654E-03
    40 -.58349454239317E-03
    41 0.13669316586427E-04
    42 0.54822513950665E-03
    43 -.82849280287151E-03
    44 0.19078648769444E-04
    45 -.18334612487394E-05
    46 0.99498594229461E-04
    47 -.97665132980721E-04
    48 -.10297101772253E-03
    49 0.22694028020585E-05
    50 -.53500299489819E-05
    51 0.88275456490814E-02
    52 0.88022320389328E-02
    53 0.29369006514268E-02
    54 -.69430168972566E-03
    55 -.36045514597410E-04
    56 0.24140119929640E-05
    57 0.23588984068783E-02
    58 -.79242383998008E-04
    59 -.37683011375935E-05
    60 0.40922034926247E-03
    61 -.20467256526758E-03
    62 -.20454778399489E-03
    63 -.51387881111449E-04
    64 -.54927521653509E-06
    65 0.13571147499961E-06
    66 -.20821895811138E-01
    67 0.48096494952782E+00
    68 0.14041990684719E+00
    69 0.25944642747491E+00
    70 0.42587503853210E-01
    71 -.54717982613319E-01
    72 0.12474607491685E-02
    73 0.48080566239213E-01
    74 -.63579078348336E-01
    75 0.14528547272847E-02
    76 0.96127434881815E-02
    77 -.13223511908031E-01
    78 0.30328149748206E-03
    79 -.11322334410596E-02
    80 -.49070735585287E-03
    81 0.16229407969125E-02
    82 -.18811631432063E-02
    83 0.56287175666327E-04
    84 0.66542118078506E-04
    85 -.12827899971550E-02
    86 -.89272871142883E-03
    87 0.21755187085839E-02
    88 -.39634653581211E-02
    89 0.11114589548715E-03
    90 0.10018357962292E-03
    91 -.25946320244908E-03
    92 0.21941185179701E-03
    93 0.11778435872113E-04
    94 0.15779132858413E-03
    95 -.62292962564138E-04
    96 0.36582833011735E-05
    97 0.19031508641742E-03
    98 -.23207892684819E-03
    99 -.19460713268373E-04
   100 0.37474922512904E-06
   101 0.96473544218017E-01
   102 0.82950839896658E-01
   103 0.92717872521572E-02
   104 -.49650817819955E-02
   105 0.56529482122824E-02
   106 -.11484758093334E-01
   107 -.44609139464549E-02
   108 0.48362190544554E-02
   109 -.13345398362954E-01
   110 -.69561083948462E-03
   111 -.55026328648706E-03
   112 0.12458741259717E-02
   113 -.69477360205592E-03
   114 0.11866463461254E-02
   115 -.13012842072562E-02
   116 0.96471086113622E-01
   117 0.82950276220040E-01
   118 0.92707019172647E-02
   119 -.48994629730315E-02
   120 0.62209154586850E-02
   121 0.11215773260179E-01
   122 -.43845886243158E-02
   123 0.54986045511847E-02
   124 0.13112620404806E-01
   125 -.70725110714658E-03
   126 -.43295050655001E-03
   127 0.11402016136966E-02
   128 -.74507540662856E-03
   129 -.11379084357465E-02
   130 0.14028536534780E-02
 Sym=     2a   
 Ene= -.88571037283959E+00
 Spin= Alpha
 Occup= 2.000000
     1 -.21291478915203E-01
     2 0.47858367905785E+00
     3 0.13981598808780E+00
     4 0.25994172355491E+00
     5 0.35183627996081E-01
     6 0.60556029723201E-01
     7 -.15739335128790E-02
     8 0.41821553541109E-01
     9 0.70190158727521E-01
    10 -.18268150955200E-02
    11 0.84515449405178E-02
    12 0.13810662499165E-01
    13 -.36011483232014E-03
    14 0.12923330283620E-02
    15 0.11984840561640E-02
    16 -.24908170845260E-02
    17 -.44732253656655E-03
    18 0.47749281381559E-06
    19 -.10373354426264E-03
    20 0.22453462699362E-02
    21 0.23613194026366E-02
    22 -.46066656725728E-02
    23 -.21335844459416E-03
    24 -.13797741433606E-04
    25 -.19743715906449E-03
    26 0.24942621835068E-03
    27 0.16801884939782E-03
    28 0.15117759119959E-04
    29 -.18406698757506E-03
    30 0.34334184653392E-04
    31 -.23782576015052E-05
    32 -.15057340018663E-03
    33 -.25975512590628E-03
    34 -.17904344634312E-04
    35 0.12970100128041E-06
    36 0.98777620993162E-01
    37 0.87018652630418E-01
    38 0.12354715925188E-01
    39 0.54749217630810E-02
    40 -.12595517823225E-01
    41 0.29656181477795E-03
    42 0.77131619552008E-02
    43 -.13157850255828E-01
    44 0.30495235149077E-03
    45 -.54499731758231E-03
    46 0.17668181228841E-02
    47 -.12218208053018E-02
    48 -.14088198072356E-02
    49 0.32744512625624E-04
    50 -.81506632166947E-04
    51 0.94046440254674E-01
    52 0.79109380896554E-01
    53 0.11770382416784E-01
    54 -.13391699491699E-01
    55 -.36625567228902E-03
    56 0.41249155011280E-04
    57 -.14437108100059E-01
    58 0.12692461357553E-02
    59 0.30625292611948E-05
    60 0.20735287241248E-02
    61 -.97773452986888E-03
    62 -.10957941942559E-02
    63 0.98454631764668E-04
    64 -.11245766072469E-04
    65 -.35451496874192E-05
    66 0.10498802369870E-02
    67 -.29416891964606E-01
    68 -.88046297545559E-02
    69 -.11616436951604E-01
    70 -.59417831944987E-02
    71 0.40889618231465E-02
    72 -.86727184536515E-04
    73 -.69577983667542E-02
    74 0.44636114217372E-02
    75 -.92863793562569E-04
    76 -.21769471514935E-02
    77 -.56068643845243E-03
    78 0.19875381648458E-04
    79 0.87943475147649E-04
    80 0.26169418732787E-04
    81 -.11411289388044E-03
    82 0.15521238059539E-03
    83 -.45561722023721E-05
    84 -.44921328355048E-05
    85 0.53971164366173E-03
    86 -.22481944506651E-03
    87 -.31489219859523E-03
    88 0.18211993334953E-03
    89 -.69916559713687E-05
    90 -.32144968809774E-05
    91 -.19296343544603E-04
    92 -.10731700603633E-04
    93 -.70407278967552E-06
    94 0.15343958395985E-04
    95 0.27801048712402E-05
    96 0.35121888020863E-07
    97 0.10544803133768E-04
    98 0.11617982367099E-04
    99 0.90949088327257E-06
   100 -.11903632717959E-06
   101 -.66800569623648E-02
   102 -.82543974707332E-02
   103 -.91255388365154E-03
   104 0.25270580948161E-03
   105 -.42642859665068E-03
   106 0.82768311354972E-03
   107 0.42579000514530E-03
   108 -.47792622500915E-03
   109 0.17206786238062E-02
   110 0.94186674982332E-04
   111 0.46651205443649E-04
   112 -.14083788042598E-03
   113 0.31633615460949E-04
   114 -.72063241330891E-04
   115 0.13092217756799E-03
   116 -.66787933818082E-02
   117 -.82517773292961E-02
   118 -.91124074557300E-03
   119 0.24796927665783E-03
   120 -.46711601090593E-03
   121 -.80654650782627E-03
   122 0.41488192379895E-03
   123 -.56291738887610E-03
   124 -.16960736667515E-02
   125 0.94876161473574E-04
   126 0.34816395301817E-04
   127 -.12969255677539E-03
   128 0.34329402667339E-04
   129 0.68826433124070E-04
   130 -.14117825005697E-03
 Sym=     3a   
 Ene= -.49965800834564E+00
 Spin= Alpha
 Occup= 2.000000
     1 0.56732301838308E-07
     2 0.10402916336793E-04
     3 0.30278511582485E-05
     4 0.69881457998916E-05
     5 -.19899907054545E-04
     6 0.57562410686848E-04
     7 0.17655345185055E-02
     8 -.22549595237027E-04
     9 0.54249835484892E-04
    10 0.15725973327244E-02
    11 -.91494800200807E-05
    12 0.54637538335495E-04
    13 0.19384686754415E-02
    14 -.19230690841373E-06
    15 0.85301615462277E-06
    16 -.66070924620904E-06
    17 0.13477362460933E-05
    18 0.63866543634599E-04
    19 0.90069435313321E-05
    20 -.63630889498732E-06
    21 0.39760729766726E-05
    22 -.33397640816853E-05
    23 0.98559607077191E-06
    24 0.46193436881648E-04
    25 0.74565953748654E-04
    26 0.16511349242512E-06
    27 -.44369284452875E-07
    28 -.25121772414623E-04
    29 0.14154081464063E-06
    30 0.92351119362301E-06
    31 0.34196920236531E-04
    32 -.36306381047961E-06
    33 -.86398355193322E-06
    34 -.49252573590448E-06
    35 0.37643784545587E-05
    36 0.15182660512174E-04
    37 0.19335832253800E-04
    38 0.63703070161578E-05
    39 0.20921068920496E-06
    40 -.18652502933013E-06
    41 0.59169002620891E-04
    42 -.18116986526542E-06
    43 -.26123735106262E-05
    44 -.22233307312240E-04
    45 -.18254017742670E-06
    46 0.83378494059340E-06
    47 -.65124476316671E-06
    48 0.90901548213607E-07
    49 0.68292615761479E-05
    50 0.10599107312030E-04
    51 -.17650270672274E-04
    52 -.25145043329241E-04
    53 -.72593096145701E-05
    54 0.10012909286627E-05
    55 0.32367420802226E-05
    56 0.10455708876977E-03
    57 0.63798392753774E-05
    58 0.84427454644025E-04
    59 0.33540802751731E-02
    60 0.58995438111943E-06
    61 -.14782164493832E-05
    62 0.88826206826373E-06
    63 0.73724750239021E-05
    64 0.30117311466019E-03
    65 -.42818007869043E-04
    66 0.10187713906830E-06
    67 -.29770184132874E-05
    68 -.58659264820214E-06
    69 -.11607190487155E-04
    70 0.87483853536812E-03
    71 0.75175408224488E-02
    72 0.30050520847166E+00
    73 0.96731768616451E-03
    74 0.83087956811960E-02
    75 0.33211856154301E+00
    76 0.46185204251161E-03
    77 0.39670561169170E-02
    78 0.15852610287658E+00
    79 0.18979072563753E-04
    80 -.20491969780067E-03
    81 0.18594062523691E-03
    82 0.81468498889002E-04
    83 0.38034306365399E-02
    84 -.47242174140777E-02
    85 0.23499530234023E-04
    86 -.31008725160123E-03
    87 0.28658772136720E-03
    88 0.97264987203079E-04
    89 0.47154058918000E-02
    90 -.71574965111715E-02
    91 -.26968813298438E-05
    92 -.20943558445409E-04
    93 0.58833458173984E-03
    94 -.14275466998424E-04
    95 -.11937371797690E-04
    96 -.41603187822513E-03
    97 0.17893712986892E-04
    98 0.40036104022495E-04
    99 -.37330179274538E-03
   100 -.30391924199179E-03
   101 0.15044959545463E+00
   102 0.20490778869436E+00
   103 0.74084720335070E-01
   104 -.79518993291066E-02
   105 0.96268673787962E-02
   106 -.84659713257981E-02
   107 -.12237640905717E-01
   108 0.14764609398734E-01
   109 -.13184804564450E-01
   110 -.71840187150258E-03
   111 -.12351073578173E-03
   112 0.84191260728431E-03
   113 -.17561633287298E-02
   114 0.20408993288311E-02
   115 -.25064683565657E-02
   116 -.15044434069558E+00
   117 -.20489803062343E+00
   118 -.74083394589640E-01
   119 0.79042594301461E-02
   120 -.10038958809399E-01
   121 -.80188826842607E-02
   122 0.12164894141541E-01
   123 -.15406906721189E-01
   124 -.12498591615118E-01
   125 0.73810960111252E-03
   126 -.96191122304799E-04
   127 -.64191847880772E-03
   128 0.18411813026794E-02
   129 0.19411042113265E-02
   130 -.25604348777009E-02
 Sym=     4a   
 Ene= -.44213628895700E+00
 Spin= Alpha
 Occup= 2.000000
     1 0.14308477027642E-03
     2 0.67261726413460E-03
     3 0.35105735422521E-06
     4 -.10079966116190E-02
     5 0.24254789523531E+00
     6 -.15389148453449E+00
     7 0.32005280731004E-02
     8 0.26746999084429E+00
     9 -.17003921921311E+00
    10 0.35377819265872E-02
    11 0.12664060678895E+00
    12 -.80065117824349E-01
    13 0.16640942206374E-02
    14 0.45287689860064E-02
    15 -.45865386955296E-02
    16 0.57769709523190E-04
    17 0.25762192737527E-02
    18 -.75806512444479E-04
    19 0.12573001004994E-03
    20 0.66121111759616E-02
    21 -.66645715153914E-02
    22 0.52460339429709E-04
    23 0.37225027318071E-02
    24 -.10966019969613E-03
    25 0.18196373049562E-03
    26 0.23462634603940E-03
    27 0.17480691923969E-04
    28 -.16883181578964E-04
    29 0.21806592647073E-03
    30 -.38230470038451E-03
    31 0.60769542799362E-05
    32 -.53285020190462E-03
    33 0.35885189112307E-03
    34 0.16574210732286E-04
    35 -.19271423445390E-04
    36 -.14614077984129E+00
    37 -.20159086548064E+00
    38 -.85582589875390E-01
    39 -.11868921418208E-03
    40 0.14250653416870E-01
    41 -.35020974141103E-03
    42 0.12044317545842E-02
    43 0.21547872008574E-01
    44 -.53259952028823E-03
    45 0.16344176848633E-02
    46 -.34654319255841E-02
    47 0.18310142407209E-02
    48 0.10213965929964E-02
    49 -.24577024123752E-04
    50 0.14802549414795E-03
    51 0.14672973519947E+00
    52 0.19923726994953E+00
    53 0.92918336983457E-01
    54 -.12824433684932E-01
    55 -.58637434223794E-02
    56 0.17517558412084E-03
    57 -.20494319135234E-01
    58 -.94571756937512E-02
    59 0.28049261534321E-03
    60 0.34614763160802E-02
    61 -.14920972641997E-02
    62 -.19693790518805E-02
    63 0.15959050459696E-02
    64 -.54366615290378E-04
    65 -.17328738215212E-04
    66 -.96011120045698E-03
    67 0.16918329203233E-01
    68 0.44743406085980E-02
    69 0.50522712014030E-01
    70 -.63724960929956E-01
    71 0.26263677579646E-01
    72 -.43762153125907E-03
    73 -.73700867205377E-01
    74 0.28270551432083E-01
    75 -.45357829707207E-03
    76 -.47213838118977E-01
    77 0.10593326253541E-01
    78 -.10706327576750E-03
    79 -.14463726122633E-05
    80 -.10366139806471E-04
    81 0.11812512418735E-04
    82 0.75353290738332E-03
    83 -.18238050487676E-04
    84 -.21099806951387E-05
    85 0.11852482524657E-02
    86 -.10827281731935E-02
    87 -.10252007927217E-03
    88 0.13138338343675E-02
    89 -.34880143808786E-04
    90 0.23029592997441E-04
    91 -.64781173250054E-05
    92 -.58861343431756E-04
    93 -.26719173202274E-06
    94 0.28774365191739E-04
    95 0.69749564305340E-04
    96 -.19861010561167E-05
    97 -.20083058768781E-04
    98 0.92212147908807E-05
    99 0.23445763816139E-05
   100 -.16981076035021E-05
   101 -.18463362676049E-01
   102 -.33591750077897E-01
   103 -.66389023460927E-02
   104 -.76256327010749E-03
   105 -.58137627821393E-03
   106 0.20996419019647E-02
   107 -.32455847106650E-02
   108 -.40270686147485E-03
   109 0.69309824351279E-02
   110 0.53154642557161E-03
   111 0.13610521418308E-03
   112 -.66765163975469E-03
   113 -.79107493278197E-04
   114 0.10456390517125E-03
   115 0.34022214604831E-03
   116 -.18501282946690E-01
   117 -.33637258388283E-01
   118 -.66596093156849E-02
   119 -.77264646741054E-03
   120 -.68756715716721E-03
   121 -.20647767519034E-02
   122 -.32870212211381E-02
   123 -.75061186785650E-03
   124 -.68836634511474E-02
   125 0.53073611957708E-03
   126 0.10448522894081E-03
   127 -.63522134851789E-03
   128 -.86173618674962E-04
   129 -.10796377132836E-03
   130 -.38469221576784E-03
 Sym=     5a   
 Ene= -.36354885287658E+00
 Spin= Alpha
 Occup= 2.000000
     1 0.23155045334038E-02
     2 -.56553576820613E-01
     3 -.17816082512844E-01
     4 -.11063238442953E+00
     5 -.37384222022900E-01
     6 0.78427659657071E-01
     7 -.18406772223487E-02
     8 -.47413938570813E-01
     9 0.84678933735807E-01
    10 -.19700298804681E-02
    11 -.33598909026600E-01
    12 0.64317340262568E-01
    13 -.15037393568218E-02
    14 -.88138614338330E-03
    15 0.11997839249612E-02
    16 -.31839778157791E-03
    17 -.28698927131103E-03
    18 0.85811069574043E-05
    19 -.42448860779606E-04
    20 -.32405755781625E-02
    21 0.36276626384188E-02
    22 -.38708706025637E-03
    23 0.37782904589278E-03
    24 -.14498684895490E-05
    25 -.11515601364351E-03
    26 -.14598039436380E-03
    27 0.61369109312377E-04
    28 0.86082491695232E-05
    29 0.38747531310304E-04
    30 0.88940945806077E-04
    31 -.98766478021728E-06
    32 0.15710571979750E-03
    33 -.17127624589073E-03
    34 -.10561513405969E-04
    35 0.26338299584180E-05
    36 0.46458559128385E-01
    37 0.62959264059806E-01
    38 0.17832948207651E-01
    39 0.85072506195338E-03
    40 -.34107018766632E-02
    41 0.81777696856023E-04
    42 0.23280216576937E-02
    43 -.24201202236942E-02
    44 0.53890465081791E-04
    45 -.28576055315344E-03
    46 0.87079995231806E-03
    47 -.58503939916463E-03
    48 -.34225538278103E-03
    49 0.75705297929152E-05
    50 -.40557365634697E-04
    51 -.83944351917555E-02
    52 0.11352850838326E-01
    53 0.52079806719994E-01
    54 0.40782461845226E-02
    55 0.28883414878312E-02
    56 -.80907504846635E-04
    57 0.12460995688257E-02
    58 0.52974680041262E-02
    59 -.13566685017569E-03
    60 0.11221045205847E-02
    61 -.56930013518437E-03
    62 -.55280438540037E-03
    63 -.26762120771336E-03
    64 0.17112780174164E-05
    65 0.10921983051806E-05
    66 -.40285348113907E-02
    67 0.18605675222993E+00
    68 0.56992195991307E-01
    69 0.27920103441470E+00
    70 -.20441595967392E+00
    71 0.22982067898308E+00
    72 -.51611087336265E-02
    73 -.23533525575405E+00
    74 0.25818552817820E+00
    75 -.57801297309632E-02
    76 -.16359222984009E+00
    77 0.20067632053837E+00
    78 -.45413742610512E-02
    79 -.51394444119659E-04
    80 -.82618076950932E-03
    81 0.87757521362898E-03
    82 0.30199777349323E-02
    83 -.72590040237876E-04
    84 0.40642820194710E-04
    85 0.14311027606796E-02
    86 -.45559827499905E-02
    87 0.31248799893108E-02
    88 0.75993780686445E-02
    89 -.18287222108463E-03
    90 0.19891981042746E-03
    91 0.42679743733522E-03
    92 -.41298603941216E-03
    93 -.17329195689370E-04
    94 -.38921892759867E-03
    95 0.22357198484105E-03
    96 -.83280430382260E-05
    97 -.18338992190388E-03
    98 0.33050692988934E-03
    99 0.31577598772323E-04
   100 0.62434121638028E-05
   101 -.84329568153037E-01
   102 -.11756880878776E+00
   103 -.41985204606052E-01
   104 -.16914865846015E-02
   105 0.18722840233915E-02
   106 0.81055389046118E-02
   107 -.14175241606841E-01
   108 0.11522847821450E-01
   109 0.16963631617200E-01
   110 0.12196364745072E-02
   111 0.11030957121631E-02
   112 -.23227321866703E-02
   113 -.42855708012456E-03
   114 0.26009455103847E-03
   115 0.25037593093392E-03
   116 -.84331014214578E-01
   117 -.11755276014661E+00
   118 -.42007981036323E-01
   119 -.17391811080492E-02
   120 0.14650389124583E-02
   121 -.81775876090086E-02
   122 -.14273180339715E-01
   123 0.10665538763581E-01
   124 -.17435731538809E-01
   125 0.12166714684867E-02
   126 0.10730851297901E-02
   127 -.22897565982769E-02
   128 -.44357950428102E-03
   129 -.26182291019269E-03
   130 -.44381070411756E-03
 Sym=     6a   
 Ene= -.29991947707058E+00
 Spin= Alpha
 Occup= 2.000000
     1 0.31595657022883E-02
     2 -.18230202679121E+00
     3 -.56012072478598E-01
     4 -.23515755092652E+00
     5 0.14863271256484E+00
     6 0.24283317979899E+00
     7 -.63257989383858E-02
     8 0.16648459854403E+00
     9 0.27450635855801E+00
    10 -.71479419405012E-02
    11 0.15359534678262E+00
    12 0.21953377934704E+00
    13 -.57636551681182E-02
    14 -.26705133531980E-04
    15 0.19229279272774E-02
    16 -.18962227937454E-02
    17 0.16960190687053E-02
    18 -.46889318968891E-04
    19 -.11258729476863E-03
    20 0.14341045022178E-02
    21 0.52409064769600E-02
    22 -.66750109791778E-02
    23 0.72872931019572E-02
    24 -.20188272759332E-03
    25 -.35604160261307E-03
    26 0.39914499431233E-03
    27 0.31802031688187E-03
    28 0.30839537699807E-04
    29 -.15245301389114E-03
    30 0.95973743633041E-04
    31 -.54983725286564E-05
    32 -.38305619020554E-03
    33 -.52264277169737E-03
    34 -.35877209086206E-04
    35 -.82897784931902E-05
    36 0.81455234979164E-01
    37 0.11128268398724E+00
    38 0.42665429105263E-01
    39 0.75694795291294E-02
    40 -.27688058111131E-02
    41 0.50032119234302E-04
    42 0.18323410723892E-01
    43 0.10926319252427E-01
    44 -.31299076592338E-03
    45 0.91814248393322E-03
    46 -.25215945810138E-03
    47 -.66598302583184E-03
    48 -.16122520365765E-02
    49 0.35242486585307E-04
    50 -.78561696010669E-05
    51 0.77698439669349E-01
    52 0.92377007995648E-01
    53 -.82521924095739E-03
    54 -.39899894913252E-02
    55 0.56744705245936E-02
    56 -.13004434010047E-03
    57 0.11701093234690E-02
    58 0.18406625336153E-01
    59 -.45296006428483E-03
    60 0.91347359928171E-03
    61 -.29713921937089E-03
    62 -.61633437991082E-03
    63 -.16787042259789E-02
    64 0.36957910370435E-04
    65 -.49742231004331E-05
    66 -.43229129416035E-03
    67 -.54749982952195E-01
    68 -.16406547522172E-01
    69 -.84870886387611E-01
    70 -.69441767923292E-01
    71 -.14191370040688E+00
    72 0.37554845355671E-02
    73 -.80016825742329E-01
    74 -.16183931293876E+00
    75 0.42845903721915E-02
    76 -.96653177722151E-01
    77 -.12647503952034E+00
    78 0.34384212020575E-02
    79 -.91093135845806E-03
    80 0.12106718643710E-02
    81 -.29974050591298E-03
    82 -.52216645640492E-03
    83 0.15197446301065E-04
    84 -.42312150660624E-04
    85 -.18869358016655E-02
    86 0.33674108583919E-02
    87 -.14804750567265E-02
    88 0.22618034433818E-03
    89 -.36657818752751E-05
    90 -.14078211750099E-03
    91 -.75878389130428E-04
    92 0.28443915986716E-04
    93 0.17359395979191E-04
    94 0.30010350855069E-03
    95 0.24814726742990E-03
    96 -.71019971176507E-05
    97 -.19830196687940E-03
    98 -.28630878524545E-03
    99 -.16188076557034E-04
   100 -.16214157974435E-04
   101 0.16830302370114E-01
   102 0.37125887125886E-01
   103 0.15079028586917E-01
   104 -.31024488421380E-02
   105 -.32440546392025E-02
   106 -.13677620797651E-02
   107 -.52214633162242E-02
   108 -.11336200734426E-01
   109 -.76861457521541E-02
   110 0.24491757360005E-03
   111 -.89060104772355E-03
   112 0.64568347412351E-03
   113 0.80359078074709E-04
   114 0.68159952440370E-03
   115 0.66445691968481E-03
   116 0.16824630890280E-01
   117 0.37113863115837E-01
   118 0.15055336832230E-01
   119 -.30938968781417E-02
   120 -.31711807167474E-02
   121 0.15464715984238E-02
   122 -.51741650380401E-02
   123 -.10938597079620E-01
   124 0.82690209957111E-02
   125 0.23820838015491E-03
   126 -.94419284209309E-03
   127 0.70598446193818E-03
   128 0.42737200825305E-04
   129 -.68153914428486E-03
   130 -.57279161720296E-03
 Sym=     7a   
 Ene= -.27836977846322E+00
 Spin= Alpha
 Occup= 2.000000
     1 0.20796307328711E-02
     2 -.54636003396044E-01
     3 -.17265020986384E-01
     4 -.30044799269634E-01
     5 0.11746328286135E+00
     6 0.93045385506916E-01
     7 -.25742790258520E-02
     8 0.13789877209609E+00
     9 0.10810279662671E+00
    10 -.29933651733278E-02
    11 0.11954746300176E+00
    12 0.10119508385571E+00
    13 -.27807050298429E-02
    14 0.53063463216629E-03
    15 0.28286940539859E-03
    16 -.81350403756488E-03
    17 0.13747759740713E-02
    18 -.37589201649595E-04
    19 -.34482030872555E-04
    20 0.21712894246449E-02
    21 0.20736500106218E-02
    22 -.42449394352667E-02
    23 0.36305658897469E-02
    24 -.10704325173477E-03
    25 -.18845386701729E-03
    26 0.26382897074009E-03
    27 0.18139844649201E-03
    28 0.14384510140528E-04
    29 -.10091655223475E-03
    30 -.69554898338609E-05
    31 -.18848755053004E-05
    32 -.25304715557043E-03
    33 -.23641606458754E-03
    34 -.17413969993053E-04
    35 -.49560035468038E-05
    36 0.18266004642723E-01
    37 0.49319956910302E-02
    38 0.17249809231666E-01
    39 0.36127533751479E-02
    40 0.75421199000330E-03
    41 -.27328842300361E-04
    42 0.11074892172365E-01
    43 0.12264978635411E-01
    44 -.32843338933047E-03
    45 0.90499212499000E-03
    46 -.88085990093030E-03
    47 -.24132224059710E-04
    48 -.74812921409234E-03
    49 0.15788833454450E-04
    50 0.26140686280040E-04
    51 0.44073256705984E-01
    52 0.33586447504273E-01
    53 -.55390961375379E-01
    54 -.82097308401396E-02
    55 0.18985538719634E-02
    56 -.27057287947177E-04
    57 0.96870523279475E-02
    58 0.13829263603896E-01
    59 -.36579451526259E-03
    60 -.63045624163160E-03
    61 0.35652378171942E-03
    62 0.27393245991219E-03
    63 -.64172751193004E-03
    64 0.18461192954618E-04
    65 -.83748629601584E-06
    66 -.70855982872581E-03
    67 -.78700152112459E-02
    68 -.16008535559115E-02
    69 -.66555668296873E-01
    70 0.26377926750636E+00
    71 0.20771056973882E+00
    72 -.59581093201130E-02
    73 0.30125735775411E+00
    74 0.24248146959294E+00
    75 -.69367253760234E-02
    76 0.24749504878659E+00
    77 0.23921281161144E+00
    78 -.67011700708743E-02
    79 0.24125877145097E-02
    80 -.23766789297372E-02
    81 -.35908784772565E-04
    82 -.83773037484941E-03
    83 0.13070432428835E-04
    84 0.70202133541342E-04
    85 0.81403801209031E-02
    86 -.74526221686759E-02
    87 -.68775795222718E-03
    88 -.12005037327056E-02
    89 -.32530814644752E-06
    90 0.19867398691930E-03
    91 -.74660267743537E-05
    92 0.21615904500045E-04
    93 -.34168375173453E-04
    94 -.51443583997227E-03
    95 -.57830654998183E-03
    96 0.17516236560277E-04
    97 0.52445256600585E-03
    98 0.54930577086748E-03
    99 0.28325449180857E-04
   100 0.33888543797885E-04