STARTING dscf ON 32 PROCESSORS!
RUNNING PROGRAM /sopt/TURBOMOLE/7.2.1-official/bin/em64t-unknown-linux-gnu_mpi/dscf_mpi.
PLEASE WAIT UNTIL dscf HAS FINISHED.
Look for the output in slave1.output.
MACHINEFILE is ./hostlist
 this is node-proc. number 1 running on node c-13-13.gp.local
 the total number of node-proc. spawned is  33
  parallel platform: MPP or cluster with fast interconnect

 dscf (c-13-13.gp.local) : TURBOMOLE V7.2 ( 21471 ) 7 Nov 2017 at 16:15:16
 Copyright (C) 2017 TURBOMOLE GmbH, Karlsruhe


    2018-02-20 13:46:25.716 


 SCF run will be profiled !



                             d s c f - program

                   idea & directorship : reinhart ahlrichs
                   program development : marco haeser
                                         michael baer
                           dft version : oliver treutler
           parallelized version : malte v. arnim, gina corongiu, GMD 


                          quantum chemistry group
                          universitaet  karlsruhe
                                  germany




                          References             
                                                 
          TURBOMOLE:                             
              R. Ahlrichs, M. Baer, M. Haeser, H. Horn, and
              C. Koelmel
              Electronic structure calculations on workstation
              computers: the program system TURBOMOLE
              Chem. Phys. Lett. 162: 165 (1989)
          Density Functional:                              
              O. Treutler and R. Ahlrichs                      
              Efficient Molecular Numerical Integration Schemes
              J. Chem. Phys. 102: 346 (1995)                   
          Parallel Version:                                
              Performance of parallel TURBOMOLE for Density    
              Functional Calculations                          
              M. v. Arnim and R. Ahlrichs                      
              J. Comp. Chem. 19: 1746 (1998)                   
                                         




              +--------------------------------------------------+
              | Atomic coordinate, charge and isotop information |
              +--------------------------------------------------+

                    atomic coordinates            atom    charge  isotop
          1.29102896    2.23612775    5.35940406    c      6.000     0
          2.68444732    0.00000000    5.34775669    c      6.000     0
          1.29102896   -2.23612775    5.35940406    c      6.000     0
         -1.34222366   -2.32479958    5.34775669    c      6.000     0
         -2.58205792    0.00000000    5.35940406    c      6.000     0
         -1.34222366    2.32479958    5.34775669    c      6.000     0
         -2.74209098    4.74944089    5.17369628    c      6.000     0
         -3.47165961    6.01309083    7.36565771    c      6.000     0
         -4.78742225    8.29205857    7.27396970    c      6.000     0
         -5.38971831    9.33526596    4.93546263    c      6.000     0
         -4.67190964    8.09198487    2.72597715    c      6.000     0
         -3.35880377    5.81761878    2.81855316    c      6.000     0
         -2.74209098   -4.74944089    5.17369628    c      6.000     0
         -3.35880377   -5.81761878    2.81855316    c      6.000     0
         -4.67190964   -8.09198487    2.72597715    c      6.000     0
         -5.38971831   -9.33526596    4.93546263    c      6.000     0
         -4.78742225   -8.29205857    7.27396970    c      6.000     0
         -3.47165961   -6.01309083    7.36565771    c      6.000     0
          5.48418196    0.00000000    5.17369628    c      6.000     0
          6.71760754    0.00000000    2.81855316    c      6.000     0
          9.34381929    0.00000000    2.72597715    c      6.000     0
         10.77943663    0.00000000    4.93546263    c      6.000     0
          9.57484449    0.00000000    7.27396970    c      6.000     0
          6.94331922    0.00000000    7.36565771    c      6.000     0
          2.56458096    4.44198451    5.30703898    f      9.000     0
         -5.12916191    0.00000000    5.30703898    f      9.000     0
          2.56458096   -4.44198451    5.30703898    f      9.000     0
         -2.90994879    5.04017915    9.65013893    f      9.000     0
         -5.47160393    9.47709601    9.40663768    f      9.000     0
         -6.65606662   11.52864556    4.82298142    f      9.000     0
         -5.29334333    9.16833958    0.50315811    f      9.000     0
         -5.29334333   -9.16833958    0.50315811    f      9.000     0
         -6.65606662  -11.52864556    4.82298142    f      9.000     0
         -5.47160393   -9.47709601    9.40663768    f      9.000     0
         -2.90994879   -5.04017915    9.65013893    f      9.000     0
         10.58668665    0.00000000    0.50315811    f      9.000     0
         13.31213324    0.00000000    4.82298142    f      9.000     0
         10.94320787    0.00000000    9.40663768    f      9.000     0
          5.81989758    0.00000000    9.65013893    f      9.000     0
         -2.31430977    4.00850211   -0.59311698    i     53.000     0
         -2.31430977   -4.00850211   -0.59311698    i     53.000     0
          4.62861954    0.00000000   -0.59311698    i     53.000     0
 
       center of nuclear mass  :   -0.00000000    0.00000000    3.08585308
       center of nuclear charge:   -0.00000000    0.00000000    3.29984425

              +--------------------------------------------------+
              |               basis set information              |
              +--------------------------------------------------+

              we will work with the 1s 3p 5d 7f 9g ... basis set
              ...i.e. with spherical basis functions...

   type   atoms  prim   cont   basis
   ---------------------------------------------------------------------------
    c       24     77     55   cc-pVQZ   [5s4p3d2f1g|21s6p3d2f1g]
    f       15     77     55   cc-pVQZ   [5s4p3d2f1g|21s6p3d2f1g]
    i        3    161     67   cc-pVQZ-PP   [6s6p4d2f1g|24s18p12d2f1g]
   ---------------------------------------------------------------------------
   total:   42   3486   2346
   ---------------------------------------------------------------------------

   total number of primitive shells          :  123
   total number of contracted shells         :  642
   total number of cartesian basis functions : 2979
   total number of SCF-basis functions       : 2346


 integral neglect threshold       :  0.11E-11
 integral storage threshold THIZE :  0.10E-04
 integral storage threshold THIME :         5


 DENSITY CONVERGENCE CHECK SWITCHED ON !
 SCF CONVERGENCE IF RMS(delta[D]) <     0.1000000000E-06

 number of unique ecp types :                     1

 symmetry group of the molecule :   c1 

 the group has the following generators :
   c1(z)

    1 symmetry operations found

 there are 1 real representations :   a   

 maximum number of shells which are related by symmetry :  1


    mo occupation :
   irrep   mo's   occupied
    a     2346      177
 
 number of basis functions   :                   2346
 number of occupied orbitals :                    177
 

 automatic virtual orbital shift switched on 
      shift if e(lumo)-e(homo) < 0.10000000    


 keyword $2e-ints_shell_statistics missing in file <control>

 ! One task per shell generated
  No pre-computed optimal task distribution found
  ... using automatic task generation

          ------------------------
          nuclear repulsion energy  :   6675.49755796    
          ------------------------


         -----------------
         -S,T+V- integrals
         -----------------

 1e-integrals will be neglected if expon. factor < 0.112184E-12


          ----------------
          -ecp-  integrals
          ----------------
 
   Difference densities algorithm switched on.
   The maximal number of linear combinations of
   difference densities is                    20 .

 DIIS switched on: error vector is FDS-SDF
 Max. Iterations for DIIS is     :   5
 DIIS matrix (see manual) 
    Scaling factor of diagonals  :  1.200
    threshold for scaling factor :  0.000

 scf convergence criterion : increment of total energy < .1000000D-06
                  and increment of one-electron energy < .1000000D-03

  MOs are in ASCII format !


 reading orbital data $scfmo  from file mos
 orbital characterization : expanded
 mo provided and orthogonalized by Cholesky decomposition

 DSCF restart information will be dumped onto file mos

 
                                              current damping :  0.300
 ITERATION  ENERGY          1e-ENERGY        2e-ENERGY     RMS[dD(SAO)]   TOL
   1  -3278.6848179711    -18129.472051     8175.2896752    0.000D+00 0.112D-11
          max. resid. norm for Fia-block=  3.728D-01 for orbital    130a         
          max. resid. fock norm         =  1.498D+01 for orbital   2136a         
          Delta Eig. =  1239.1675375879 eV 
 
                                              current damping :  0.250
 ITERATION  ENERGY          1e-ENERGY        2e-ENERGY     RMS[dD(SAO)]   TOL
   2  -3284.6291461949    -18164.379643     8204.2529385    0.211D-01 0.111D-11
          Norm of current diis error:  4.6503    
          max. resid. norm for Fia-block=  1.004D-01 for orbital     85a         
          max. resid. fock norm         =  3.055D-01 for orbital   1639a         
          Delta Eig. =   296.8440324213 eV 
 
                                              current damping :  0.150
 ITERATION  ENERGY          1e-ENERGY        2e-ENERGY     RMS[dD(SAO)]   TOL
   3  -3285.1109578666    -18175.856328     8215.2478118    0.431D-02 0.642D-12
          Norm of current diis error:  1.7642    
          max. resid. norm for Fia-block=  4.159D-02 for orbital    111a         
          max. resid. fock norm         =  4.237D-02 for orbital    111a         
          Delta Eig. =    65.9887853871 eV 
 
                                              current damping :  0.200
 ITERATION  ENERGY          1e-ENERGY        2e-ENERGY     RMS[dD(SAO)]   TOL
   4  -3285.2138124861    -18175.442183     8214.7308126    0.134D-02 0.524D-12
          Norm of current diis error: 0.45110    
          max. resid. norm for Fia-block=  1.225D-02 for orbital    166a         
          max. resid. fock norm         =  1.712D-02 for orbital    159a         
          Delta Eig. =     8.0325885002 eV 
 
                                              current damping :  0.250
 ITERATION  ENERGY          1e-ENERGY        2e-ENERGY     RMS[dD(SAO)]   TOL
   5  -3285.2241541222    -18176.047022     8215.3253098    0.314D-03 0.481D-12
          Norm of current diis error: 0.15982    
          max. resid. norm for Fia-block=  6.478D-03 for orbital    161a         
          max. resid. fock norm         =  7.131D-03 for orbital    161a         
 mo-orthogonalization: Cholesky decomposition
          Delta Eig. =     1.2468719858 eV 
 
                                              current damping :  0.100
 ITERATION  ENERGY          1e-ENERGY        2e-ENERGY     RMS[dD(SAO)]   TOL
   6  -3285.2259773102    -18176.312349     8215.5888135    0.102D-03 0.455D-12
          Norm of current diis error: 0.80986E-01
          max. resid. norm for Fia-block=  2.921D-03 for orbital    165a         
          max. resid. fock norm         =  3.402D-03 for orbital    185a         
          Delta Eig. =     0.3192745460 eV 
 
                                              current damping :  0.150
 ITERATION  ENERGY          1e-ENERGY        2e-ENERGY     RMS[dD(SAO)]   TOL
   7  -3285.2265251577    -18176.176274     8215.4521910    0.398D-04 0.434D-12
          Norm of current diis error: 0.36780E-01
          max. resid. norm for Fia-block=  1.789D-03 for orbital    161a         
          max. resid. fock norm         =  2.073D-03 for orbital    182a         
          Delta Eig. =     0.0524287272 eV 
 
                                              current damping :  0.200
 ITERATION  ENERGY          1e-ENERGY        2e-ENERGY     RMS[dD(SAO)]   TOL
   8  -3285.2266616848    -18176.273934     8215.5497140    0.138D-04 0.414D-12
          Norm of current diis error: 0.18178E-01
          max. resid. norm for Fia-block=  1.137D-03 for orbital    169a         
          max. resid. fock norm         =  1.175D-03 for orbital    169a         
          Delta Eig. =     0.0301691333 eV 
 
                                              current damping :  0.250
 ITERATION  ENERGY          1e-ENERGY        2e-ENERGY     RMS[dD(SAO)]   TOL
   9  -3285.2266943758    -18176.249426     8215.5251737    0.706D-05 0.398D-12
          Norm of current diis error: 0.90902E-02
          max. resid. norm for Fia-block=  7.012D-04 for orbital    168a         
          max. resid. fock norm         =  7.156D-04 for orbital    168a         
          Delta Eig. =     0.0183369292 eV 
 
                                              current damping :  0.300
 ITERATION  ENERGY          1e-ENERGY        2e-ENERGY     RMS[dD(SAO)]   TOL
  10  -3285.2267032166    -18176.257829     8215.5335680    0.334D-05 0.385D-12
          Norm of current diis error: 0.49426E-02
          max. resid. norm for Fia-block=  4.264D-04 for orbital    168a         
          max. resid. fock norm         =  4.317D-04 for orbital    168a         
 mo-orthogonalization: Cholesky decomposition
          Delta Eig. =     0.0116835909 eV 
 
                                              current damping :  0.350
 ITERATION  ENERGY          1e-ENERGY        2e-ENERGY     RMS[dD(SAO)]   TOL
  11  -3285.2267058693    -18176.255264     8215.5310006    0.204D-05 0.372D-12
          Norm of current diis error: 0.24350E-02
          max. resid. norm for Fia-block=  2.432D-04 for orbital    169a         
          max. resid. fock norm         =  2.458D-04 for orbital    169a         
          Delta Eig. =     0.0044499135 eV 
 
                                              current damping :  0.400
 ITERATION  ENERGY          1e-ENERGY        2e-ENERGY     RMS[dD(SAO)]   TOL
  12  -3285.2267065923    -18176.255498     8215.5312335    0.100D-05 0.360D-12
          Norm of current diis error: 0.11863E-02
          max. resid. norm for Fia-block=  1.236D-04 for orbital    169a         
          max. resid. fock norm         =  1.244D-04 for orbital    169a         
          Delta Eig. =     0.0017483590 eV 
 
                                              current damping :  0.450
 ITERATION  ENERGY          1e-ENERGY        2e-ENERGY     RMS[dD(SAO)]   TOL
  13  -3285.2267067681    -18176.254357     8215.5300922    0.533D-06 0.349D-12
          Norm of current diis error: 0.53333E-03
          max. resid. norm for Fia-block=  5.209D-05 for orbital    169a         
          max. resid. fock norm         =  5.286D-05 for orbital    169a         
          Delta Eig. =     0.0007840916 eV 
 
                                              current damping :  0.500
 ITERATION  ENERGY          1e-ENERGY        2e-ENERGY     RMS[dD(SAO)]   TOL
  14  -3285.2267068024    -18176.254493     8215.5302285    0.258D-06 0.342D-12
          Norm of current diis error: 0.24387E-03
          max. resid. norm for Fia-block=  2.159D-05 for orbital    169a         
          max. resid. fock norm         =  2.196D-05 for orbital    169a         
          Delta Eig. =     0.0003278384 eV 
 
                                              current damping :  0.550
 ITERATION  ENERGY          1e-ENERGY        2e-ENERGY     RMS[dD(SAO)]   TOL
  15  -3285.2267068071    -18176.254122     8215.5298575    0.112D-06 0.335D-12
          Norm of current diis error: 0.12088E-03
          max. resid. norm for Fia-block=  8.461D-06 for orbital    169a         
          max. resid. fock norm         =  8.969D-06 for orbital    182a         
 mo-orthogonalization: Cholesky decomposition
          Delta Eig. =     0.0001727588 eV 

 ENERGY & DENSITY CONVERGED !

 
                                              current damping :  0.600
 ITERATION  ENERGY          1e-ENERGY        2e-ENERGY     RMS[dD(SAO)]   TOL
  16  -3285.2267068042    -18176.254137     8215.5298718    0.578D-07 0.327D-12
          max. resid. norm for Fia-block=  3.470D-06 for orbital    162a         
          max. resid. fock norm         =  9.163D-06 for orbital   1083a         

 convergence criteria satisfied after    16 iterations


                  ------------------------------------------ 
                 |  total energy      =  -3285.22670680423  |
                  ------------------------------------------ 
                 :  kinetic energy    =   2730.84792620679  :
                 :  potential energy  =  -6016.07463301101  :
                 :  virial theorem    =      1.83125098203  :
                 :  wavefunction norm =      1.00000000000  :
                  .......................................... 


 <geterg> : there is no data group $energy 


 <skperg> : $end is missing 


 orbitals $scfmo  will be written to file mos

    irrep                173a        174a        175a        176a        177a   
 eigenvalues H         -0.37997    -0.37997    -0.36817    -0.36817    -0.35858
            eV         -10.3396    -10.3396    -10.0185    -10.0185     -9.7576
 occupation              2.0000      2.0000      2.0000      2.0000      2.0000 

    irrep                178a        179a        180a        181a        182a   
 eigenvalues H          0.02727     0.06206     0.06206     0.06748     0.06748
            eV           0.7421      1.6889      1.6889      1.8362      1.8362
 
 
 
 
 ==============================================================================
                           electrostatic moments
 ==============================================================================

 reference point for electrostatic moments:    0.00000   0.00000   0.00000

 
              nuc           elec       ->  total
 ------------------------------------------------------------------------------
                          charge      
 ------------------------------------------------------------------------------
         354.000000    -354.000000      -0.000000
 
 ------------------------------------------------------------------------------
                       dipole moment  
 ------------------------------------------------------------------------------
   x      -0.000000      -0.000000      -0.000000
   y       0.000000      -0.000000      -0.000000
   z    1495.153607   -1495.956198      -0.802591
 
   | dipole moment | =     0.8026 a.u. =     2.0400 debye 
 
 ------------------------------------------------------------------------------
                     quadrupole moment
 ------------------------------------------------------------------------------
  xx   11030.127188  -11261.029323    -230.902135
  yy   11030.127188  -11261.029322    -230.902135
  zz   10482.941770  -10713.747689    -230.805918
  xy       0.000000       0.000000       0.000000
  xz      -0.000000      -0.000000      -0.000000
  yz      -0.000000      -0.000000      -0.000000
 
     1/3  trace=    -230.870063
     anisotropy=       0.096216
 
 ==============================================================================
 

    dscf profiling
  --------------------------------------------------------------------
             module   cpu total (s)       %  wall total (s)       %

          dscf.total          7260.7  100.00          6845.4  100.00
        dscf.prepare            16.4    0.23            16.5    0.24
      prepare.oneint             0.5    0.01             0.5    0.01
     prepare.moinput             0.3    0.00             0.3    0.01
     moinput_orthmos            15.0    0.21            15.0    0.22
            dscf.scf          7242.6   99.75          6827.1   99.73
             scf.pre             0.0    0.00             0.1    0.00
        scf.makedmat             9.9    0.14            10.0    0.15
          scf.shloop          6436.9   88.66          6437.3   94.04
          shloop_omp          6435.8   88.64          6436.2   94.02
          scf.symcar             1.4    0.02             1.4    0.02
        scf.makefock             2.2    0.03             3.6    0.05
          scf.newerg             0.1    0.00             0.1    0.00
          scf.newcnv           131.3    1.81            16.7    0.24
           scf.fdiag           294.2    4.05            36.8    0.54
         diag_tritrn            86.2    1.19            10.8    0.16
          diag_rdiag           200.3    2.76            25.0    0.37
          scf.modump           310.5    4.28           288.0    4.21
           ortho_all            32.3    0.45            13.0    0.19
            scf.post            20.8    0.29            19.5    0.29
        dscf.postscf             1.7    0.02             1.8    0.03
 


    ------------------------------------------------------------------------
         total  cpu-time :  2 hours  1 minutes and  1 seconds
         total wall-time :  1 hours 54 minutes and  6 seconds
    ------------------------------------------------------------------------

   ****  dscf : all done  ****


    2018-02-20 15:40:31.161 

