STARTING dscf ON 32 PROCESSORS!
RUNNING PROGRAM /beegfs/modfac/apps/TURBOMOLE/7.2.1-official/bin/em64t-unknown-linux-gnu_mpi/dscf_mpi.
PLEASE WAIT UNTIL dscf HAS FINISHED.
Look for the output in slave1.output.
MACHINEFILE is ./hostlist
 this is node-proc. number 1 running on node c-8-31.local
 the total number of node-proc. spawned is  33
  parallel platform: MPP or cluster with fast interconnect

 dscf (c-8-31.local) : TURBOMOLE V7.2 ( 21471 ) 7 Nov 2017 at 16:15:16
 Copyright (C) 2017 TURBOMOLE GmbH, Karlsruhe


    2018-02-19 19:33:13.199 


 SCF run will be profiled !



                             d s c f - program

                   idea & directorship : reinhart ahlrichs
                   program development : marco haeser
                                         michael baer
                           dft version : oliver treutler
           parallelized version : malte v. arnim, gina corongiu, GMD 


                          quantum chemistry group
                          universitaet  karlsruhe
                                  germany




                          References             
                                                 
          TURBOMOLE:                             
              R. Ahlrichs, M. Baer, M. Haeser, H. Horn, and
              C. Koelmel
              Electronic structure calculations on workstation
              computers: the program system TURBOMOLE
              Chem. Phys. Lett. 162: 165 (1989)
          Density Functional:                              
              O. Treutler and R. Ahlrichs                      
              Efficient Molecular Numerical Integration Schemes
              J. Chem. Phys. 102: 346 (1995)                   
          Parallel Version:                                
              Performance of parallel TURBOMOLE for Density    
              Functional Calculations                          
              M. v. Arnim and R. Ahlrichs                      
              J. Comp. Chem. 19: 1746 (1998)                   
                                         




              +--------------------------------------------------+
              | Atomic coordinate, charge and isotop information |
              +--------------------------------------------------+

                    atomic coordinates            atom    charge  isotop
         -1.54034638   -0.35658509    9.55484877    c      6.000     0
         -2.13653041   -2.70703174    8.27018611    n      7.000     0
         -0.01213374   -4.11582446    7.70341964    c      6.000     0
          2.07617955   -2.69586629    8.37160771    n      7.000     0
          1.40743458   -0.29642717    9.50856012    c      6.000     0
         -2.24382472    1.92347097    8.19817677    n      7.000     0
         -0.18242169    3.23173971    7.30258321    c      6.000     0
          1.96218390    1.92420097    7.97465959    n      7.000     0
          4.62936718   -3.68072088    8.21785940    c      6.000     0
          6.07248186   -2.77500802    6.07378105    n      7.000     0
          7.47391882   -0.42526000    6.03720785    c      6.000     0
          9.00020394   -0.57478817    3.51916592    c      6.000     0
          8.01925996   -2.85569574    2.33360542    n      7.000     0
          6.44782323   -4.20964199    3.92427748    c      6.000     0
          5.95796276    1.84948404    5.70939782    n      7.000     0
          6.64278023    3.20343218    3.58154125    c      6.000     0
          8.37817413    1.77683087    2.25879550    n      7.000     0
         -4.66860091   -3.71105514    8.00027256    c      6.000     0
         -6.07300739   -2.65437395    5.89567852    n      7.000     0
         -6.46388288   -3.98796389    3.68309343    c      6.000     0
         -8.15682031   -2.63181497    2.22639124    n      7.000     0
         -9.11372660   -0.40668172    3.51274520    c      6.000     0
         -7.65377407   -0.42083899    6.07792333    c      6.000     0
         -6.31179980    1.97713730    6.04904075    n      7.000     0
         -6.81797958    3.39284378    3.92495305    c      6.000     0
         -8.39541845    1.99874065    2.39481591    n      7.000     0
         -9.25160876   -3.66223652   -0.06623055    c      6.000     0
         -8.19324119   -2.63126865   -2.37077690    n      7.000     0
         -9.00391952   -0.27155837   -3.51451039    c      6.000     0
         -7.47558462   -0.18885337   -6.03441900    c      6.000     0
         -6.16671494   -2.59348792   -6.06555639    n      7.000     0
         -6.64114921   -4.03105777   -3.93674003    c      6.000     0
         -8.18974330    1.99738988   -2.20247146    n      7.000     0
         -6.36575621    3.31046665   -3.51105295    c      6.000     0
         -5.86211074    2.02157006   -5.71245880    n      7.000     0
         -9.40034344    2.98759031    0.05122859    c      6.000     0
         -4.79268052    2.93480421    8.11136993    c      6.000     0
         -4.35507286    3.10123995   -7.73455647    c      6.000     0
         -1.88832849    1.95273508   -8.01520404    n      7.000     0
         -1.41357127   -0.30583706   -9.51612715    c      6.000     0
          1.53008064   -0.46851092   -9.55868057    c      6.000     0
          2.31215211    1.86417231   -8.35343667    n      7.000     0
          0.29940556    3.28873896   -7.50781805    c      6.000     0
         -2.16540694   -2.66700980   -8.35553899    n      7.000     0
         -0.12818182   -4.12288013   -7.61385777    c      6.000     0
          2.04549248   -2.77054789   -8.14238620    n      7.000     0
          4.90999755    2.70842674   -8.13591275    c      6.000     0
          6.26394438    1.65369726   -5.99988595    n      7.000     0
          6.83796834    3.08175801   -3.88647672    c      6.000     0
          8.36824778    1.62818369   -2.34407696    n      7.000     0
          9.08216401   -0.75585965   -3.50243051    c      6.000     0
          7.62078758   -0.73266591   -6.06575614    c      6.000     0
          8.13308610   -3.00800332   -2.25661023    n      7.000     0
          6.42632628   -4.33376847   -3.71925145    c      6.000     0
          6.06281138   -2.98498872   -5.92320238    n      7.000     0
          4.52841366   -3.92657841   -7.98091968    c      6.000     0
         -4.74964390   -3.56066147   -8.20309554    c      6.000     0
          9.12140625   -3.99424553    0.09430811    c      6.000     0
          9.52352391    2.64184904   -0.07591672    c      6.000     0
          4.47621640    2.98914140    7.70663142    c      6.000     0
          5.59374620   -6.32584406    3.52666946    o      8.000     0
          5.87239539    5.31231685    3.00277539    o      8.000     0
         -0.24735173    5.25090188    6.13802153    o      8.000     0
          6.15859385    5.25612792   -3.48009640    o      8.000     0
          5.46231461   -6.37358100   -3.18805699    o      8.000     0
         -5.88064272   -6.18283128   -3.54127685    o      8.000     0
         -5.38620684    5.31892352   -2.84461136    o      8.000     0
          0.01415348   -6.26171412    6.83212323    o      8.000     0
         -0.22758463   -6.25284053   -6.70900720    o      8.000     0
         -6.04120066    5.54104420    3.49460912    o      8.000     0
         -5.52587064   -6.03427349    3.13827858    o      8.000     0
          0.41765499    5.38354100   -6.52090499    o      8.000     0
          4.47790997   -5.72810630    8.03216433    h      1.000     0
        -11.16875936   -0.51648577    3.71614474    h      1.000     0
         -8.87879717   -0.53585811    7.74010886    h      1.000     0
         -4.64931758    4.97549603    7.85891783    h      1.000     0
         -5.72514850    2.49851671    9.90393221    h      1.000     0
         -4.47882063   -5.73652767    7.66533882    h      1.000     0
         -5.72857192   -3.36480308    9.74308061    h      1.000     0
         11.13780564   -0.86310501   -3.71144953    h      1.000     0
          8.84798272   -0.81269675   -7.72967606    h      1.000     0
          5.91091368    2.22138894   -9.87879904    h      1.000     0
          4.86756224    4.75346927   -7.87814409    h      1.000     0
          5.53476275   -3.61699213   -9.76266932    h      1.000     0
          4.23902705   -5.94257264   -7.65978208    h      1.000     0
          8.65696751   -0.26329233    7.72682805    h      1.000     0
         11.04617755   -0.72622931    3.78610165    h      1.000     0
          9.29879844    4.69005705   -0.14336880    h      1.000     0
         11.52863351    2.13637186   -0.05482681    h      1.000     0
          8.67369385   -6.00606838    0.15368141    h      1.000     0
         11.17138438   -3.71003733    0.13163039    h      1.000     0
         -8.64787207    0.02351953   -7.72470778    h      1.000     0
        -11.05575033   -0.25042670   -3.77045320    h      1.000     0
        -11.42039812    2.56182311   -0.05674885    h      1.000     0
         -9.10091425    5.02682685    0.07860108    h      1.000     0
        -11.29168359   -3.31695351   -0.03908766    h      1.000     0
         -8.86632403   -5.68765520   -0.08143057    h      1.000     0
          2.33539461   -0.59902032  -11.45976698    h      1.000     0
         -2.27078355   -0.11670457  -11.38976169    h      1.000     0
         -4.05151954    5.09023340   -7.28450477    h      1.000     0
         -5.40537017    2.91571817   -9.50906467    h      1.000     0
         -4.67642608   -5.61100110   -8.00312869    h      1.000     0
         -5.73504613   -3.04089665   -9.94516206    h      1.000     0
          5.63978598   -3.18687346    9.95310969    h      1.000     0
          4.25517268    4.98423960    7.23595752    h      1.000     0
          5.47446045    2.77970154    9.50824737    h      1.000     0
          2.27616946   -0.10882612   11.37592455    h      1.000     0
         -2.35539377   -0.33574708   11.45517154    h      1.000     0
 
       center of nuclear mass  :    0.00052018   -0.43678110   -0.00286852
       center of nuclear charge:    0.00037513   -0.43648946   -0.00278733

              +--------------------------------------------------+
              |               basis set information              |
              +--------------------------------------------------+

              we will work with the 1s 3p 5d 7f 9g ... basis set
              ...i.e. with spherical basis functions...

   type   atoms  prim   cont   basis
   ---------------------------------------------------------------------------
    c       36     50     30   cc-pVTZ   [4s3p2d1f|18s5p2d1f]
    n       24     50     30   cc-pVTZ   [4s3p2d1f|18s5p2d1f]
    o       12     50     30   cc-pVTZ   [4s3p2d1f|18s5p2d1f]
    h       36     16     14   cc-pVTZ   [3s2p1d|5s2p1d]
   ---------------------------------------------------------------------------
   total:  108   4176   2664
   ---------------------------------------------------------------------------

   total number of primitive shells          :   86
   total number of contracted shells         :  936
   total number of cartesian basis functions : 3060
   total number of SCF-basis functions       : 2664


 integral neglect threshold       :  0.11E-11
 integral storage threshold THIZE :  0.10E-04
 integral storage threshold THIME :         5


 DENSITY CONVERGENCE CHECK SWITCHED ON !
 SCF CONVERGENCE IF RMS(delta[D]) <     0.1000000000E-06


 symmetry group of the molecule :   c1 

 the group has the following generators :
   c1(z)

    1 symmetry operations found

 there are 1 real representations :   a   

 maximum number of shells which are related by symmetry :  1


    mo occupation :
   irrep   mo's   occupied
    a     2664      258
 
 number of basis functions   :                   2664
 number of occupied orbitals :                    258
 

 automatic virtual orbital shift switched on 
      shift if e(lumo)-e(homo) < 0.10000000    


 keyword $2e-ints_shell_statistics missing in file <control>

 ! One task per shell generated
  No pre-computed optimal task distribution found
  ... using automatic task generation

          ------------------------
          nuclear repulsion energy  :   13457.5478759    
          ------------------------


         -----------------
         -S,T+V- integrals
         -----------------

 1e-integrals will be neglected if expon. factor < 0.109214E-12
 
   Difference densities algorithm switched on.
   The maximal number of linear combinations of
   difference densities is                    20 .

 DIIS switched on: error vector is FDS-SDF
 Max. Iterations for DIIS is     :   5
 DIIS matrix (see manual) 
    Scaling factor of diagonals  :  1.200
    threshold for scaling factor :  0.000

 scf convergence criterion : increment of total energy < .1000000D-06
                  and increment of one-electron energy < .1000000D-03

  MOs are in ASCII format !


 reading orbital data $scfmo  from file mos
 orbital characterization : expanded
 mo provided and orthogonalized by Cholesky decomposition

 DSCF restart information will be dumped onto file mos

 
                                              current damping :  0.300
 ITERATION  ENERGY          1e-ENERGY        2e-ENERGY     RMS[dD(SAO)]   TOL
   1  -3576.1216238881    -31655.979003     14622.309503    0.000D+00 0.109D-11
          max. resid. norm for Fia-block=  4.355D-01 for orbital    186a         
          max. resid. fock norm         =  4.281D+00 for orbital   2592a         
          Delta Eig. =   256.7410777025 eV 
 
                                              current damping :  0.250
 ITERATION  ENERGY          1e-ENERGY        2e-ENERGY     RMS[dD(SAO)]   TOL
   2  -3589.5863646150    -31739.366798     14692.232558    0.241D-02 0.736D-12
          Norm of current diis error:  5.4382    
          max. resid. norm for Fia-block=  1.306D-01 for orbital      2a         
          max. resid. fock norm         =  4.365D-01 for orbital   2653a         
          Delta Eig. =    64.8672626388 eV 
 
                                              current damping :  0.150
 ITERATION  ENERGY          1e-ENERGY        2e-ENERGY     RMS[dD(SAO)]   TOL
   3  -3590.6383291098    -31746.408786     14698.222581    0.766D-03 0.595D-12
          Norm of current diis error:  2.0560    
          max. resid. norm for Fia-block=  4.453D-02 for orbital    235a         
          max. resid. fock norm         =  4.652D-02 for orbital    235a         
          Delta Eig. =    15.0784237944 eV 
 
                                              current damping :  0.100
 ITERATION  ENERGY          1e-ENERGY        2e-ENERGY     RMS[dD(SAO)]   TOL
   4  -3590.8417484066    -31754.331046     14705.941422    0.471D-03 0.507D-12
          Norm of current diis error: 0.63287    
          max. resid. norm for Fia-block=  1.393D-02 for orbital     87a         
          max. resid. fock norm         =  2.766D-02 for orbital   2622a         
          Delta Eig. =     2.2137670965 eV 
 
                                              current damping :  0.150
 ITERATION  ENERGY          1e-ENERGY        2e-ENERGY     RMS[dD(SAO)]   TOL
   5  -3590.8629449441    -31751.839066     14703.428245    0.162D-03 0.472D-12
          Norm of current diis error: 0.17819    
          max. resid. norm for Fia-block=  4.045D-03 for orbital    242a         
          max. resid. fock norm         =  5.128D-03 for orbital    242a         
 mo-orthogonalization: Cholesky decomposition
          Delta Eig. =     0.3560603380 eV 
 
                                              current damping :  0.200
 ITERATION  ENERGY          1e-ENERGY        2e-ENERGY     RMS[dD(SAO)]   TOL
   6  -3590.8649362939    -31753.406376     14704.993563    0.464D-04 0.450D-12
          Norm of current diis error: 0.55685E-01
          max. resid. norm for Fia-block=  1.670D-03 for orbital    243a         
          max. resid. fock norm         =  1.774D-03 for orbital    243a         
          Delta Eig. =     0.0825247136 eV 
 
                                              current damping :  0.250
 ITERATION  ENERGY          1e-ENERGY        2e-ENERGY     RMS[dD(SAO)]   TOL
   7  -3590.8652198582    -31753.097653     14704.684557    0.237D-04 0.431D-12
          Norm of current diis error: 0.22967E-01
          max. resid. norm for Fia-block=  8.206D-04 for orbital    243a         
          max. resid. fock norm         =  8.434D-04 for orbital    243a         
          Delta Eig. =     0.0225081002 eV 
 
                                              current damping :  0.300
 ITERATION  ENERGY          1e-ENERGY        2e-ENERGY     RMS[dD(SAO)]   TOL
   8  -3590.8652814573    -31753.162704     14704.749546    0.997D-05 0.411D-12
          Norm of current diis error: 0.91949E-02
          max. resid. norm for Fia-block=  4.549D-04 for orbital    235a         
          max. resid. fock norm         =  4.581D-04 for orbital    241a         
          Delta Eig. =     0.0041757574 eV 
 
                                              current damping :  0.350
 ITERATION  ENERGY          1e-ENERGY        2e-ENERGY     RMS[dD(SAO)]   TOL
   9  -3590.8652938087    -31753.161602     14704.748432    0.449D-05 0.394D-12
          Norm of current diis error: 0.39722E-02
          max. resid. norm for Fia-block=  2.209D-04 for orbital    235a         
          max. resid. fock norm         =  2.220D-04 for orbital    235a         
          Delta Eig. =     0.0028600536 eV 
 
                                              current damping :  0.400
 ITERATION  ENERGY          1e-ENERGY        2e-ENERGY     RMS[dD(SAO)]   TOL
  10  -3590.8652962628    -31753.166158     14704.752986    0.161D-05 0.379D-12
          Norm of current diis error: 0.19167E-02
          max. resid. norm for Fia-block=  1.066D-04 for orbital    235a         
          max. resid. fock norm         =  1.092D-04 for orbital    236a         
 mo-orthogonalization: Cholesky decomposition
          Delta Eig. =     0.0021970976 eV 
 
                                              current damping :  0.450
 ITERATION  ENERGY          1e-ENERGY        2e-ENERGY     RMS[dD(SAO)]   TOL
  11  -3590.8652968357    -31753.162790     14704.749617    0.726D-06 0.363D-12
          Norm of current diis error: 0.85706E-03
          max. resid. norm for Fia-block=  5.956D-05 for orbital    235a         
          max. resid. fock norm         =  6.017D-05 for orbital    235a         
          Delta Eig. =     0.0004456880 eV 
 
                                              current damping :  0.500
 ITERATION  ENERGY          1e-ENERGY        2e-ENERGY     RMS[dD(SAO)]   TOL
  12  -3590.8652969672    -31753.165667     14704.752494    0.249D-06 0.350D-12
          Norm of current diis error: 0.49205E-03
          max. resid. norm for Fia-block=  3.025D-05 for orbital    235a         
          max. resid. fock norm         =  3.128D-05 for orbital    230a         
          Delta Eig. =     0.0005396729 eV 
 
                                              current damping :  0.550
 ITERATION  ENERGY          1e-ENERGY        2e-ENERGY     RMS[dD(SAO)]   TOL
  13  -3590.8652970126    -31753.164654     14704.751481    0.150D-06 0.337D-12
          Norm of current diis error: 0.21650E-03
          max. resid. norm for Fia-block=  1.609D-05 for orbital    235a         
          max. resid. fock norm         =  1.617D-05 for orbital    235a         
          Delta Eig. =     0.0001400827 eV 

 DENSITY CONVERGED !

 
                                              current damping :  0.600
 ITERATION  ENERGY          1e-ENERGY        2e-ENERGY     RMS[dD(SAO)]   TOL
  14  -3590.8652970374    -31753.164898     14704.751725    0.682D-07 0.327D-12
          Norm of current diis error: 0.10679E-03
          max. resid. norm for Fia-block=  7.636D-06 for orbital    235a         
          max. resid. fock norm         =  7.669D-06 for orbital    235a         
          Delta Eig. =     0.0000718611 eV 

 ENERGY & DENSITY CONVERGED !

 
                                              current damping :  0.650
 ITERATION  ENERGY          1e-ENERGY        2e-ENERGY     RMS[dD(SAO)]   TOL
  15  -3590.8652970427    -31753.164844     14704.751671    0.345D-07 0.317D-12
          max. resid. norm for Fia-block=  1.593D-06 for orbital    235a         
          max. resid. fock norm         =  1.608D-06 for orbital    235a         

 convergence criteria satisfied after    15 iterations


                  ------------------------------------------ 
                 |  total energy      =  -3590.86529704272  |
                  ------------------------------------------ 
                 :  kinetic energy    =   3583.80670370868  :
                 :  potential energy  =  -7174.67200075140  :
                 :  virial theorem    =      1.99803429181  :
                 :  wavefunction norm =      1.00000000000  :
                  .......................................... 


 <geterg> : there is no data group $energy 


 <skperg> : $end is missing 


 orbitals $scfmo  will be written to file mos

    irrep                254a        255a        256a        257a        258a   
 eigenvalues H         -0.39120    -0.38790    -0.38716    -0.38324    -0.38167
            eV         -10.6452    -10.5553    -10.5352    -10.4286    -10.3858
 occupation              2.0000      2.0000      2.0000      2.0000      2.0000 

    irrep                259a        260a        261a        262a        263a   
 eigenvalues H          0.10506     0.10798     0.10801     0.11564     0.11568
            eV           2.8589      2.9383      2.9392      3.1468      3.1477
 
 
 
 
 ==============================================================================
                           electrostatic moments
 ==============================================================================

 reference point for electrostatic moments:    0.00000   0.00000   0.00000

 
              nuc           elec       ->  total
 ------------------------------------------------------------------------------
                          charge      
 ------------------------------------------------------------------------------
         516.000000    -516.000000      -0.000000
 
 ------------------------------------------------------------------------------
                       dipole moment  
 ------------------------------------------------------------------------------
   x       0.193565      -0.249336      -0.055771
   y    -225.228559     225.201556      -0.027003
   z      -1.438263       1.469487       0.031224
 
   | dipole moment | =     0.0694 a.u. =     0.1764 debye 
 
 ------------------------------------------------------------------------------
                     quadrupole moment
 ------------------------------------------------------------------------------
  xx   18905.294333  -19103.415709    -198.121375
  yy    6453.799214   -6855.916995    -402.117781
  zz   18650.553673  -18848.716317    -198.162645
  xy    -225.795347     222.518776      -3.276571
  xz    -269.836226     269.791007      -0.045219
  yz      39.263823     -38.811950       0.451872
 
     1/3  trace=    -266.133934
     anisotropy=     204.056225
 
 ==============================================================================
 

    dscf profiling
  --------------------------------------------------------------------
             module   cpu total (s)       %  wall total (s)       %

          dscf.total          5530.0  100.00          4961.7  100.00
        dscf.prepare            23.1    0.42            23.2    0.47
      prepare.oneint             0.3    0.00             0.3    0.01
     prepare.moinput             0.6    0.01             0.6    0.01
     moinput_orthmos            22.0    0.40            22.0    0.44
            dscf.scf          5505.2   99.55          4936.6   99.49
             scf.pre             0.0    0.00             0.0    0.00
        scf.makedmat            15.4    0.28            15.6    0.31
          scf.shloop          4421.7   79.96          4418.1   89.04
          shloop_omp          4420.5   79.94          4416.9   89.02
          scf.symcar             1.6    0.03             1.6    0.03
        scf.makefock             3.3    0.06             3.9    0.08
          scf.newerg             0.2    0.00             0.2    0.00
          scf.newcnv           186.8    3.38            23.6    0.48
           scf.fdiag           419.2    7.58            52.5    1.06
         diag_tritrn           122.3    2.21            15.3    0.31
          diag_rdiag           290.4    5.25            36.4    0.73
          scf.modump           395.8    7.16           379.3    7.64
           ortho_all            30.9    0.56            14.0    0.28
            scf.post            28.6    0.52            27.5    0.55
        dscf.postscf             1.6    0.03             1.8    0.04
 


    ------------------------------------------------------------------------
         total  cpu-time :  1 hours 32 minutes and 10 seconds
         total wall-time :  1 hours 22 minutes and 42 seconds
    ------------------------------------------------------------------------

   ****  dscf : all done  ****


    2018-02-19 20:55:55.084 

