
   OpenMP run-time library returned nthreads = 16
 operating system is UNIX !

 dscf (c-3-41) : TURBOMOLE V7.3 ( 22142 ) 4 Jul 2018 at 18:12:42
 Copyright (C) 2018 TURBOMOLE GmbH, Karlsruhe


    2019-04-02 17:31:08.574 



                             d s c f - program

                   idea & directorship : reinhart ahlrichs
                   program development : marco haeser
                                         michael baer
                           dft version : oliver treutler


                          quantum chemistry group
                          universitaet  karlsruhe
                                  germany




                          References             
                                                 
          TURBOMOLE:                             
              R. Ahlrichs, M. Baer, M. Haeser, H. Horn, and
              C. Koelmel
              Electronic structure calculations on workstation
              computers: the program system TURBOMOLE
              Chem. Phys. Lett. 162: 165 (1989)
          Density Functional:                              
              O. Treutler and R. Ahlrichs                      
              Efficient Molecular Numerical Integration Schemes
              J. Chem. Phys. 102: 346 (1995)                   
          Parallel Version:                                
              Performance of parallel TURBOMOLE for Density    
              Functional Calculations                          
              M. v. Arnim and R. Ahlrichs                      
              J. Comp. Chem. 19: 1746 (1998)                   
                                         




              +--------------------------------------------------+
              | Atomic coordinate, charge and isotop information |
              +--------------------------------------------------+

                    atomic coordinates            atom    charge  isotop
         -2.00633963    2.45124044    0.55191342    c      6.000     0
         -0.67682642    4.29054497    1.00498030    o      8.000     0
         -1.11362225    0.17936857    0.00715982    o      8.000     0
          0.76427263    0.24136077    0.03479333    h      1.000     0
         -4.83472787    2.53705149    0.55984520    c      6.000     0
         -5.47264306    4.43606407    0.97947593    h      1.000     0
         -5.54235751    1.93203795   -1.27177728    h      1.000     0
         -5.55052620    1.21870410    1.96447819    h      1.000     0
          5.27110465    2.09460881    0.51246303    c      6.000     0
          3.94145864    0.25531098    0.05933014    o      8.000     0
          4.37834826    4.36688238    1.05628553    o      8.000     0
          2.50036009    4.30471373    1.02907252    h      1.000     0
          8.09948128    2.00786519    0.50875087    c      6.000     0
          8.73741420    0.11564614    0.05989273    h      1.000     0
          8.82040905    3.35023770   -0.86974557    h      1.000     0
          8.80154536    2.57987493    2.35322819    h      1.000     0
 
       center of nuclear mass  :    1.63235355    2.27284584    0.53266127
       center of nuclear charge:    1.63235080    2.27281391    0.53280155

              +--------------------------------------------------+
              |               basis set information              |
              +--------------------------------------------------+

              we will work with the 1s 3p 5d 7f 9g ... basis set
              ...i.e. with spherical basis functions...

   type   atoms  prim   cont   basis
   ---------------------------------------------------------------------------
    c        4     77     57   def2-QZVP   [7s4p3d2f1g|15s8p3d2f1g]
    o        4     77     57   def2-QZVP   [7s4p3d2f1g|15s8p3d2f1g]
    h        8     33     30   def2-QZVP   [4s3p2d1f|7s3p2d1f]
   ---------------------------------------------------------------------------
   total:   16    880    696
   ---------------------------------------------------------------------------

   total number of primitive shells          :   71
   total number of contracted shells         :  216
   total number of cartesian basis functions :  856
   total number of SCF-basis functions       :  696


 integral neglect threshold       :  0.39E-13
 integral storage threshold THIZE :  0.10E-04
 integral storage threshold THIME :         5


 DENSITY CONVERGENCE CHECK SWITCHED ON !
 SCF CONVERGENCE IF RMS(delta[D]) <     0.1000000000E-06


 symmetry group of the molecule :   c1 

 the group has the following generators :
   c1(z)

    1 symmetry operations found

 there are 1 real representations :   a   

 maximum number of shells which are related by symmetry :  1


    mo occupation :
   irrep   mo's   occupied
    a      696       32
 
 number of basis functions   :                    696
 number of occupied orbitals :                     32
 

 automatic virtual orbital shift switched on 
      shift if e(lumo)-e(homo) < 0.10000000    


          ------------------------
          nuclear repulsion energy  :   381.474676136    
          ------------------------


         -----------------
         -S,T+V- integrals
         -----------------

 1e-integrals will be neglected if expon. factor < 0.390416E-14
 
   Difference densities algorithm switched on.
   The maximal number of linear combinations of
   difference densities is                    20 .

 DIIS switched on: error vector is FDS-SDF
 Max. Iterations for DIIS is     :   5
 DIIS matrix (see manual) 
    Scaling factor of diagonals  :  1.200
    threshold for scaling factor :  0.000

 scf convergence criterion : increment of total energy < .1000000D-08
                  and increment of one-electron energy < .1000000D-05

  MOs are in ASCII format !


 reading orbital data $scfmo  from file mos
 orbital characterization : scfconv=9

 DSCF restart information will be dumped onto file mos

 
                                              current damping :  0.700
 ITERATION  ENERGY          1e-ENERGY        2e-ENERGY     RMS[dD(SAO)]   TOL
   1  -455.75677477705    -1382.5306471     545.29919622    0.000D+00 0.389D-13
          max. resid. norm for Fia-block=  2.612D-01 for orbital      3a         
          max. resid. fock norm         =  8.025D-01 for orbital    696a         
          Delta Eig. =    62.2335040595 eV 
 
                                              current damping :  0.650
 ITERATION  ENERGY          1e-ENERGY        2e-ENERGY     RMS[dD(SAO)]   TOL
   2  -455.84213652614    -1381.8225833     544.50577066    0.593D-03 0.251D-13
          Norm of current diis error: 0.87467    
          max. resid. norm for Fia-block=  1.132D-01 for orbital      2a         
          max. resid. fock norm         =  3.303D-01 for orbital    694a         
          Delta Eig. =    26.7047951689 eV 
 
                                              current damping :  0.600
 ITERATION  ENERGY          1e-ENERGY        2e-ENERGY     RMS[dD(SAO)]   TOL
   3  -455.85955325917    -1381.8919465     544.55771708    0.284D-03 0.191D-13
          Norm of current diis error: 0.38393    
          max. resid. norm for Fia-block=  4.726D-02 for orbital      3a         
          max. resid. fock norm         =  1.295D-01 for orbital    696a         
          Delta Eig. =    10.5877375684 eV 
 
                                              current damping :  0.450
 ITERATION  ENERGY          1e-ENERGY        2e-ENERGY     RMS[dD(SAO)]   TOL
   4  -455.86350821714    -1381.9346557     544.59647131    0.133D-03 0.168D-13
          Norm of current diis error: 0.15549    
          max. resid. norm for Fia-block=  1.753D-02 for orbital      2a         
          max. resid. fock norm         =  4.928D-02 for orbital    693a         
          Delta Eig. =     4.6164268857 eV 
 
                                              current damping :  0.500
 ITERATION  ENERGY          1e-ENERGY        2e-ENERGY     RMS[dD(SAO)]   TOL
   5  -455.86427259739    -1381.9088735     544.56992473    0.586D-04 0.155D-13
          Norm of current diis error: 0.56676E-01
          max. resid. norm for Fia-block=  5.516D-03 for orbital      3a         
          max. resid. fock norm         =  1.522D-02 for orbital    696a         
 mo-orthogonalization: Cholesky decomposition
          Delta Eig. =     1.3564083411 eV 
 
                                              current damping :  0.550
 ITERATION  ENERGY          1e-ENERGY        2e-ENERGY     RMS[dD(SAO)]   TOL
   6  -455.86439073404    -1381.9138213     544.57475444    0.212D-04 0.147D-13
          Norm of current diis error: 0.23121E-01
          max. resid. norm for Fia-block=  1.829D-03 for orbital     22a         
          max. resid. fock norm         =  5.093D-03 for orbital    693a         
          Delta Eig. =     0.4480287581 eV 
 
                                              current damping :  0.400
 ITERATION  ENERGY          1e-ENERGY        2e-ENERGY     RMS[dD(SAO)]   TOL
   7  -455.86441392354    -1381.9139443     544.57485427    0.822D-05 0.140D-13
          Norm of current diis error: 0.10534E-01
          max. resid. norm for Fia-block=  9.336D-04 for orbital     21a         
          max. resid. fock norm         =  1.796D-03 for orbital    696a         
          Delta Eig. =     0.1753940519 eV 
 
                                              current damping :  0.250
 ITERATION  ENERGY          1e-ENERGY        2e-ENERGY     RMS[dD(SAO)]   TOL
   8  -455.86441997473    -1381.9145564     544.57546026    0.427D-05 0.132D-13
          Norm of current diis error: 0.43252E-02
          max. resid. norm for Fia-block=  4.241D-04 for orbital     21a         
          max. resid. fock norm         =  5.163D-04 for orbital    693a         
          Delta Eig. =     0.0578029859 eV 
 
                                              current damping :  0.100
 ITERATION  ENERGY          1e-ENERGY        2e-ENERGY     RMS[dD(SAO)]   TOL
   9  -455.86442127488    -1381.9148701     544.57577271    0.207D-05 0.125D-13
          Norm of current diis error: 0.15537E-02
          max. resid. norm for Fia-block=  1.583D-04 for orbital     21a         
          max. resid. fock norm         =  1.587D-04 for orbital     21a         
          Delta Eig. =     0.0144913494 eV 
 
                                              current damping :  0.050
 ITERATION  ENERGY          1e-ENERGY        2e-ENERGY     RMS[dD(SAO)]   TOL
  10  -455.86442147410    -1381.9151194     544.57602178    0.893D-06 0.118D-13
          Norm of current diis error: 0.47013E-03
          max. resid. norm for Fia-block=  4.259D-05 for orbital     30a         
          max. resid. fock norm         =  5.150D-05 for orbital     30a         
 mo-orthogonalization: Cholesky decomposition
          Delta Eig. =     0.0032862032 eV 
 
                                              current damping :  0.100
 ITERATION  ENERGY          1e-ENERGY        2e-ENERGY     RMS[dD(SAO)]   TOL
  11  -455.86442149257    -1381.9150889     544.57599123    0.286D-06 0.113D-13
          Norm of current diis error: 0.23521E-03
          max. resid. norm for Fia-block=  1.398D-05 for orbital     31a         
          max. resid. fock norm         =  2.741D-05 for orbital    693a         
          Delta Eig. =     0.0012039233 eV 

 DENSITY CONVERGED !

 
                                              current damping :  0.150
 ITERATION  ENERGY          1e-ENERGY        2e-ENERGY     RMS[dD(SAO)]   TOL
  12  -455.86442149516    -1381.9151426     544.57604494    0.884D-07 0.109D-13
          Norm of current diis error: 0.76679E-04
          max. resid. norm for Fia-block=  8.155D-06 for orbital     30a         
          max. resid. fock norm         =  9.109D-06 for orbital     30a         
          Delta Eig. =     0.0002507790 eV 

 DENSITY CONVERGED !

 
                                              current damping :  0.200
 ITERATION  ENERGY          1e-ENERGY        2e-ENERGY     RMS[dD(SAO)]   TOL
  13  -455.86442149565    -1381.9151335     544.57603585    0.430D-07 0.105D-13
          Norm of current diis error: 0.29114E-04
          max. resid. norm for Fia-block=  3.044D-06 for orbital     30a         
          max. resid. fock norm         =  3.087D-06 for orbital     30a         
          Delta Eig. =     0.0000489373 eV 

 ENERGY & DENSITY CONVERGED !

 
                                              current damping :  0.250
 ITERATION  ENERGY          1e-ENERGY        2e-ENERGY     RMS[dD(SAO)]   TOL
  14  -455.86442149573    -1381.9151351     544.57603749    0.175D-07 0.111D-13
          max. resid. norm for Fia-block=  8.293D-07 for orbital     30a         
          max. resid. fock norm         =  8.324D-07 for orbital     30a         

 convergence criteria satisfied after    14 iterations


                  ------------------------------------------ 
                 |  total energy      =   -455.86442149573  |
                  ------------------------------------------ 
                 :  kinetic energy    =    455.33958525308  :
                 :  potential energy  =   -911.20400674881  :
                 :  virial theorem    =      1.99884870102  :
                 :  wavefunction norm =      1.00000000000  :
                  .......................................... 


 orbitals $scfmo  will be written to file mos

    irrep                 28a         29a         30a         31a         32a   
 eigenvalues H         -0.55753    -0.49296    -0.48187    -0.47403    -0.45552
            eV         -15.1712    -13.4143    -13.1125    -12.8990    -12.3953
 occupation              2.0000      2.0000      2.0000      2.0000      2.0000 

    irrep                 33a         34a         35a         36a         37a   
 eigenvalues H          0.10364     0.10897     0.14404     0.15183     0.15640
            eV           2.8203      2.9653      3.9196      4.1314      4.2558
 
 
 
 
 ==============================================================================
                           electrostatic moments
 ==============================================================================

 reference point for electrostatic moments:    0.00000   0.00000   0.00000

 
              nuc           elec       ->  total
 ------------------------------------------------------------------------------
                          charge      
 ------------------------------------------------------------------------------
          64.000000     -64.000000      -0.000000
 
 ------------------------------------------------------------------------------
                       dipole moment  
 ------------------------------------------------------------------------------
   x     104.470451    -104.470326       0.000125
   y     145.460090    -145.460576      -0.000486
   z      34.099299     -34.097675       0.001624
 
   | dipole moment | =     0.0017 a.u. =     0.0043 debye 
 
 ------------------------------------------------------------------------------
                     quadrupole moment
 ------------------------------------------------------------------------------
  xx    1345.864054   -1368.464668     -22.600614
  yy     487.169781    -528.195185     -41.025405
  zz      37.665145     -72.315434     -34.650288
  xy     219.362291    -219.614454      -0.252163
  xz      58.358656     -58.357021       0.001635
  yz     112.621386    -114.256204      -1.634818
 
     1/3  trace=     -32.758769
     anisotropy=      16.457931
 
 ==============================================================================
 


    ------------------------------------------------------------------------
         total  cpu-time :  1 hours 21 minutes and 46 seconds
         total wall-time :  5 minutes and 19 seconds
    ------------------------------------------------------------------------

   ****  dscf : all done  ****


    2019-04-02 17:36:27.952 

