
   OpenMP run-time library returned nthreads = 28
 operating system is UNIX !

 dscf (c-16-37) : TURBOMOLE V7.3 ( 22142 ) 4 Jul 2018 at 18:12:42
 Copyright (C) 2018 TURBOMOLE GmbH, Karlsruhe


    2019-04-01 22:05:30.315 



                             d s c f - program

                   idea & directorship : reinhart ahlrichs
                   program development : marco haeser
                                         michael baer
                           dft version : oliver treutler


                          quantum chemistry group
                          universitaet  karlsruhe
                                  germany




                          References             
                                                 
          TURBOMOLE:                             
              R. Ahlrichs, M. Baer, M. Haeser, H. Horn, and
              C. Koelmel
              Electronic structure calculations on workstation
              computers: the program system TURBOMOLE
              Chem. Phys. Lett. 162: 165 (1989)
          Density Functional:                              
              O. Treutler and R. Ahlrichs                      
              Efficient Molecular Numerical Integration Schemes
              J. Chem. Phys. 102: 346 (1995)                   
          Parallel Version:                                
              Performance of parallel TURBOMOLE for Density    
              Functional Calculations                          
              M. v. Arnim and R. Ahlrichs                      
              J. Comp. Chem. 19: 1746 (1998)                   
                                         




              +--------------------------------------------------+
              | Atomic coordinate, charge and isotop information |
              +--------------------------------------------------+

                    atomic coordinates            atom    charge  isotop
          1.54720758    1.63304905    0.35580919    c      6.000     0
          2.77055320    3.24403175    0.65142905    h      1.000     0
          2.58702963   -0.73798330   -0.12604130    c      6.000     0
          4.61666967   -0.96727888   -0.20895541    h      1.000     0
          1.00982921   -2.81284449   -0.51379393    c      6.000     0
          1.81574005   -4.65168223   -0.89857893    h      1.000     0
         -1.60459596   -2.51429450   -0.41554404    c      6.000     0
         -2.82905121   -4.12311840   -0.71725162    h      1.000     0
         -2.64464424   -0.14367626    0.07640950    c      6.000     0
         -4.67270062    0.08486340    0.17646651    h      1.000     0
         -1.06824764    1.93017262    0.45784135    c      6.000     0
         -1.87566028    3.76747387    0.84330572    h      1.000     0
 
       center of nuclear mass  :   -0.02891683   -0.44093120   -0.02740178
       center of nuclear charge:   -0.02892804   -0.44093266   -0.02727381

              +--------------------------------------------------+
              |               basis set information              |
              +--------------------------------------------------+

              we will work with the 1s 3p 5d 7f 9g ... basis set
              ...i.e. with spherical basis functions...

   type   atoms  prim   cont   basis
   ---------------------------------------------------------------------------
    c        6     50     30   cc-pVTZ   [4s3p2d1f|18s5p2d1f]
    h        6     16     14   cc-pVTZ   [3s2p1d|5s2p1d]
   ---------------------------------------------------------------------------
   total:   12    396    264
   ---------------------------------------------------------------------------

   total number of primitive shells          :   34
   total number of contracted shells         :   96
   total number of cartesian basis functions :  300
   total number of SCF-basis functions       :  264


 integral neglect threshold       :  0.11E-12
 integral storage threshold THIZE :  0.10E-04
 integral storage threshold THIME :         5


 DENSITY CONVERGENCE CHECK SWITCHED ON !
 SCF CONVERGENCE IF RMS(delta[D]) <     0.1000000000E-06


 symmetry group of the molecule :   c1 

 the group has the following generators :
   c1(z)

    1 symmetry operations found

 there are 1 real representations :   a   

 maximum number of shells which are related by symmetry :  1


    mo occupation :
   irrep   mo's   occupied
    a      264       21
 
 number of basis functions   :                    264
 number of occupied orbitals :                     21
 

 automatic virtual orbital shift switched on 
      shift if e(lumo)-e(homo) < 0.10000000    


          ------------------------
          nuclear repulsion energy  :   203.684223815    
          ------------------------


         -----------------
         -S,T+V- integrals
         -----------------

 1e-integrals will be neglected if expon. factor < 0.111399E-13
 
   Difference densities algorithm switched on.
   The maximal number of linear combinations of
   difference densities is                    20 .

 DIIS switched on: error vector is FDS-SDF
 Max. Iterations for DIIS is     :   5
 DIIS matrix (see manual) 
    Scaling factor of diagonals  :  1.200
    threshold for scaling factor :  0.000

 scf convergence criterion : increment of total energy < .1000000D-08
                  and increment of one-electron energy < .1000000D-05

  MOs are in ASCII format !


 reading orbital data $scfmo  from file mos
 orbital characterization : scfconv=9

 DSCF restart information will be dumped onto file mos

 
                                              current damping :  0.700
 ITERATION  ENERGY          1e-ENERGY        2e-ENERGY     RMS[dD(SAO)]   TOL
   1  -230.73081165356    -714.78590755     280.37087208    0.000D+00 0.111D-12
          max. resid. norm for Fia-block=  9.394D-02 for orbital      6a         
          max. resid. fock norm         =  1.605D-01 for orbital    264a         
          Delta Eig. =    20.8288646643 eV 
 
                                              current damping :  0.650
 ITERATION  ENERGY          1e-ENERGY        2e-ENERGY     RMS[dD(SAO)]   TOL
   2  -230.76968549888    -713.90679600     279.45288669    0.118D-02 0.708D-13
          Norm of current diis error: 0.41744    
          max. resid. norm for Fia-block=  4.557D-02 for orbital      6a         
          max. resid. fock norm         =  5.495D-02 for orbital    264a         
          Delta Eig. =     9.7690888493 eV 
 
                                              current damping :  0.600
 ITERATION  ENERGY          1e-ENERGY        2e-ENERGY     RMS[dD(SAO)]   TOL
   3  -230.77749675777    -714.01199658     279.55027601    0.582D-03 0.536D-13
          Norm of current diis error: 0.18613    
          max. resid. norm for Fia-block=  1.878D-02 for orbital      6a         
          max. resid. fock norm         =  2.319D-02 for orbital    264a         
          Delta Eig. =     3.7380170585 eV 
 
                                              current damping :  0.650
 ITERATION  ENERGY          1e-ENERGY        2e-ENERGY     RMS[dD(SAO)]   TOL
   4  -230.77913061285    -713.92791333     279.46455890    0.262D-03 0.470D-13
          Norm of current diis error: 0.75020E-01
          max. resid. norm for Fia-block=  7.040D-03 for orbital      6a         
          max. resid. fock norm         =  8.512D-03 for orbital    264a         
          Delta Eig. =     1.3731114248 eV 
 
                                              current damping :  0.500
 ITERATION  ENERGY          1e-ENERGY        2e-ENERGY     RMS[dD(SAO)]   TOL
   5  -230.77939450707    -713.91393171     279.45031339    0.104D-03 0.434D-13
          Norm of current diis error: 0.31526E-01
          max. resid. norm for Fia-block=  2.727D-03 for orbital      6a         
          max. resid. fock norm         =  3.393D-03 for orbital    264a         
 mo-orthogonalization: Cholesky decomposition
          Delta Eig. =     0.5882291566 eV 
 
                                              current damping :  0.350
 ITERATION  ENERGY          1e-ENERGY        2e-ENERGY     RMS[dD(SAO)]   TOL
   6  -230.77944452180    -713.90580699     279.44213865    0.484D-04 0.402D-13
          Norm of current diis error: 0.11418E-01
          max. resid. norm for Fia-block=  1.001D-03 for orbital     14a         
          max. resid. fock norm         =  1.141D-03 for orbital    264a         
          Delta Eig. =     0.2159433725 eV 
 
                                              current damping :  0.200
 ITERATION  ENERGY          1e-ENERGY        2e-ENERGY     RMS[dD(SAO)]   TOL
   7  -230.77945164300    -713.90237951     279.43870405    0.198D-04 0.373D-13
          Norm of current diis error: 0.33535E-02
          max. resid. norm for Fia-block=  3.056D-04 for orbital     14a         
          max. resid. fock norm         =  3.056D-04 for orbital     14a         
          Delta Eig. =     0.0635528392 eV 
 
                                              current damping :  0.050
 ITERATION  ENERGY          1e-ENERGY        2e-ENERGY     RMS[dD(SAO)]   TOL
   8  -230.77945232502    -713.90166562     279.43798948    0.680D-05 0.343D-13
          Norm of current diis error: 0.72038E-03
          max. resid. norm for Fia-block=  6.595D-05 for orbital     14a         
          max. resid. fock norm         =  6.595D-05 for orbital     14a         
          Delta Eig. =     0.0116064014 eV 
 
                                              current damping :  0.050
 ITERATION  ENERGY          1e-ENERGY        2e-ENERGY     RMS[dD(SAO)]   TOL
   9  -230.77945236328    -713.90130453     279.43762835    0.185D-05 0.320D-13
          Norm of current diis error: 0.11029E-03
          max. resid. norm for Fia-block=  1.074D-05 for orbital     14a         
          max. resid. fock norm         =  1.075D-05 for orbital     14a         
          Delta Eig. =     0.0006720115 eV 
 
                                              current damping :  0.100
 ITERATION  ENERGY          1e-ENERGY        2e-ENERGY     RMS[dD(SAO)]   TOL
  10  -230.77945236444    -713.90136240     279.43768622    0.339D-06 0.307D-13
          Norm of current diis error: 0.29800E-04
          max. resid. norm for Fia-block=  3.532D-06 for orbital     21a         
          max. resid. fock norm         =  3.532D-06 for orbital     21a         
 mo-orthogonalization: Cholesky decomposition
          Delta Eig. =     0.0000862969 eV 

 DENSITY CONVERGED !

 
                                              current damping :  0.150
 ITERATION  ENERGY          1e-ENERGY        2e-ENERGY     RMS[dD(SAO)]   TOL
  11  -230.77945236453    -713.90131667     279.43764049    0.845D-07 0.299D-13
          Norm of current diis error: 0.12684E-04
          max. resid. norm for Fia-block=  1.138D-06 for orbital     20a         
          max. resid. fock norm         =  1.138D-06 for orbital     20a         
          Delta Eig. =     0.0000332977 eV 

 DENSITY CONVERGED !

 
                                              current damping :  0.200
 ITERATION  ENERGY          1e-ENERGY        2e-ENERGY     RMS[dD(SAO)]   TOL
  12  -230.77945236455    -713.90133361     279.43765743    0.271D-07 0.293D-13
          Norm of current diis error: 0.53301E-05
          max. resid. norm for Fia-block=  7.629D-07 for orbital     21a         
          max. resid. fock norm         =  7.629D-07 for orbital     21a         
          Delta Eig. =     0.0000056831 eV 

 ENERGY & DENSITY CONVERGED !

 
                                              current damping :  0.250
 ITERATION  ENERGY          1e-ENERGY        2e-ENERGY     RMS[dD(SAO)]   TOL
  13  -230.77945236456    -713.90133102     279.43765484    0.123D-07 0.317D-13
          max. resid. norm for Fia-block=  3.098D-07 for orbital     20a         
          max. resid. fock norm         =  3.098D-07 for orbital     20a         

 convergence criteria satisfied after    13 iterations


                  ------------------------------------------ 
                 |  total energy      =   -230.77945236456  |
                  ------------------------------------------ 
                 :  kinetic energy    =    230.45440691210  :
                 :  potential energy  =   -461.23385927667  :
                 :  virial theorem    =      1.99859153209  :
                 :  wavefunction norm =      1.00000000000  :
                  .......................................... 


 orbitals $scfmo  will be written to file mos

    irrep                 17a         18a         19a         20a         21a   
 eigenvalues H         -0.50080    -0.49332    -0.49292    -0.33529    -0.33518
            eV         -13.6274    -13.4240    -13.4132     -9.1239     -9.1207
 occupation              2.0000      2.0000      2.0000      2.0000      2.0000 

    irrep                 22a         23a         24a         25a         26a   
 eigenvalues H          0.12854     0.12863     0.14608     0.16995     0.17001
            eV           3.4979      3.5003      3.9752      4.6247      4.6263
 
 
 
 
 ==============================================================================
                           electrostatic moments
 ==============================================================================

 reference point for electrostatic moments:    0.00000   0.00000   0.00000

 
              nuc           elec       ->  total
 ------------------------------------------------------------------------------
                          charge      
 ------------------------------------------------------------------------------
          42.000000     -42.000000      -0.000000
 
 ------------------------------------------------------------------------------
                       dipole moment  
 ------------------------------------------------------------------------------
   x      -1.214978       1.214721      -0.000257
   y     -18.519172      18.519067      -0.000105
   z      -1.145500       1.147168       0.001668
 
   | dipole moment | =     0.0017 a.u. =     0.0043 debye 
 
 ------------------------------------------------------------------------------
                     quadrupole moment
 ------------------------------------------------------------------------------
  xx     190.540397    -214.159570     -23.619172
  yy     191.447377    -215.325282     -23.877906
  zz       7.299850     -37.240187     -29.940338
  xy       1.054295      -1.037375       0.016920
  xz      -3.081371       2.949620      -0.131751
  yz      36.865664     -35.600754       1.264910
 
     1/3  trace=     -25.812472
     anisotropy=       6.575827
 
 ==============================================================================
 


    ------------------------------------------------------------------------
         total  cpu-time : 10 minutes and 24 seconds
         total wall-time :  48.17 seconds
    ------------------------------------------------------------------------

   ****  dscf : all done  ****


    2019-04-01 22:06:18.419 

