Using Slurm to start processes with PMI2
STARTING ridft ON 8 PROCESSORS!
RUNNING PROGRAM /beegfs/modfac/apps/TURBOMOLE/7.0_intel_GA/bin/em64t-unknown-linux-gnu_mpi/ridft_mpi.
PLEASE WAIT UNTIL ridft HAS FINISHED.
Look for the output in slave1.output.
  this is node-proc. number 1 running on node c-16-37.local
  the total number of node-proc. spawned is            8
  parallel platform: MPP, or cluster with fast interconnect

 ridft (c-16-37.local) : TURBOMOLE V7.0.2( ) 15 Jan 2016 at 17:47:42
 Copyright (C) 2016 TURBOMOLE GmbH, Karlsruhe


    2017-11-01 20:19:59.447 



                                  r i d f t

                        DFT program with RI approximation 
                                for coulomb part 




                                                 
                                 References:     
                                                 
          TURBOMOLE:                             
              R. Ahlrichs, M. Baer, M. Haeser, H. Horn, and
              C. Koelmel
              Electronic structure calculations on workstation
              computers: the program system TURBOMOLE
              Chem. Phys. Lett. 162: 165 (1989)
          Density Functional:                              
              O. Treutler and R. Ahlrichs                      
              Efficient Molecular Numerical Integration Schemes
              J. Chem. Phys. 102: 346 (1995)                   
          Parallel Version:                                
              Performance of parallel TURBOMOLE for Density    
              Functional Calculations                          
              M. v. Arnim and R. Ahlrichs                      
              J. Comp. Chem. 19: 1746 (1998)                   
          RI-J Method:                                     
              Auxiliary Basis Sets to approximate Coulomb      
              Potentials                                       
              Chem. Phys. Lett. 240: 283 (1995)                
              K. Eichkorn, O. Treutler, H. Oehm, M. Haeser     
              and R. Ahlrichs                                  
              Chem. Phys. Lett. 242: 652 (1995)                
                                                           
              Auxiliary Basis Sets for Main Row Atoms and their
              Use to approximate Coulomb Potentials            
              K. Eichkorn, F. Weigend, O. Treutler and         
              R. Ahlrichs                                      
              Theo. Chem. Acc. 97: 119 (1997)                   
                                                           
              Accurate Coulomb-fitting basis sets for H to Rn 
              F. Weigend                                        
              Phys. Chem. Chem. Phys. 8: 1057 (2006)            
                                                           
          Multipole accelerated RI-J (MARI-J):             
              Fast evaluation of the Coulomb potential for     
              electron densities using multipole accelerated   
              resolution of identity approximation             
              M. Sierka, A. Hogekamp and R. Ahlrichs           
              J. Chem. Phys. 118: 9136 (2003)                  
          RI-JK Method:                                     
              A fully direct RI-HF algorithm: Implementation,
              optimised auxiliary basis sets, demonstration of
              accuracy and efficiency                         
              F. Weigend                                      
              Phys. Chem. Chem. Phys. 4: 4285 (2002)           
          Two-component HF and DFT with spin-orbit coupling:  
              Self-consistent treatment of spin-orbit         
              interactions with efficient Hartree-Fock and    
              density functional methods                      
              M. K. Armbruster, F. Weigend, C. van Wüllen and 
              W. Klopper                                      
              Phys. Chem. Chem. Phys. 10: 1748 (2008)         
          Relativistic all-electron 2c calculations           
              An efficient implementation of two-component    
              relativistic exact-decoupling methods for large 
              molecules                                       
              D. Peng, N. Middendorf, F. Weigend, M. Reiher   
              J. Chem. Phys. 138, 184105 (2013)               
                                         


 


              +--------------------------------------------------+
              |      general information about current run       |
              +--------------------------------------------------+

 

 SCF run will be profiled !


 DENSITY CONVERGENCE CHECK SWITCHED ON !
 SCF CONVERGENCE IF RMS(delta[D]) <     0.1000000000E-06

 PBE functional
 exchange:    LDA + PBE
 correlation: LDA (PW) + PBE
 A DFT calculation using the RI-J approximation will be carried out.
 Allocatable memory for RI due to $ricore (MB):       10000


              +--------------------------------------------------+
              | Atomic coordinate, charge and isotop information |
              +--------------------------------------------------+

                    atomic coordinates            atom    charge  isotop
          0.00000000    2.67619026    0.00000000    c      6.000     0
          0.00000000   -2.67619026    0.00000000    c      6.000     0
         -2.33600471   -1.28361301    0.00000000    c      6.000     0
         -2.33600471    1.28361301    0.00000000    c      6.000     0
          2.33600471   -1.28361301    0.00000000    c      6.000     0
          2.33600471    1.28361301    0.00000000    c      6.000     0
          0.00000000   -5.31470187    0.00000000    c      6.000     0
          0.00000000    5.31470187    0.00000000    c      6.000     0
         -2.28803089    6.71761315    0.00000000    c      6.000     0
         -2.28803089   -6.71761315    0.00000000    c      6.000     0
          2.28803089   -6.71761315    0.00000000    c      6.000     0
          2.28803089    6.71761315    0.00000000    c      6.000     0
         -4.17936506    7.84191527    0.00000000    n      7.000     0
          4.17936506   -7.84191527    0.00000000    n      7.000     0
          4.17936506    7.84191527    0.00000000    n      7.000     0
         -4.17936506   -7.84191527    0.00000000    n      7.000     0
         -4.10412672   -2.32439188    0.00000000    h      1.000     0
          4.10412672   -2.32439188    0.00000000    h      1.000     0
          4.10412672    2.32439188    0.00000000    h      1.000     0
         -4.10412672    2.32439188    0.00000000    h      1.000     0
 
       center of nuclear mass  :    0.00000000    0.00000000    0.00000000
       center of nuclear charge:    0.00000000    0.00000000    0.00000000

              +--------------------------------------------------+
              |               basis set information              |
              +--------------------------------------------------+

              we will work with the 1s 3p 5d 7f 9g ... basis set
              ...i.e. with spherical basis functions...

   type   atoms  prim   cont   basis
   ---------------------------------------------------------------------------
    c       12     77     57   def2-QZVP   [7s4p3d2f1g|15s8p3d2f1g]
    n        4     77     57   def2-QZVP   [7s4p3d2f1g|15s8p3d2f1g]
    h        4     33     30   def2-QZVP   [4s3p2d1f|7s3p2d1f]
   ---------------------------------------------------------------------------
   total:   20   1364   1032
   ---------------------------------------------------------------------------

   total number of primitive shells          :   71
   total number of contracted shells         :  312
   total number of cartesian basis functions : 1292
   total number of SCF-basis functions       : 1032


 integral neglect threshold       :  0.26E-13
 integral storage threshold THIZE :  0.10E-04
 integral storage threshold THIME :         5

 RI-J AUXILIARY BASIS SET information:

              we will work with the 1s 3p 5d 7f 9g ... basis set
              ...i.e. with spherical basis functions...

   type   atoms  prim   cont   basis
   ---------------------------------------------------------------------------
    c       12     70     49   def2-QZVP   [6s4p3d1f1g|12s5p4d2f1g]
    n        4     70     49   def2-QZVP   [6s4p3d1f1g|12s5p4d2f1g]
    h        4     16     11   def2-QZVP   [3s1p1d|5s2p1d]
   ---------------------------------------------------------------------------
   total:   20   1184    828
   ---------------------------------------------------------------------------

   total number of primitive shells          :   56
   total number of contracted shells         :  260
   total number of cartesian basis functions : 1024
   total number of SCF-basis functions       :  828


 symmetry group of the molecule :   c1 

 the group has the following generators :
   c1(z)

    1 symmetry operations found

 there are 1 real representations :   a   

 maximum number of shells which are related by symmetry :  1


    mo occupation :
   irrep   mo's   occupied
    a     1032       52
 
 number of basis functions   :         1032
 number of occupied orbitals :           52
 
  
           ------------------
           density functional
           ------------------
 PBE functional
 exchange:    LDA + PBE
 correlation: LDA (PW) + PBE
 grinp -> nfun, dfgga, dfhybrid 
           6 T F
 iterations will be done with small grid
  
 spherical integration : Lebedev's spherical grid
 spherical gridsize    :           5
    i.e. gridpoints    :         590
 value for diffuse not defined
 radial integration    : Chebyshev 2nd kind (scaling 3)
 radial gridsize       :           8
 integration cells     :          20
 partition function    : becke
 partition sharpness   :           3
  

 <rddim> : input of entry tasksize
           from data group '$pardft' failed !

               Default values taken

 <rddim> : input of entry memdiv
           from data group '$pardft' failed !

               Default values taken
  RIDFT: memory allocation for DFT gridpoints
  MEMORY is divided by 1 as DEFAULT
 Each node can hold at most  the            1 -th part
 of the gridpoints    

 biggest AO integral is expected to be     6.129561670
  
           ------------------------
               RI-J - INFORMATION
           ------------------------
 
 
 **************************************************
 *      MEMORY ALLOCATION FOR PARALLEL RI-DFT     *
 **************************************************
 
 
MEMORY FOR (MU NU/ ALPHA), SEQUENTIAL RUN               9995 MByte
 
            DIFFERENCE IN MEMORY NEED:       DIAG./SLAVE  
 
      TOTAL DIFFERENCE :                     50 MByte
 
      difference in xcore:                    6 MByte
      difference in fatmat:                  15 MByte
      getcor calls skipped by slaves:        30 MByte
 
 
           Integral memory available for diagonal.      9995 MByte
 
           Integral memory available for slave             0 MByte
 
         MEMORY FOR (MU NU/ ALPHA) ON DIAGONALIZER      9995 MByte
 
         MEMORY FOR (MU NU/ ALPHA) ON ONE SLAVE            0 MByte
 
         TOTAL MEMORY FOR (MU NU/ ALPHA),ALL NODES      9995 MByte
 
 Contributions to RI integral batches: 
  neglected integral batches:       16282
  direct contribution:                  0
  memory contribution:       32546
 Memory core needed for (P|Q) and Cholesky      6 MByte
 Memory core minimum needed except of (P|Q)     5 MByte
 Total minimum memory core needed (sum)        11 MByte
  
 ****************************************
 Memory allocated for RI-J 10005 MByte
 ****************************************
                                            

          ------------------------
          nuclear repulsion energy  :   835.046582261    
          ------------------------

 
          -----------------
          -S integrals
          -----------------

 1e-integrals will be neglected if expon. factor < 0.258666E-14
 
          -----------------
          -T+V integrals
          -----------------

 1e-integrals will be neglected if expon. factor < 0.258666E-14
 Difference densities >>NOT<< switched on in parallel ridft!

 automatic virtual orbital shift switched on 
      shift if e(lumo)-e(homo) < 0.10000000    


 DIIS switched on: error vector is FDS-SDF
 Max. Iterations for DIIS is     :   4
 DIIS matrix (see manual) 
    Scaling factor of diagonals  :  1.200
    threshold for scaling factor :  0.000

 scf convergence criterion : increment of total energy < .1000000D-08
                  and increment of one-electron energy < .1000000D-05


 <geterg> : there is no data group $energy 

  MOs are in ASCII format !


 reading orbital data $scfmo  from file mos . 

 orbital characterization : expanded
 
 mo provided and orthogonalized by Cholesky decomposition

 DSCF restart information will be dumped onto file mos


 Starting SCF iterations


 ITERATION  ENERGY          1e-ENERGY        2e-ENERGY     RMS[dD(SAO)]   TOL
   1  -673.91560874609    -2536.3839003     1027.4217093    0.000D+00 0.258D-13
                            Exc = -91.6709997490     Coul =  1119.09270903    
                              N = 103.99993617    
                            current damping = 0.700
 
          max. resid. norm for Fia-block=  5.954D-01 for orbital     18a         
          max. resid. fock norm         =  5.098D+01 for orbital    869a         

 ITERATION  ENERGY          1e-ENERGY        2e-ENERGY     RMS[dD(SAO)]   TOL
   2  -677.46228282656    -2559.6653579     1047.1564928    0.543D-02 0.258D-13
                            Exc = -92.4201054566     Coul =  1139.57659823    
                              N = 103.99994111    
                            current damping = 0.650
 
          Norm of current diis error:  4.7051    
          max. resid. norm for Fia-block=  1.696D-01 for orbital      3a         
          max. resid. fock norm         =  4.700D-01 for orbital    973a         

 ITERATION  ENERGY          1e-ENERGY        2e-ENERGY     RMS[dD(SAO)]   TOL
   3  -677.86842994287    -2566.2550687     1053.3400565    0.349D-02 0.258D-13
                            Exc = -93.0550304801     Coul =  1146.39508698    
                              N = 103.99994953    
                            current damping = 0.550
 
          Norm of current diis error:  2.4771    
          max. resid. norm for Fia-block=  7.012D-02 for orbital      3a         
          max. resid. fock norm         =  9.450D-02 for orbital    472a         

 ITERATION  ENERGY          1e-ENERGY        2e-ENERGY     RMS[dD(SAO)]   TOL
   4  -678.01346795263    -2569.8869505     1056.8269003    0.184D-02 0.258D-13
                            Exc = -92.9445353386     Coul =  1149.77143565    
                              N = 103.99994691    
                            current damping = 0.450
 
          Norm of current diis error:  1.3116    
          max. resid. norm for Fia-block=  4.189D-02 for orbital     21a         
          max. resid. fock norm         =  8.060D-02 for orbital    868a         

 ITERATION  ENERGY          1e-ENERGY        2e-ENERGY     RMS[dD(SAO)]   TOL
   5  -678.05173351506    -2569.8477871     1056.7494713    0.728D-03 0.258D-13
                            Exc = -93.1303315018     Coul =  1149.87980280    
                              N = 103.99995227    
                            current damping = 0.500
 
          Norm of current diis error: 0.51724    
          max. resid. norm for Fia-block=  8.532D-03 for orbital     47a         
          max. resid. fock norm         =  1.731D-02 for orbital    902a         
          irrep a   : virtual orbitals shifted by    0.00284
          mo-orthogonalization: Cholesky decomposition

 ITERATION  ENERGY          1e-ENERGY        2e-ENERGY     RMS[dD(SAO)]   TOL
   6  -678.05866647787    -2570.3276830     1057.2224343    0.279D-03 0.258D-13
                            Exc = -93.1284685205     Coul =  1150.35090283    
                              N = 103.99995221    
                            current damping = 0.550
 
          Norm of current diis error: 0.15399    
          max. resid. norm for Fia-block=  5.735D-03 for orbital     50a         
          max. resid. fock norm         =  7.149D-03 for orbital   1021a         
          irrep a   : virtual orbitals shifted by    0.01230

 ITERATION  ENERGY          1e-ENERGY        2e-ENERGY     RMS[dD(SAO)]   TOL
   7  -678.05901815501    -2570.7258442     1057.6202438    0.112D-03 0.258D-13
                            Exc = -93.1265178254     Coul =  1150.74676159    
                              N = 103.99995139    
                            current damping = 0.400
 
          Norm of current diis error: 0.12760    
          max. resid. norm for Fia-block=  1.744D-03 for orbital     50a         
          max. resid. fock norm         =  4.399D-03 for orbital    770a         
          irrep a   : virtual orbitals shifted by    0.02396

 ITERATION  ENERGY          1e-ENERGY        2e-ENERGY     RMS[dD(SAO)]   TOL
   8  -678.05939941129    -2570.5608855     1057.4549039    0.365D-04 0.258D-13
                            Exc = -93.1287637486     Coul =  1150.58366761    
                              N = 103.99995177    
                            current damping = 0.450
 
          Norm of current diis error: 0.23452E-01
          max. resid. norm for Fia-block=  7.598D-04 for orbital     28a         
          max. resid. fock norm         =  1.591D-03 for orbital   1028a         
          irrep a   : virtual orbitals shifted by    0.02227

 ITERATION  ENERGY          1e-ENERGY        2e-ENERGY     RMS[dD(SAO)]   TOL
   9  -678.05941289260    -2570.5533696     1057.4473744    0.106D-04 0.258D-13
                            Exc = -93.1326537723     Coul =  1150.58002818    
                              N = 103.99995194    
                            current damping = 0.300
 
          Norm of current diis error: 0.12149E-01
          max. resid. norm for Fia-block=  3.226D-04 for orbital     36a         
          max. resid. fock norm         =  6.539D-04 for orbital   1019a         
          irrep a   : virtual orbitals shifted by    0.03068

 ITERATION  ENERGY          1e-ENERGY        2e-ENERGY     RMS[dD(SAO)]   TOL
  10  -678.05941410561    -2570.5625836     1057.4565872    0.597D-05 0.258D-13
                            Exc = -93.1313206977     Coul =  1150.58790791    
                              N = 103.99995189    
                            current damping = 0.350
 
          Norm of current diis error: 0.10317E-01
          max. resid. norm for Fia-block=  1.569D-04 for orbital     45a         
          max. resid. fock norm         =  2.596D-04 for orbital   1019a         
          irrep a   : virtual orbitals shifted by    0.02810
          mo-orthogonalization: Cholesky decomposition

 ITERATION  ENERGY          1e-ENERGY        2e-ENERGY     RMS[dD(SAO)]   TOL
  11  -678.05941636568    -2570.5546374     1057.4486388    0.180D-05 0.258D-13
                            Exc = -93.1316919268     Coul =  1150.58033073    
                              N = 103.99995190    
                            current damping = 0.400
 
          Norm of current diis error: 0.22866E-02
          max. resid. norm for Fia-block=  5.168D-05 for orbital     47a         
          max. resid. fock norm         =  1.068D-04 for orbital   1027a         
          irrep a   : virtual orbitals shifted by    0.02546

 ITERATION  ENERGY          1e-ENERGY        2e-ENERGY     RMS[dD(SAO)]   TOL
  12  -678.05941643760    -2570.5565130     1057.4505143    0.838D-06 0.258D-13
                            Exc = -93.1313377599     Coul =  1150.58185209    
                              N = 103.99995189    
                            current damping = 0.450
 
          Norm of current diis error: 0.15439E-02
          max. resid. norm for Fia-block=  2.471D-05 for orbital     50a         
          max. resid. fock norm         =  4.777D-05 for orbital   1019a         
          irrep a   : virtual orbitals shifted by    0.02280

 ITERATION  ENERGY          1e-ENERGY        2e-ENERGY     RMS[dD(SAO)]   TOL
  13  -678.05941649882    -2570.5543466     1057.4483478    0.266D-06 0.258D-13
                            Exc = -93.1314262515     Coul =  1150.57977405    
                              N = 103.99995189    
                            current damping = 0.500
 
          Norm of current diis error: 0.36053E-03
          max. resid. norm for Fia-block=  7.494D-06 for orbital     37a         
          max. resid. fock norm         =  1.172D-05 for orbital     33a         
          irrep a   : virtual orbitals shifted by    0.02014

 DENSITY CONVERGED !


 ITERATION  ENERGY          1e-ENERGY        2e-ENERGY     RMS[dD(SAO)]   TOL
  14  -678.05941650136    -2570.5551996     1057.4492008    0.693D-07 0.258D-13
                            Exc = -93.1314875245     Coul =  1150.58068833    
                              N = 103.99995189    
                            current damping = 0.550
 
          Norm of current diis error: 0.87574E-04
          max. resid. norm for Fia-block=  2.482D-06 for orbital     32a         
          max. resid. fock norm         =  5.020D-06 for orbital   1022a         
          irrep a   : virtual orbitals shifted by    0.01748

 DENSITY CONVERGED !


 ITERATION  ENERGY          1e-ENERGY        2e-ENERGY     RMS[dD(SAO)]   TOL
  15  -678.05941650154    -2570.5550844     1057.4490856    0.273D-07 0.258D-13
                            Exc = -93.1314856746     Coul =  1150.58057129    
                              N = 103.99995189    
                            current damping = 0.600
 
          Norm of current diis error: 0.33205E-04
          max. resid. norm for Fia-block=  7.936D-07 for orbital     32a         
          max. resid. fock norm         =  1.895D-06 for orbital   1019a         
          irrep a   : virtual orbitals shifted by    0.01482
          mo-orthogonalization: Cholesky decomposition

 ENERGY & DENSITY CONVERGED !


 ITERATION  ENERGY          1e-ENERGY        2e-ENERGY     RMS[dD(SAO)]   TOL
  16  -678.05940447540    -2570.5550705     1057.4490838    0.108D-07 0.258D-13
                            Exc = -93.1314703135     Coul =  1150.58055407    
                              N = 103.99999877    
                            current damping = 0.450
 
          Norm of current diis error: 0.14256E-04
          max. resid. norm for Fia-block=  4.036D-07 for orbital     52a         
          max. resid. fock norm         =  6.344D-07 for orbital   1018a         

 End of SCF iterations

   convergence criteria satisfied after   16 iterations


                  ------------------------------------------ 
                 |  total energy      =   -678.05940447540  |
                  ------------------------------------------ 
                 :  kinetic energy    =    675.28044229283  :
                 :  potential energy  =  -1353.33984676823  :
                 :  virial theorem    =      1.99590159481  :
                 :  wavefunction norm =      1.00000000000  :
                  .......................................... 


 <geterg> : there is no data group $energy 


 <skperg> : $end is missing 


 orbitals $scfmo  will be written to file mos

    irrep                 48a         49a         50a         51a         52a   
 eigenvalues H         -0.33790    -0.33626    -0.32256    -0.30634    -0.25775
            eV          -9.1948     -9.1502     -8.7773     -8.3359     -7.0138
 occupation              2.0000      2.0000      2.0000      2.0000      2.0000 

    irrep                 53a         54a         55a         56a         57a   
 eigenvalues H         -0.20451    -0.10860    -0.10411    -0.08059    -0.07541
            eV          -5.5650     -2.9551     -2.8329     -2.1929     -2.0520
 
 
 ! grave: sending quit signal to master process
 
 
 
 
 ==============================================================================
                           electrostatic moments
 ==============================================================================

 reference point for electrostatic moments:    0.00000   0.00000   0.00000

 
              nuc           elec       ->  total
 ------------------------------------------------------------------------------
                          charge      
 ------------------------------------------------------------------------------
         104.000000    -104.000000       0.000000
 
 ------------------------------------------------------------------------------
                       dipole moment  
 ------------------------------------------------------------------------------
   x       0.000000       0.000000       0.000000
   y       0.000000       0.000000       0.000000
   z       0.000000       0.000000       0.000000
 
   | dipole moment | =     0.0000 a.u. =     0.0000 debye 
 
 ------------------------------------------------------------------------------
                     quadrupole moment
 ------------------------------------------------------------------------------
  xx     813.062090    -891.806383     -78.744294
  yy    3290.961308   -3389.734987     -98.773680
  zz       0.000000     -66.658698     -66.658698
  xy       0.000000       0.000000       0.000000
  xz       0.000000      -0.000000      -0.000000
  yz       0.000000       0.000000       0.000000
 
     1/3  trace=     -81.392224
     anisotropy=      28.094573
 
 ==============================================================================
 

    ridft profiling
  --------------------------------------------------------------------
             module   cpu total (s)       %  wall total (s)       %

               RIDFT           283.9  100.00           284.3  100.00
         Ridft_b_scf            23.3    8.20            23.3    8.19
        b_scf_prelim             0.0    0.00             0.0    0.00
        b_scf_molinp             0.0    0.01             0.0    0.01
         b_scf_init0             0.0    0.00             0.0    0.00
        b_scf_auxbas             0.0    0.00             0.0    0.00
      b_scf_symmetry             0.0    0.00             0.0    0.00
         b_scf_cosmo             0.0    0.00             0.0    0.00
        b_scf_params             2.4    0.85             2.4    0.85
          b_scf_ri-j            18.8    6.63            18.8    6.62
    b_scf_ri-j_auxpq            18.8    6.62            18.8    6.62
     ri-j_auxpq_chol             0.1    0.03             0.1    0.03
         b_scf_1elec             0.5    0.17             0.5    0.17
       b_scf_moinput             1.5    0.54             1.5    0.54
     moinput_orthmos             1.5    0.52             1.5    0.52
    b_scf_dft-dstmax             0.0    0.00             0.0    0.00
           Ridft_scf           260.4   91.72           260.7   91.71
          Scf_b_loop             0.0    0.00             0.0    0.00
                noga             0.0    0.00             0.0    0.00
            Scf_loop           259.6   91.44           259.9   91.43
     scf_loop_mkdmat             1.2    0.42             1.2    0.42
       scf_loop_ri-j            35.2   12.39            35.2   12.39
      parlp1.bc.dens             1.0    0.34             1.0    0.34
        parlp1.gs.gp             0.0    0.00             0.0    0.00
        parlp2.bc.gq             0.0    0.00             0.0    0.00
        scf_loop_dft           192.0   67.65           192.3   67.64
      pardft.bc.dens             0.0    0.00             0.0    0.00
        dft_grid_con             0.3    0.12             0.4    0.12
           dft_xcrhf           189.3   66.69           189.6   66.68
          dft_getval            13.6    4.80            13.6    4.78
          funct2 dst             0.1    0.04             0.1    0.04
      funct2 f2loop1             3.3    1.15             3.3    1.15
      funct2 f2loop2             4.1    1.44             4.2    1.46
          funct2 s+c             5.8    2.04             5.8    2.03
        funct2 cmf_2             5.3    1.85             5.3    1.85
          dft_mkdens            80.0   28.19            80.2   28.22
         dft_gga-fun             0.3    0.10             0.3    0.11
          dft_mkfock            95.0   33.48            95.2   33.47
     pardft.red.fock            14.7    5.19            14.8    5.19
     scf_loop_energy             0.0    0.01             0.0    0.01
     scf_loop_mkfock             0.0    0.01             0.0    0.01
       scf_loop_diis             6.9    2.42             6.9    2.42
       scf_loop_diag            11.8    4.15            11.8    4.14
         diag_tritrn             3.5    1.24             3.5    1.24
          diag_rdiag             8.2    2.87             8.2    2.87
     scf_loop_modump            10.2    3.60            10.2    3.60
      scf_loop_ortho             1.9    0.66             1.9    0.66
          Scf_a_loop             0.8    0.27             0.8    0.27
         Ridft_a_scf             0.2    0.09             0.3    0.10
         a_scf_fanal             0.2    0.08             0.2    0.08
 


    ------------------------------------------------------------------------
         total  cpu-time :  4 minutes and 45 seconds
         total wall-time :  4 minutes and 46 seconds
    ------------------------------------------------------------------------


   ****  ridft : all done  ****


    2017-11-01 20:24:45.072 

