STARTING dscf ON 48 PROCESSORS!
RUNNING PROGRAM /sopt/TURBOMOLE/7.2.1-official/bin/em64t-unknown-linux-gnu_mpi/dscf_mpi.
PLEASE WAIT UNTIL dscf HAS FINISHED.
Look for the output in slave1.output.
MACHINEFILE is ./hostlist
 this is node-proc. number 1 running on node c-19-291.gp.local
 the total number of node-proc. spawned is  49
  parallel platform: MPP or cluster with fast interconnect

 dscf (c-19-291.gp.local) : TURBOMOLE V7.2 ( 21471 ) 7 Nov 2017 at 16:15:16
 Copyright (C) 2017 TURBOMOLE GmbH, Karlsruhe


    2018-02-20 20:32:25.441 


 SCF run will be profiled !



                             d s c f - program

                   idea & directorship : reinhart ahlrichs
                   program development : marco haeser
                                         michael baer
                           dft version : oliver treutler
           parallelized version : malte v. arnim, gina corongiu, GMD 


                          quantum chemistry group
                          universitaet  karlsruhe
                                  germany




                          References             
                                                 
          TURBOMOLE:                             
              R. Ahlrichs, M. Baer, M. Haeser, H. Horn, and
              C. Koelmel
              Electronic structure calculations on workstation
              computers: the program system TURBOMOLE
              Chem. Phys. Lett. 162: 165 (1989)
          Density Functional:                              
              O. Treutler and R. Ahlrichs                      
              Efficient Molecular Numerical Integration Schemes
              J. Chem. Phys. 102: 346 (1995)                   
          Parallel Version:                                
              Performance of parallel TURBOMOLE for Density    
              Functional Calculations                          
              M. v. Arnim and R. Ahlrichs                      
              J. Comp. Chem. 19: 1746 (1998)                   
                                         




              +--------------------------------------------------+
              | Atomic coordinate, charge and isotop information |
              +--------------------------------------------------+

                    atomic coordinates            atom    charge  isotop
          5.82419040   -0.61904476   -4.09973144    c      6.000     0
          7.21893589   -2.18932142   -5.66025584    c      6.000     0
          5.99310584   -4.58405427   -5.73302825    c      6.000     0
          3.87019927   -4.44732074   -4.21111498    c      6.000     0
          6.30480954    2.11410846   -3.35928439    c      6.000     0
          8.85158754    2.92571639   -4.55623210    c      6.000     0
          4.24438324    3.87332748   -4.33358737    c      6.000     0
          4.31842106    5.61013301   -6.28009020    c      6.000     0
          1.93964629   -6.45105896   -3.52074225    c      6.000     0
          1.85982000   -6.76096890   -0.61128358    c      6.000     0
          2.75528210   -8.98903858   -4.68437160    c      6.000     0
         -0.66734799   -5.77679576   -4.49562994    c      6.000     0
         -2.03456741   -6.69379149   -6.53359972    c      6.000     0
          3.78955893   -2.02485712   -3.23139234    n      7.000     0
          1.85800617    4.03586505   -3.23796400    n      7.000     0
         -2.18906671   -4.03774015   -3.28951464    n      7.000     0
         -4.15564276    4.36611957   -4.55167420    c      6.000     0
         -6.24088176    4.43394242   -6.13090535    c      6.000     0
         -7.49046877    2.05606852   -5.95473316    c      6.000     0
         -6.14734759    0.57016324   -4.27237140    c      6.000     0
         -2.31146548    6.43686163   -3.82556357    c      6.000     0
         -2.54212091    6.90425982   -0.94537824    c      6.000     0
         -3.07077018    8.89574883   -5.18390275    c      6.000     0
          0.39685660    5.80343941   -4.53472813    c      6.000     0
          1.91326139    6.81640297   -6.40547641    c      6.000     0
         -6.57119586   -2.14752546   -3.46327131    c      6.000     0
         -9.13988716   -3.04057583   -4.54419600    c      6.000     0
         -4.49096892   -3.83996324   -4.48894701    c      6.000     0
         -4.43915431   -5.47701404   -6.52939623    c      6.000     0
         -4.12199958    2.00133821   -3.43809300    n      7.000     0
          6.56632802    2.41057789   -0.50729781    c      6.000     0
          7.04902713    4.58623004    0.94462274    c      6.000     0
          6.48999450    0.41338003    1.10858581    n      7.000     0
          7.25800748    3.81716588    3.51626409    c      6.000     0
          6.88754349    1.19891753    3.57127019    c      6.000     0
         -6.67431101   -2.42194604   -0.59851895    c      6.000     0
         -6.86384502   -4.61753793    0.87727958    c      6.000     0
         -6.74670294   -0.40075877    0.99872995    n      7.000     0
         -7.08841571   -3.85555541    3.43839789    c      6.000     0
         -6.98848404   -1.20751412    3.47853116    c      6.000     0
          6.81366690   -0.53248565    5.68808226    c      6.000     0
         -6.88899101    0.51030418    5.59572846    c      6.000     0
          7.12928242    0.04960413    7.91251297    o      8.000     0
         -7.09566647   -0.10272938    7.82945932    o      8.000     0
          6.33845859   -2.94977961    4.92871738    o      8.000     0
         -6.47571038    2.94242374    4.83811164    o      8.000     0
         -6.14461399    4.80295834    6.85010157    c      6.000     0
          6.26154425   -4.82910017    6.95621897    c      6.000     0
         -4.58189401    6.95587191    5.79390771    c      6.000     0
          5.55415209   -7.33943957    5.78106426    c      6.000     0
         -7.30579126   -5.60785376    5.66113133    c      6.000     0
          7.66890660    5.52767490    5.74279796    c      6.000     0
          5.18205764    6.70937277    6.69731956    c      6.000     0
         -4.72650176   -6.36100655    6.78390332    c      6.000     0
         -6.85922483   -7.30255721   -0.04121608    c      6.000     0
          7.42619826    7.23858046   -0.02267806    c      6.000     0
         -0.01886314    0.58096630    2.23141740    c      0.000     0
          0.47457167    2.73388731    3.07772986    o      0.000     0
         -0.41898054   -1.58586152    4.05152111    c      0.000     0
         -0.15969443    0.07354608   -0.16025597    o      0.000     0
          8.94052278   -1.68722974   -6.63680688    h      1.000     0
          6.61552987   -6.22932160   -6.77212015    h      1.000     0
          9.26788901    4.88808784   -4.08331538    h      1.000     0
          8.76985319    2.74466893   -6.61157908    h      1.000     0
         10.36765422    1.72510115   -3.83557650    h      1.000     0
          5.93731072    6.02239467   -7.45574660    h      1.000     0
          0.47835888   -8.20902892   -0.08672789    h      1.000     0
          1.33452364   -4.99817964    0.33121955    h      1.000     0
          3.72591517   -7.32271330    0.07683335    h      1.000     0
          2.85521857   -8.88061253   -6.74603155    h      1.000     0
          1.39425785  -10.45687939   -4.16986102    h      1.000     0
          4.61844155   -9.52604374   -3.96691936    h      1.000     0
         -1.40076431   -8.11882642   -7.85409015    h      1.000     0
          1.13020111    2.68659291   -2.02057002    h      1.000     0
         -1.66603341   -2.96724421   -1.76858408    h      1.000     0
         -6.83526706    6.02995675   -7.25866299    h      1.000     0
         -9.18433373    1.50391423   -6.95389164    h      1.000     0
         -1.32003759    8.48566110   -0.38321231    h      1.000     0
         -2.07893350    5.21139547    0.15345541    h      1.000     0
         -4.48591866    7.42319357   -0.47549853    h      1.000     0
         -3.01271469    8.67749255   -7.23770895    h      1.000     0
         -1.77762220   10.41569412   -4.64579458    h      1.000     0
         -4.98933941    9.43198190   -4.63495722    h      1.000     0
          1.37860160    8.29875262   -7.70554896    h      1.000     0
         -9.13665279   -2.92881023   -6.60744076    h      1.000     0
        -10.65638566   -1.84545356   -3.81202714    h      1.000     0
         -9.49267964   -4.99482523   -3.98645805    h      1.000     0
         -5.97179812   -5.81134608   -7.83819419    h      1.000     0
         -2.75743527    1.36354977   -2.22041139    h      1.000     0
          6.20645022   -1.40452760    0.57914962    h      1.000     0
         -6.65219272    1.43166537    0.45861267    h      1.000     0
         -5.21016734    3.87555593    8.43863063    h      1.000     0
         -8.02320974    5.42351338    7.45422858    h      1.000     0
          4.87822845   -4.20601993    8.35869991    h      1.000     0
          8.12551449   -4.88285790    7.84726747    h      1.000     0
         -2.73201262    6.25730895    5.19351981    h      1.000     0
         -4.30869097    8.38478462    7.26567817    h      1.000     0
         -5.52242773    7.84751286    4.18439544    h      1.000     0
          3.67238509   -7.26108869    4.92963859    h      1.000     0
          5.54105374   -8.79025852    7.25571837    h      1.000     0
          6.92009635   -7.89259767    4.33101599    h      1.000     0
         -8.30573496   -7.31961300    5.05861099    h      1.000     0
         -8.44149830   -4.71278838    7.13694536    h      1.000     0
          8.98772815    7.03674328    5.22162103    h      1.000     0
          8.52560970    4.44824492    7.27854515    h      1.000     0
          4.40008281    8.03747903    5.30436708    h      1.000     0
          5.49957745    7.79787891    8.42701643    h      1.000     0
          3.77735359    5.24107798    7.08725802    h      1.000     0
         -3.51019370   -7.21954975    5.34541592    h      1.000     0
         -4.97563200   -7.72863517    8.31774994    h      1.000     0
         -3.75432373   -4.70214713    7.54166998    h      1.000     0
         -6.06201122   -7.43597852   -1.94156833    h      1.000     0
         -8.77645722   -8.09381094   -0.09621437    h      1.000     0
         -5.73332354   -8.50570230    1.21024307    h      1.000     0
          6.33786291    7.58690995   -1.74880217    h      1.000     0
          9.41598177    7.60458777   -0.47167368    h      1.000     0
          6.88123140    8.64636001    1.39615231    h      1.000     0
          1.37566228   -2.59923771    4.25222045    h      0.000     0
         -1.82716477   -2.90582560    3.32620401    h      0.000     0
         -0.97961810   -0.88385042    5.90682337    h      0.000     0
          2.38191767   -1.35018166   -2.08267006    h      1.000     0
          2.25233307    6.14136487    1.52277709    na     0.000     0
 
       center of nuclear mass  :    0.02612026    0.18923023   -0.10137276
       center of nuclear charge:   -0.03253617   -0.01150151   -0.30808246

              +--------------------------------------------------+
              |               basis set information              |
              +--------------------------------------------------+

              we will work with the 1s 3p 5d 7f 9g ... basis set
              ...i.e. with spherical basis functions...

   type   atoms  prim   cont   basis
   ---------------------------------------------------------------------------
    c       48     77     55   cc-pVQZ   [5s4p3d2f1g|21s6p3d2f1g]
    n        6     77     55   cc-pVQZ   [5s4p3d2f1g|21s6p3d2f1g]
    o        6     77     55   cc-pVQZ   [5s4p3d2f1g|21s6p3d2f1g]
    h       61     32     30   cc-pVQZ   [4s3p2d1f|6s3p2d1f]
    na       1    152     59   cc-pVQZ   [6s5p3d2f1g|51s21p3d2f1g]
   ---------------------------------------------------------------------------
   total:  122   6724   5189
   ---------------------------------------------------------------------------

   total number of primitive shells          :  189
   total number of contracted shells         : 1527
   total number of cartesian basis functions : 6409
   total number of SCF-basis functions       : 5189


 integral neglect threshold       :  0.52E-12
 integral storage threshold THIZE :  0.10E-04
 integral storage threshold THIME :         5


 DENSITY CONVERGENCE CHECK SWITCHED ON !
 SCF CONVERGENCE IF RMS(delta[D]) <     0.1000000000E-06


 symmetry group of the molecule :   c1 

 the group has the following generators :
   c1(z)

    1 symmetry operations found

 there are 1 real representations :   a   

 maximum number of shells which are related by symmetry :  1


    mo occupation :
   irrep   mo's   occupied
    a     5189      204
 
 number of basis functions   :                   5189
 number of occupied orbitals :                    204
 

 automatic virtual orbital shift switched on 
      shift if e(lumo)-e(homo) < 0.10000000    


 keyword $2e-ints_shell_statistics missing in file <control>

 ! One task per shell generated
  No pre-computed optimal task distribution found
  ... using automatic task generation

          ------------------------
          nuclear repulsion energy  :   8518.91940229    
          ------------------------


         -----------------
         -S,T+V- integrals
         -----------------

 1e-integrals will be neglected if expon. factor < 0.521448E-13
 
   Difference densities algorithm switched on.
   The maximal number of linear combinations of
   difference densities is                    20 .

 DIIS switched on: error vector is FDS-SDF
 Max. Iterations for DIIS is     :   5
 DIIS matrix (see manual) 
    Scaling factor of diagonals  :  1.200
    threshold for scaling factor :  0.000

 scf convergence criterion : increment of total energy < .1000000D-06
                  and increment of one-electron energy < .1000000D-03

  MOs are in ASCII format !


 reading orbital data $scfmo  from file mos
 orbital characterization : expanded
 mo provided and orthogonalized by Cholesky decomposition

 DSCF restart information will be dumped onto file mos

 
                                              current damping :  0.300
 ITERATION  ENERGY          1e-ENERGY        2e-ENERGY     RMS[dD(SAO)]   TOL
   1  -2394.3046220822    -20158.577184     9245.3531593    0.000D+00 0.520D-12
          max. resid. norm for Fia-block=  3.499D-01 for orbital      1a         
          max. resid. fock norm         =  1.410D+01 for orbital   4901a         
          Delta Eig. =  2520.2642418267 eV 
 
                                              current damping :  0.250
 ITERATION  ENERGY          1e-ENERGY        2e-ENERGY     RMS[dD(SAO)]   TOL
   2  -2401.6674557085    -20234.811828     9314.2249701    0.555D-02 0.507D-12
          Norm of current diis error:  6.9746    
          max. resid. norm for Fia-block=  1.358D-01 for orbital      3a         
          max. resid. fock norm         =  3.999D-01 for orbital   4915a         
          Delta Eig. =   607.1724795026 eV 
 
                                              current damping :  0.150
 ITERATION  ENERGY          1e-ENERGY        2e-ENERGY     RMS[dD(SAO)]   TOL
   3  -2402.5695616953    -20238.956257     9317.4672930    0.107D-02 0.296D-12
          Norm of current diis error:  2.4949    
          max. resid. norm for Fia-block=  4.624D-02 for orbital    191a         
          max. resid. fock norm         =  6.826D-02 for orbital   4907a         
          Delta Eig. =   131.3285486389 eV 
 
                                              current damping :  0.100
 ITERATION  ENERGY          1e-ENERGY        2e-ENERGY     RMS[dD(SAO)]   TOL
   4  -2402.7354028392    -20247.433829     9325.7790238    0.360D-03 0.246D-12
          Norm of current diis error: 0.76188    
          max. resid. norm for Fia-block=  2.205D-02 for orbital     65a         
          max. resid. fock norm         =  5.585D-02 for orbital   5076a         
          Delta Eig. =    18.5319850494 eV 
 
                                              current damping :  0.150
 ITERATION  ENERGY          1e-ENERGY        2e-ENERGY     RMS[dD(SAO)]   TOL
   5  -2402.7534990481    -20246.019537     9324.3466356    0.129D-03 0.225D-12
          Norm of current diis error: 0.29586    
          max. resid. norm for Fia-block=  6.525D-03 for orbital    202a         
          max. resid. fock norm         =  1.231D-02 for orbital   5093a         
 mo-orthogonalization: Cholesky decomposition
          Delta Eig. =     1.4195757268 eV 
 
                                              current damping :  0.200
 ITERATION  ENERGY          1e-ENERGY        2e-ENERGY     RMS[dD(SAO)]   TOL
   6  -2402.7564982755    -20247.311513     9325.6356120    0.455D-04 0.213D-12
          Norm of current diis error: 0.11176    
          max. resid. norm for Fia-block=  2.726D-03 for orbital    202a         
          max. resid. fock norm         =  3.600D-03 for orbital   5052a         
          Delta Eig. =     0.3058490780 eV 
 
                                              current damping :  0.250
 ITERATION  ENERGY          1e-ENERGY        2e-ENERGY     RMS[dD(SAO)]   TOL
   7  -2402.7570300965    -20246.980272     9325.3038391    0.236D-04 0.203D-12
          Norm of current diis error: 0.46239E-01
          max. resid. norm for Fia-block=  1.859D-03 for orbital    202a         
          max. resid. fock norm         =  1.991D-03 for orbital    191a         
          Delta Eig. =     0.1254884671 eV 
 
                                              current damping :  0.300
 ITERATION  ENERGY          1e-ENERGY        2e-ENERGY     RMS[dD(SAO)]   TOL
   8  -2402.7571611064    -20247.101473     9325.4249096    0.101D-04 0.194D-12
          Norm of current diis error: 0.21723E-01
          max. resid. norm for Fia-block=  1.065D-03 for orbital    202a         
          max. resid. fock norm         =  1.111D-03 for orbital    202a         
          Delta Eig. =     0.0306643929 eV 
 
                                              current damping :  0.350
 ITERATION  ENERGY          1e-ENERGY        2e-ENERGY     RMS[dD(SAO)]   TOL
   9  -2402.7571965574    -20247.081420     9325.4048209    0.483D-05 0.185D-12
          Norm of current diis error: 0.10863E-01
          max. resid. norm for Fia-block=  7.449D-04 for orbital    202a         
          max. resid. fock norm         =  7.485D-04 for orbital    202a         
          Delta Eig. =     0.0146597102 eV 
 
                                              current damping :  0.400
 ITERATION  ENERGY          1e-ENERGY        2e-ENERGY     RMS[dD(SAO)]   TOL
  10  -2402.7572073340    -20247.089824     9325.4132139    0.205D-05 0.178D-12
          Norm of current diis error: 0.66559E-02
          max. resid. norm for Fia-block=  4.514D-04 for orbital    202a         
          max. resid. fock norm         =  4.631D-04 for orbital    202a         
 mo-orthogonalization: Cholesky decomposition
          Delta Eig. =     0.0101778945 eV 
 
                                              current damping :  0.450
 ITERATION  ENERGY          1e-ENERGY        2e-ENERGY     RMS[dD(SAO)]   TOL
  11  -2402.7572113542    -20247.087732     9325.4111180    0.124D-05 0.171D-12
          Norm of current diis error: 0.34823E-02
          max. resid. norm for Fia-block=  3.039D-04 for orbital    202a         
          max. resid. fock norm         =  3.060D-04 for orbital    202a         
          Delta Eig. =     0.0032098108 eV 
 
                                              current damping :  0.500
 ITERATION  ENERGY          1e-ENERGY        2e-ENERGY     RMS[dD(SAO)]   TOL
  12  -2402.7572126606    -20247.091656     9325.4150412    0.659D-06 0.164D-12
          Norm of current diis error: 0.20739E-02
          max. resid. norm for Fia-block=  1.885D-04 for orbital    202a         
          max. resid. fock norm         =  1.907D-04 for orbital    202a         
          Delta Eig. =     0.0030614097 eV 
 
                                              current damping :  0.550
 ITERATION  ENERGY          1e-ENERGY        2e-ENERGY     RMS[dD(SAO)]   TOL
  13  -2402.7572131135    -20247.089230     9325.4126149    0.426D-06 0.158D-12
          Norm of current diis error: 0.10449E-02
          max. resid. norm for Fia-block=  1.009D-04 for orbital    202a         
          max. resid. fock norm         =  1.015D-04 for orbital    202a         
          Delta Eig. =     0.0011420723 eV 
 
                                              current damping :  0.600
 ITERATION  ENERGY          1e-ENERGY        2e-ENERGY     RMS[dD(SAO)]   TOL
  14  -2402.7572132240    -20247.090840     9325.4142244    0.216D-06 0.153D-12
          Norm of current diis error: 0.55713E-03
          max. resid. norm for Fia-block=  5.408D-05 for orbital    202a         
          max. resid. fock norm         =  5.457D-05 for orbital    202a         
          Delta Eig. =     0.0006653792 eV 
 
                                              current damping :  0.650
 ITERATION  ENERGY          1e-ENERGY        2e-ENERGY     RMS[dD(SAO)]   TOL
  15  -2402.7572132536    -20247.090305     9325.4136892    0.116D-06 0.148D-12
          Norm of current diis error: 0.28207E-03
          max. resid. norm for Fia-block=  2.662D-05 for orbital    202a         
          max. resid. fock norm         =  2.672D-05 for orbital    202a         
 mo-orthogonalization: Cholesky decomposition
          Delta Eig. =     0.0002773098 eV 

 DENSITY CONVERGED !

 
                                              current damping :  0.700
 ITERATION  ENERGY          1e-ENERGY        2e-ENERGY     RMS[dD(SAO)]   TOL
  16  -2402.7572132608    -20247.090467     9325.4138513    0.561D-07 0.148D-12
          Norm of current diis error: 0.15085E-03
          max. resid. norm for Fia-block=  1.353D-05 for orbital    197a         
          max. resid. fock norm         =  1.360D-05 for orbital    197a         
          Delta Eig. =     0.0001310503 eV 

 ENERGY & DENSITY CONVERGED !

 
                                              current damping :  0.750
 ITERATION  ENERGY          1e-ENERGY        2e-ENERGY     RMS[dD(SAO)]   TOL
  17  -2402.7572132643    -20247.090418     9325.4138020    0.273D-07 0.148D-12
          max. resid. norm for Fia-block=  2.982D-06 for orbital    197a         
          max. resid. fock norm         =  4.570D-06 for orbital   1032a         

 convergence criteria satisfied after    17 iterations


                  ------------------------------------------ 
                 |  total energy      =  -2402.75721326435  |
                  ------------------------------------------ 
                 :  kinetic energy    =   2398.98996374984  :
                 :  potential energy  =  -4801.74717701419  :
                 :  virial theorem    =      1.99843211395  :
                 :  wavefunction norm =      1.00000000000  :
                  .......................................... 


 <geterg> : there is no data group $energy 


 <skperg> : $end is missing 


 orbitals $scfmo  will be written to file mos

    irrep                200a        201a        202a        203a        204a   
 eigenvalues H         -0.30665    -0.29883    -0.29815    -0.28975    -0.27436
            eV          -8.3445     -8.1316     -8.1131     -7.8846     -7.4657
 occupation              2.0000      2.0000      2.0000      2.0000      2.0000 

    irrep                205a        206a        207a        208a        209a   
 eigenvalues H          0.02772     0.03934     0.04519     0.04763     0.07196
            eV           0.7544      1.0704      1.2296      1.2962      1.9583
 
 
 
 
 ==============================================================================
                           electrostatic moments
 ==============================================================================

 reference point for electrostatic moments:    0.00000   0.00000   0.00000

 
              nuc           elec       ->  total
 ------------------------------------------------------------------------------
                          charge      
 ------------------------------------------------------------------------------
         408.000000    -408.000000      -0.000000
 
 ------------------------------------------------------------------------------
                       dipole moment  
 ------------------------------------------------------------------------------
   x     -13.274758      13.222180      -0.052578
   y      -4.692615       4.603801      -0.088813
   z    -125.697644     124.460680      -1.236964
 
   | dipole moment | =     1.2413 a.u. =     3.1550 debye 
 
 ------------------------------------------------------------------------------
                     quadrupole moment
 ------------------------------------------------------------------------------
  xx   13652.895329  -13909.675785    -256.780456
  yy   10067.568642  -10299.346619    -231.777977
  zz    9577.466413   -9851.802305    -274.335893
  xy    1427.142299   -1433.819756      -6.677456
  xz     354.701939    -354.743556      -0.041617
  yz     -82.137890      81.385058      -0.752832
 
     1/3  trace=    -254.298108
     anisotropy=      38.829338
 
 ==============================================================================
 

    dscf profiling
  --------------------------------------------------------------------
             module   cpu total (s)       %  wall total (s)       %

          dscf.total         37172.6  100.00         31597.5  100.00
        dscf.prepare            93.1    0.25            93.5    0.30
      prepare.oneint             1.4    0.00             1.4    0.00
     prepare.moinput             0.7    0.00             0.7    0.00
     moinput_orthmos            89.7    0.24            89.7    0.28
            dscf.scf         37073.1   99.73         31497.5   99.68
             scf.pre             0.0    0.00             0.1    0.00
        scf.makedmat            48.3    0.13            49.2    0.16
          scf.shloop         28911.3   77.78         28909.9   91.49
          shloop_omp         28906.0   77.76         28904.5   91.48
          scf.symcar             5.7    0.02             5.7    0.02
        scf.makefock            16.1    0.04            17.6    0.06
          scf.newerg             0.4    0.00             0.4    0.00
          scf.newcnv          2345.2    6.31           105.3    0.33
           scf.fdiag          3160.7    8.50           133.2    0.42
         diag_tritrn          1311.3    3.53            55.5    0.18
          diag_rdiag          1820.2    4.90            76.0    0.24
          scf.modump          2111.7    5.68          2044.7    6.47
           ortho_all           340.4    0.92           102.0    0.32
            scf.post           130.7    0.35           129.3    0.41
        dscf.postscf             6.3    0.02             6.5    0.02
 


    ------------------------------------------------------------------------
         total  cpu-time : 10 hours 19 minutes and 34 seconds
         total wall-time :  8 hours 46 minutes and 39 seconds
    ------------------------------------------------------------------------

   ****  dscf : all done  ****


    2018-02-21 05:19:03.146 

