
   OpenMP run-time library returned nthreads = 20

 rirpa (c-19-413) : TURBOMOLE V7.3.1 () 25 Feb 2019 at 10:13:53
 Copyright (C) 2019 TURBOMOLE GmbH, Karlsruhe


    2019-11-20 17:32:08.498 

 
 
    *************************************************************************
    *************************** PROGRAM RIRPA *******************************
    ******                                                             ******
    ******              H. Eshuis, J. E. Bates and F. Furche           ******
    ******                                                             ******
    ****** Nov 2011                                                    ******
    ****** Copyright TURBOMOLE GmbH                                    ******
    *************************************************************************
    
    
                                References:                                  
    
                   RIRPA:                                                    
                     H. Eshuis, J. Yarkony and F. Furche                     
                     Fast computation of molecular random phase              
                     approximation correlation energies using resolution     
                     of the identity imaginary frequency integration         
                     J. Chem. Phys. 132: 234114 (2010)                       
    
                     H. Eshuis, J. E. Bates and F. Furche                    
                     Electron correlation methods based on                   
                     the random phase approximation                          
                     Theor. Chem. Acc.  131: 1084 (2012)                     
    
                   TWO-COMPONENT RIRPA:                                      
                     M. Kuehn                                                
                     Correlation energies from the                           
                     two-component random-phase approximation                
                     J. Chem. Theory Comput. 10: 623 (2014)                  
    
                   RIRPA GRADIENTS:                                          
                     Asbjoern M. Burow, Jefferson E. Bates, Filipp Furche*,  
                     and Henk Eshuis                                         
                     Analytical First-Order Molecular Properties and Forces  
                     within the Adiabatic Connection Random Phase            
                     Approximation                                           
                     J. Chem. Theory Comput. 10: 180 (2014)                  
    
    
    
      ... OpenMP parallelization enabled, threads:   20

   *-----------------------------------------------------------------------*
   |                     program will use 20 thread(s)                     |
   *-----------------------------------------------------------------------*
 
                FOUND RI-J FLAG
 
  HF exact exchange energy will be computed using RI-J.
 
  The HXX energy will NOT be computed due to nohxx option. 
 


              +--------------------------------------------------+
              | Atomic coordinate, charge and isotop information |
              +--------------------------------------------------+

                    atomic coordinates            atom    charge  isotop
         -5.66350922    4.31235504   -2.49632822    c      0.000     0
         -9.61114711    3.98543241   -0.17007535    c      0.000     0
         -8.35258951    4.12149270    2.06169121    c      0.000     0
         -5.64650169    4.31424476    1.95208710    c      0.000     0
          2.20908985    4.48809957    1.92374120    c      0.000     0
          2.21853848    4.55990916   -2.76466933    c      0.000     0
          5.90728389    4.46920230   -0.76722881    c      0.000     0
          4.89061123    4.48620984    1.67807681    c      0.000     0
          8.87793337    4.32180367    2.18641314    c      0.000     0
         -8.32046416    4.09314680   -2.39239328    n      0.000     0
         -4.40306189    4.42573860   -0.26456166    n      0.000     0
         -4.26511188    4.38605435    4.06858036    n      0.000     0
          1.01478293    4.53723245   -0.45731372    n      0.000     0
          4.72053588    4.51266601   -3.01789263    n      0.000     0
          6.77844764    4.39550299    3.49410362    n      0.000     0
          8.47920116    4.38416463   -0.40440139    n      0.000     0
          0.74833155    4.66951327   -4.84903726    n      0.000     0
         -4.63738793    4.36715709   -4.60337286    o      0.000     0
          0.91084800    4.42195915    3.89094611    o      0.000     0
         -9.20485599    3.85315158   -4.07424954    h      0.000     0
        -11.64071298    3.75488583   -0.29857673    h      0.000     0
         -9.35414436    4.00243995    3.83992350    h      0.000     0
         -5.11926809    4.10259543    5.75232635    h      0.000     0
         -2.29034807    4.40495162    3.99110159    h      0.000     0
         -0.96187060    4.51644546   -0.41951920    h      0.000     0
         10.76199033    4.20275092    2.96498030    h      0.000     0
          9.78689164    4.18385366   -1.78579120    h      0.000     0
          1.64406174    4.40306189   -6.51388598    h      0.000     0
         -1.19052746    4.50321737   -4.77911739    h      0.000     0
         11.64638216   -1.85382134    1.95586655    c      6.000     0
         10.94340404   -1.85382134    4.43896669    c      6.000     0
          8.33747170   -1.79335010    5.17029070    c      6.000     0
          6.45908392   -1.78012202    3.22954196    c      6.000     0
          7.18851821   -1.80279873    0.64439661    c      6.000     0
          9.80578890   -1.78957065   -0.03212534    c      6.000     0
          5.31768934   -1.71776105   -1.27556514    c      6.000     0
         10.48042113   -1.68752544   -2.59081453    c      6.000     0
          8.66061487   -1.57603159   -4.51455573    c      6.000     0
          6.03956472   -1.61193639   -3.85504131    c      6.000     0
          9.32579847   -1.42296378   -7.13749560    c      6.000     0
          7.52299974   -1.31524939   -8.97808886    c      6.000     0
          4.88116260   -1.37572062   -8.37715595    c      6.000     0
          4.16306667   -1.54579598   -5.77689279    c      6.000     0
          1.56280351   -1.60626721   -5.11926809    c      6.000     0
          0.83714868   -1.73287886   -2.53034329    c      6.000     0
          2.70608782   -1.72343023   -0.61227127    c      6.000     0
          3.86071049   -1.76122476    3.89472556    c      6.000     0
          1.98232271   -1.75555558    1.96909463    c      6.000     0
         -0.61416099   -1.78957065    2.62860905    c      6.000     0
         -2.48498986   -1.83870353    0.71242675    c      6.000     0
         -1.76122476   -1.77445284   -1.86704942    c      6.000     0
         -0.31369454   -1.56280351   -7.03545039    c      6.000     0
         -2.91584742   -1.66484872   -6.37404625    c      6.000     0
         -3.63961253   -1.80657818   -3.79645980    c      6.000     0
          3.00088510   -1.29257267  -10.23853619    c      6.000     0
          0.42329865   -1.39461789   -9.63004437    c      6.000     0
         -4.81124273   -1.63461310   -8.29967718    c      6.000     0
         -7.36237301   -1.76878366   -7.60803741    c      6.000     0
         -8.11637374   -1.92185148   -5.07580439    c      6.000     0
         -6.23798596   -1.90862339   -3.13127620    c      6.000     0
         -5.09470165   -1.94830764    1.37572062    c      6.000     0
         -6.96364080   -2.03145559   -0.54613085    c      6.000     0
         -1.51933981   -1.35304391  -11.51977051    c      6.000     0
         -4.01566803   -1.47398638  -10.88482253    c      6.000     0
         -9.57902177   -2.15995697    0.13228083    c      6.000     0
        -11.41772529   -2.19775149   -1.85571106    c      6.000     0
        -10.72041635   -2.06925012   -4.34070093    c      6.000     0
        -10.25365400   -2.19208231    2.69285974    c      6.000     0
         -8.43951691   -2.05224258    4.61849067    c      6.000     0
         -5.81846676   -1.93507956    3.95897625    c      6.000     0
         -3.94196871   -1.82358572    5.88082773    c      6.000     0
         -1.34359528   -1.73665832    5.21942358    c      6.000     0
          0.53101304   -1.67240763    7.13560588    c      6.000     0
          3.13316593   -1.67618708    6.47231201    c      6.000     0
          5.02667151   -1.64217201    8.39794293    c      6.000     0
          7.58158125   -1.71587133    7.70441344    c      6.000     0
          4.22920709   -1.54201652   10.98497801    c      6.000     0
         -0.20975960   -1.58925968    9.73397931    c      6.000     0
          1.73098914   -1.50989118   11.62370544    c      6.000     0
         -4.66573382   -1.73665832    8.48487034    c      6.000     0
         -2.78734605   -1.60626721   10.34814030    c      6.000     0
         -9.10847996   -1.97476381    7.24332027    c      6.000     0
         -7.30757096   -1.81035764    9.08580325    c      6.000     0
         13.63626377   -1.88783641    1.44186104    h      1.000     0
         12.37203699   -1.88405695    5.91673252    h      1.000     0
         12.47408220   -1.68185626   -3.10104058    h      1.000     0
         11.31756981   -1.39272816   -7.63638330    h      1.000     0
          8.06913059   -1.19052746  -10.95663212    h      1.000     0
          3.55457486   -1.16407130  -12.21518972    h      1.000     0
         -8.79856487   -1.76311448   -9.08013407    h      1.000     0
         -0.95809115   -1.22832199  -13.49264459    h      1.000     0
         -5.45752907   -1.44564049  -12.34936028    h      1.000     0
        -13.40571719   -2.32436314   -1.34548501    h      1.000     0
        -12.15093903   -2.10137546   -5.81657704    h      1.000     0
        -12.24542534   -2.28656862    3.19930634    h      1.000     0
          9.01588338   -1.69508434    9.17651010    h      1.000     0
          5.67295785   -1.48910419   12.44762604    h      1.000     0
          1.16785075   -1.43241241   13.59846925    h      1.000     0
         -3.34292553   -1.54012680   12.32668356    h      1.000     0
        -11.09836158   -2.05413231    7.74598742    h      1.000     0
         -7.85748126   -1.74988640   11.06623623    h      1.000     0
 
       center of nuclear mass  :    0.00041850   -0.00628277    0.01160794
       center of nuclear charge:    0.10984724   -1.72920992    0.05068002
              +-------------------------------------------------+
              |        Rotational Constants Section             |
              +-------------------------------------------------+
                                   Center of Mass [a.u]:
               0.00041849577927        -0.00628277190474         0.01160794398237
                     Principal Moments of Inertia [a.u.]
           36371.85282608037232     43271.25341954863688     65548.01395176218648
                       Rotational constants A,B,C [a.u.]
               0.00001374689385         0.00001155501541         0.00000762799618
                     Rotational constants A,B,C [cm**-1]
               0.00165511740038         0.00139121661008         0.00091840595721
                        Rotational constants A,B,C [MHz]
              49.61917137380401        41.70762471476578        27.53311793532291

   * BASIS SET information:

              +--------------------------------------------------+
              |               basis set information              |
              +--------------------------------------------------+

              we will work with the 1s 3p 5d 7f 9g ... basis set
              ...i.e. with spherical basis functions...

   type   atoms  prim   cont   basis
   ---------------------------------------------------------------------------
    c       63     77     55   cc-pVQZ   [5s4p3d2f1g|21s6p3d2f1g]
    n        8     77     55   cc-pVQZ   [5s4p3d2f1g|21s6p3d2f1g]
    o        2     77     55   cc-pVQZ   [5s4p3d2f1g|21s6p3d2f1g]
    h       28     32     30   cc-pVQZ   [4s3p2d1f|6s3p2d1f]
   ---------------------------------------------------------------------------
   total:  101   6517   4855
   ---------------------------------------------------------------------------

   total number of primitive shells          :  111
   total number of contracted shells         : 1375
   total number of cartesian basis functions : 6090
   total number of SCF-basis functions       : 4855


   * AUXILIARY BASIS SET information:

              +--------------------------------------------------+
              |               basis set information              |
              +--------------------------------------------------+

              we will work with the 1s 3p 5d 7f 9g ... basis set
              ...i.e. with spherical basis functions...

   type   atoms  prim   cont   basis
   ---------------------------------------------------------------------------
    c       63    132    132   cc-pVQZ   [8s7p6d5f3g1h|8s7p6d5f3g1h]
    n        8    132    132   cc-pVQZ   [8s7p6d5f3g1h|8s7p6d5f3g1h]
    o        2    132    132   cc-pVQZ   [8s7p6d5f3g1h|8s7p6d5f3g1h]
    h       28     55     55   cc-pVQZ   [5s4p3d2f1g|5s4p3d2f1g]
   ---------------------------------------------------------------------------
   total:  101  11176  11176
   ---------------------------------------------------------------------------

   total number of primitive shells          :  105
   total number of contracted shells         : 2610
   total number of cartesian basis functions :15173
   total number of SCF-basis functions       :11176


   * RIJ AUXILIARY BASIS SET information:

              +--------------------------------------------------+
              |               basis set information              |
              +--------------------------------------------------+

              we will work with the 1s 3p 5d 7f 9g ... basis set
              ...i.e. with spherical basis functions...

   type   atoms  prim   cont   basis
   ---------------------------------------------------------------------------
    c       63     70     49   cc-pVQZ   [6s4p3d1f1g|12s5p4d2f1g]
    n        8     70     49   cc-pVQZ   [6s4p3d1f1g|12s5p4d2f1g]
    o        2     70     49   cc-pVQZ   [6s4p3d1f1g|12s5p4d2f1g]
    h       28     16     11   cc-pVQZ   [3s1p1d|5s2p1d]
   ---------------------------------------------------------------------------
   total:  101   5558   3885
   ---------------------------------------------------------------------------

   total number of primitive shells          :   80
   total number of contracted shells         : 1235
   total number of cartesian basis functions : 4789
   total number of SCF-basis functions       : 3885


 reading orbital data $scfmo  from file mos
 orbital characterization : scfconv=9

 integral neglect threshold       :  0.34E+02

 scfconv                     9

 MAXIMUM CORE MEMORY WHICH CAN BE ALLOCATED DYNAMICALLY = 114440 MiB
              ( or 15000000000 double words per process)


 there are 1 real representations :   a   

 maximum number of shells which are related by symmetry :  1

 entered riccmos at 2019-11-20 17:32:19.502
  MOs are in ASCII format !


 reading orbital data $scfmo  from file mos
 orbital characterization : scfconv=9
 time elapsed for calculating density matrices :   3.831 sec



              +--------------------------------------------+
              | list of orbitals that will be kept frozen: |
              +--------------------------------------------+
              |   irrep   index      energy     occ/vir    |
              +--------------------------------------------+
              |   a         1       -9.9062     occupied   |
              |   a         2       -9.9061     occupied   |
              |   a         3       -9.9060     occupied   |
              |   a         4       -9.9058     occupied   |
              |   a         5       -9.9057     occupied   |
              |   a         6       -9.9057     occupied   |
              |   a         7       -9.9056     occupied   |
              |   a         8       -9.9055     occupied   |
              |   a         9       -9.9055     occupied   |
              |   a        10       -9.9054     occupied   |
              |   a        11       -9.9054     occupied   |
              |   a       ...        ...        occupied   |
              |   a        54       -9.8949     occupied   |
              +--------------------------------------------+



   Molecular Orbital Statistic:
   ============================

   -----------------------------
   orbitals in total:
   -----------------------------
    frozen occupied :     54
    active occupied :    117
    active virtual  :   4684
    frozen virtual  :      0
    all together    :   4855
   -----------------------------


     time in riccmoinp     cpu: 14.10 sec    wall: 10.60 sec    ratio:  1.3
     time in scfdens       cpu:  3.83 sec    wall:  3.83 sec    ratio:  1.0
     time in mkiao         cpu:  0.00 sec    wall:  0.00 sec    ratio:  0.0
     time in rir12loc      cpu:  0.00 sec    wall:  0.00 sec    ratio:  0.0
     time in riccmos       cpu: 29.12 sec    wall: 18.00 sec    ratio:  1.6
 leave riccmos at 2019-11-20 17:32:37.505

     total memory allocated for calculation of (Q|P)**(-1/2) : 1430 MiB


     calculation of (P|Q) ...
     time in lp2sym        cpu: 43.15 sec    wall:  2.30 sec    ratio: 18.8


     calculation of the Cholesky decomposition of (P|Q)**(-1) ...
     time in invmetri      cpu:  1 min 37 s  wall:  0 min 11 s  ratio:  9.0

   threshold for RMS(d[D]) in SCF was     :  0.10E-06
   integral neglect threshold             :  0.22E-14
   derivative integral neglect threshold  :  0.10E-06


 setting up bound for integral derivative estimation

 increment for numerical differentiation : 0.00050000
 total memory allocated for calculation of (Q|P)**(-1/2) : 1430 MiB
 Dividing biap into                    142  block chunks,
 using                   399 MiB per block
 Reserved                  56712 MiB for BLAS routines
 Estimated total memory usage:                 114391 MiB
 number of passes for ispin    1
 =    1
 
 Number of eigenvalues < 6e-3:                      0
 
 
            -----------------------------
            Complex frequency integration
            -----------------------------
 
 Number of Clenshaw-Curtis nodes:                     60
 Optimized scaling parameter    :    1.09422663426287     
 Sensitivity measure            :  -6.742958933159127E-007
 
 Done with rirpa frequency point #                     1
 Done with rirpa frequency point #                     2
 Done with rirpa frequency point #                     3
 Done with rirpa frequency point #                     4
 Done with rirpa frequency point #                     5
 Done with rirpa frequency point #                     6
 Done with rirpa frequency point #                     7
 Done with rirpa frequency point #                     8
 Done with rirpa frequency point #                     9
 Done with rirpa frequency point #                    10
 Done with rirpa frequency point #                    11
 Done with rirpa frequency point #                    12
 Done with rirpa frequency point #                    13
 Done with rirpa frequency point #                    14
 Done with rirpa frequency point #                    15
 Done with rirpa frequency point #                    16
 Done with rirpa frequency point #                    17
 Done with rirpa frequency point #                    18
 Done with rirpa frequency point #                    19
 Done with rirpa frequency point #                    20
 Done with rirpa frequency point #                    21
 Done with rirpa frequency point #                    22
 Done with rirpa frequency point #                    23
 Done with rirpa frequency point #                    24
