           Doing BLAS/Lapack in the master proc. with  8 CPUs.
           SMPCPUS    set: Shared-memory Parallelization with   8 CPUs.

           SMP Parallelization Reference:
           C. van Wullen, J. Comput. Chem. 32 (2011) 1195--1201
 operating system is UNIX !

 ridft (c-18-212.gp.local) : TURBOMOLE V7.2 ( 21454 ) 4 Oct 2017 at 12:48:15
 Copyright (C) 2017 TURBOMOLE GmbH, Karlsruhe


    2018-04-28 20:54:41.439 



                                  r i d f t

                        DFT program with RI approximation 
                                for coulomb part 




                                                 
                                 References:     
                                                 
          TURBOMOLE:                             
              R. Ahlrichs, M. Baer, M. Haeser, H. Horn, and
              C. Koelmel
              Electronic structure calculations on workstation
              computers: the program system TURBOMOLE
              Chem. Phys. Lett. 162: 165 (1989)
          Density Functional:                              
              O. Treutler and R. Ahlrichs                      
              Efficient Molecular Numerical Integration Schemes
              J. Chem. Phys. 102: 346 (1995)                   
          Parallel Version:                                
              Performance of parallel TURBOMOLE for Density    
              Functional Calculations                          
              M. v. Arnim and R. Ahlrichs                      
              J. Comp. Chem. 19: 1746 (1998)                   
          RI-J Method:                                     
              Auxiliary Basis Sets to approximate Coulomb      
              Potentials                                       
              Chem. Phys. Lett. 240: 283 (1995)                
              K. Eichkorn, O. Treutler, H. Oehm, M. Haeser     
              and R. Ahlrichs                                  
              Chem. Phys. Lett. 242: 652 (1995)                
                                                           
              Auxiliary Basis Sets for Main Row Atoms and their
              Use to approximate Coulomb Potentials            
              K. Eichkorn, F. Weigend, O. Treutler and         
              R. Ahlrichs                                      
              Theo. Chem. Acc. 97: 119 (1997)                   
                                                           
              Accurate Coulomb-fitting basis sets for H to Rn 
              F. Weigend                                        
              Phys. Chem. Chem. Phys. 8: 1057 (2006)            
                                                           
          Multipole accelerated RI-J (MARI-J):             
              Fast evaluation of the Coulomb potential for     
              electron densities using multipole accelerated   
              resolution of identity approximation             
              M. Sierka, A. Hogekamp and R. Ahlrichs           
              J. Chem. Phys. 118: 9136 (2003)                  
          RI-JK Method:                                     
              A fully direct RI-HF algorithm: Implementation,
              optimised auxiliary basis sets, demonstration of
              accuracy and efficiency                         
              F. Weigend                                      
              Phys. Chem. Chem. Phys. 4: 4285 (2002)           
          Two-component HF and DFT with spin-orbit coupling:  
              Self-consistent treatment of spin-orbit         
              interactions with efficient Hartree-Fock and    
              density functional methods                      
              M. K. Armbruster, F. Weigend, C. van Wüllen and 
              W. Klopper                                      
              Phys. Chem. Chem. Phys. 10: 1748 (2008)         
          Relativistic all-electron 2c calculations           
              An efficient implementation of two-component    
              relativistic exact-decoupling methods for large 
              molecules                                       
              D. Peng, N. Middendorf, F. Weigend, M. Reiher   
              J. Chem. Phys. 138, 184105 (2013)               
                                         




              +--------------------------------------------------+
              |      general information about current run       |
              +--------------------------------------------------+

 

 DENSITY CONVERGENCE CHECK SWITCHED ON !
 SCF CONVERGENCE IF RMS(delta[D]) <     0.1000000000E-06

 PBE functional
 exchange:    LDA + PBE
 correlation: LDA (PW) + PBE
 A DFT calculation using the RI-J approximation will be carried out.
 Allocatable memory for RI due to $ricore (MB):                  5000


              +--------------------------------------------------+
              | Atomic coordinate, charge and isotop information |
              +--------------------------------------------------+

                    atomic coordinates            atom    charge  isotop
         -2.47506832    2.23020976   -0.04756505    c      0.000     0
         -1.37061919    4.07263887    0.85550424    o      0.000     0
         -1.25784169    0.17962734   -0.92973485    n      0.000     0
          0.67006412    0.09722294   -0.86796863    h      0.000     0
         -2.23673094   -1.27291894   -1.64549055    h      0.000     0
         -5.32282815    2.18452086   -0.20901500    c      0.000     0
         -6.08610669    2.38585758    1.68768112    h      0.000     0
         -6.06493909    0.46985020   -1.06183728    h      0.000     0
         -5.93970806    3.81081347   -1.30181932    h      0.000     0
          5.25268621    2.01045258    0.25389839    c      6.000     0
          4.14828914    0.16982071   -0.65266176    o      8.000     0
          4.03553711    4.06032020    1.13800025    n      7.000     0
          2.10781734    4.14429544    1.07318015    h      1.000     0
          5.01446073    5.51155654    1.85632417    h      1.000     0
          8.10050195    2.05634341    0.41495046    c      6.000     0
          8.84103094    3.75643461    1.29780029    h      1.000     0
          8.86311264    1.89090726   -1.48569888    h      1.000     0
          8.71991404    0.41119526    1.47731733    h      1.000     0
 
       center of nuclear mass  :    1.38883792    2.12052659    0.10286393
       center of nuclear charge:    5.47189180    2.18424913    0.34302262

              +--------------------------------------------------+
              |               basis set information              |
              +--------------------------------------------------+

              we will work with the 1s 3p 5d 7f 9g ... basis set
              ...i.e. with spherical basis functions...

   type   atoms  prim   cont   basis
   ---------------------------------------------------------------------------
    c        4     77     55   cc-pVQZ   [5s4p3d2f1g|21s6p3d2f1g]
    o        2     77     55   cc-pVQZ   [5s4p3d2f1g|21s6p3d2f1g]
    n        2     77     55   cc-pVQZ   [5s4p3d2f1g|21s6p3d2f1g]
    h       10     32     30   cc-pVQZ   [4s3p2d1f|6s3p2d1f]
   ---------------------------------------------------------------------------
   total:   18    936    740
   ---------------------------------------------------------------------------

   total number of primitive shells          :  111
   total number of contracted shells         :  220
   total number of cartesian basis functions :  910
   total number of SCF-basis functions       :  740


 integral neglect threshold       :  0.37E-13
 integral storage threshold THIZE :  0.10E-04
 integral storage threshold THIME :         5

 RI-J AUXILIARY BASIS SET information:

              we will work with the 1s 3p 5d 7f 9g ... basis set
              ...i.e. with spherical basis functions...

   type   atoms  prim   cont   basis
   ---------------------------------------------------------------------------
    c        4     70     49   cc-pVQZ   [6s4p3d1f1g|12s5p4d2f1g]
    o        2     70     49   cc-pVQZ   [6s4p3d1f1g|12s5p4d2f1g]
    n        2     70     49   cc-pVQZ   [6s4p3d1f1g|12s5p4d2f1g]
    h       10     16     11   cc-pVQZ   [3s1p1d|5s2p1d]
   ---------------------------------------------------------------------------
   total:   18    720    502
   ---------------------------------------------------------------------------

   total number of primitive shells          :   80
   total number of contracted shells         :  170
   total number of cartesian basis functions :  608
   total number of SCF-basis functions       :  502


 symmetry group of the molecule :   c1 

 the group has the following generators :
   c1(z)

    1 symmetry operations found

 there are 1 real representations :   a   

 maximum number of shells which are related by symmetry :  1


    mo occupation :
   irrep   mo's   occupied
    a      740       16
 
 number of basis functions   :                    740
 number of occupied orbitals :                     16
 
  
           ------------------
           density functional
           ------------------
 Dummy atoms with grid-point found.
 DFT quadrature threshold dgrenze tightened by factor 1/10.

 PBE functional
 exchange:    LDA + PBE
 correlation: LDA (PW) + PBE
 Dummy atoms with grid-point found.
 DFT quadrature threshold dgrenze tightened by factor 1/10.

 Dummy atoms with grid-point found.
 DFT quadrature threshold dgrenze tightened by factor 1/10.


 iterations will be done with small grid
  
 spherical integration : Lebedev's spherical grid
 spherical gridsize    :                     5
    i.e. gridpoints    :                   590
 value for diffuse not defined
 radial integration    : Chebyshev 2nd kind (scaling 3)
 radial gridsize       :                     8
 integration cells     :                    18
 partition function    : becke
 partition sharpness   :                     3
  
 found dummy atom(s) with basis: included in dft

 biggest AO integral is expected to be     4.785886462
  
           ------------------------
               RI-J - INFORMATION
           ------------------------
 Contributions to RI integral batches: 
  neglected integral batches:                  7127
  direct contribution:                            0
  memory contribution:                 17183
 Memory core needed for (P|Q) and Cholesky      2 MByte
 Memory core minimum needed except of (P|Q)     3 MByte
 Total minimum memory core needed (sum)         5 MByte
  
 ****************************************
 Memory allocated for RI-J  1305 MByte
 ****************************************
                                            

          ------------------------
          nuclear repulsion energy  :   121.855627350    
          ------------------------


         -----------------
         -S,T+V- integrals
         -----------------

 1e-integrals will be neglected if expon. factor < 0.367249E-14
 Difference densities >>NOT<< switched on in parallel ridft!

 DIIS switched on: error vector is FDS-SDF
 Max. Iterations for DIIS is     :   4
 DIIS matrix (see manual) 
    Scaling factor of diagonals  :  1.200
    threshold for scaling factor :  0.000

 scf convergence criterion : increment of total energy < .1000000D-08
                  and increment of one-electron energy < .1000000D-05

  MOs are in ASCII format !


 automatic virtual orbital shift switched on 
      shift if e(lumo)-e(homo) < 0.10000000    


 reading orbital data $scfmo  from file mos
 orbital characterization : expanded
 mo provided and orthogonalized by Cholesky decomposition

 DSCF restart information will be dumped onto file mos


 Starting SCF iterations

          Overall gridpoints after grid construction =        101842

 ITERATION  ENERGY          1e-ENERGY        2e-ENERGY     RMS[dD(SAO)]   TOL
   1  -208.08673196500    -521.44814707     191.50578775    0.000D+00 0.366D-13
                            Exc = -27.7831093477     Coul =  219.288897100    
                              N = 31.999982911    
                            current damping = 0.700
 
          max. resid. norm for Fia-block=  4.114D-01 for orbital     12a         
          max. resid. fock norm         =  2.677D+01 for orbital    716a         

 ITERATION  ENERGY          1e-ENERGY        2e-ENERGY     RMS[dD(SAO)]   TOL
   2  -208.91173406171    -523.86574353     193.09838212    0.222D-02 0.366D-13
                            Exc = -27.8193942131     Coul =  220.917776333    
                              N = 31.999990122    
                            current damping = 0.650
 
          Norm of current diis error:  2.2922    
          max. resid. norm for Fia-block=  1.598D-01 for orbital      1a         
          max. resid. fock norm         =  3.017D-01 for orbital    646a         

 ITERATION  ENERGY          1e-ENERGY        2e-ENERGY     RMS[dD(SAO)]   TOL
   3  -209.02610548436    -524.96190756     194.08017472    0.121D-02 0.366D-13
                            Exc = -27.9724537300     Coul =  222.052628453    
                              N = 31.999992786    
                            current damping = 0.550
 
          Norm of current diis error:  1.0861    
          max. resid. norm for Fia-block=  6.395D-02 for orbital      1a         
          max. resid. fock norm         =  6.800D-02 for orbital    336a         

 ITERATION  ENERGY          1e-ENERGY        2e-ENERGY     RMS[dD(SAO)]   TOL
   4  -209.06037246716    -524.74055348     193.82455366    0.920D-03 0.366D-13
                            Exc = -27.9386163905     Coul =  221.763170053    
                              N = 31.999995408    
                            current damping = 0.600
 
          Norm of current diis error: 0.46521    
          max. resid. norm for Fia-block=  3.085D-02 for orbital      5a         
          max. resid. fock norm         =  6.763D-02 for orbital    675a         

 ITERATION  ENERGY          1e-ENERGY        2e-ENERGY     RMS[dD(SAO)]   TOL
   5  -209.06553437172    -525.16604201     194.24488028    0.292D-03 0.366D-13
                            Exc = -27.9977776977     Coul =  222.242657982    
                              N = 31.999996074    
                            current damping = 0.650
 
          Norm of current diis error: 0.26793    
          max. resid. norm for Fia-block=  9.472D-03 for orbital     16a         
          max. resid. fock norm         =  1.151D-02 for orbital    679a         
          mo-orthogonalization: Cholesky decomposition

 ITERATION  ENERGY          1e-ENERGY        2e-ENERGY     RMS[dD(SAO)]   TOL
   6  -209.06774060846    -525.13760644     194.21423848    0.245D-03 0.366D-13
                            Exc = -27.9947408415     Coul =  222.208979323    
                              N = 31.999996394    
                            current damping = 0.700
 
          Norm of current diis error: 0.70259E-01
          max. resid. norm for Fia-block=  3.652D-03 for orbital      1a         
          max. resid. fock norm         =  5.721D-03 for orbital    675a         

 ITERATION  ENERGY          1e-ENERGY        2e-ENERGY     RMS[dD(SAO)]   TOL
   7  -209.06791523782    -525.07753623     194.15399365    0.980D-04 0.366D-13
                            Exc = -27.9876624117     Coul =  222.141656058    
                              N = 31.999996584    
                            current damping = 0.550
 
          Norm of current diis error: 0.30488E-01
          max. resid. norm for Fia-block=  1.831D-03 for orbital      5a         
          max. resid. fock norm         =  3.042D-03 for orbital    656a         

 ITERATION  ENERGY          1e-ENERGY        2e-ENERGY     RMS[dD(SAO)]   TOL
   8  -209.06794496084    -525.10281040     194.17923809    0.304D-04 0.366D-13
                            Exc = -27.9913436920     Coul =  222.170581778    
                              N = 31.999996625    
                            current damping = 0.600
 
          Norm of current diis error: 0.86413E-02
          max. resid. norm for Fia-block=  5.631D-04 for orbital      5a         
          max. resid. fock norm         =  9.534D-04 for orbital    656a         

 ITERATION  ENERGY          1e-ENERGY        2e-ENERGY     RMS[dD(SAO)]   TOL
   9  -209.06794808469    -525.10856752     194.18499209    0.117D-04 0.366D-13
                            Exc = -27.9919698814     Coul =  222.176961968    
                              N = 31.999996647    
                            current damping = 0.450
 
          Norm of current diis error: 0.33392E-02
          max. resid. norm for Fia-block=  2.083D-04 for orbital     16a         
          max. resid. fock norm         =  3.322D-04 for orbital    424a         

 ITERATION  ENERGY          1e-ENERGY        2e-ENERGY     RMS[dD(SAO)]   TOL
  10  -209.06794841965    -525.10450235     194.18092658    0.724D-05 0.366D-13
                            Exc = -27.9916361146     Coul =  222.172562697    
                              N = 31.999996656    
                            current damping = 0.500
 
          Norm of current diis error: 0.26401E-02
          max. resid. norm for Fia-block=  1.264D-04 for orbital     15a         
          max. resid. fock norm         =  2.625D-04 for orbital    675a         
          mo-orthogonalization: Cholesky decomposition

 ITERATION  ENERGY          1e-ENERGY        2e-ENERGY     RMS[dD(SAO)]   TOL
  11  -209.06794859169    -525.10560596     194.18203002    0.110D-05 0.366D-13
                            Exc = -27.9918095517     Coul =  222.173839574    
                              N = 31.999996659    
                            current damping = 0.550
 
          Norm of current diis error: 0.11812E-02
          max. resid. norm for Fia-block=  5.057D-05 for orbital      9a         
          max. resid. fock norm         =  6.302D-05 for orbital    496a         

 ITERATION  ENERGY          1e-ENERGY        2e-ENERGY     RMS[dD(SAO)]   TOL
  12  -209.06794862148    -525.10740186     194.18382588    0.398D-06 0.366D-13
                            Exc = -27.9919715010     Coul =  222.175797385    
                              N = 31.999996659    
                            current damping = 0.400
 
          Norm of current diis error: 0.33533E-03
          max. resid. norm for Fia-block=  1.699D-05 for orbital     16a         
          max. resid. fock norm         =  2.098D-05 for orbital    695a         

 ITERATION  ENERGY          1e-ENERGY        2e-ENERGY     RMS[dD(SAO)]   TOL
  13  -209.06794862371    -525.10684490     194.18326892    0.451D-06 0.366D-13
                            Exc = -27.9918981991     Coul =  222.175167122    
                              N = 31.999996660    
                            current damping = 0.450
 
          Norm of current diis error: 0.24544E-03
          max. resid. norm for Fia-block=  7.070D-06 for orbital      8a         
          max. resid. fock norm         =  1.107D-05 for orbital    732a         

 DENSITY CONVERGED !


 ITERATION  ENERGY          1e-ENERGY        2e-ENERGY     RMS[dD(SAO)]   TOL
  14  -209.06794862491    -525.10674404     194.18316807    0.706D-07 0.366D-13
                            Exc = -27.9919032369     Coul =  222.175071307    
                              N = 31.999996660    
                            current damping = 0.300
 
          Norm of current diis error: 0.73224E-04
          max. resid. norm for Fia-block=  3.101D-06 for orbital     15a         
          max. resid. fock norm         =  5.881D-06 for orbital    675a         

 DENSITY CONVERGED !


 ITERATION  ENERGY          1e-ENERGY        2e-ENERGY     RMS[dD(SAO)]   TOL
  15  -209.06794862504    -525.10686534     194.18328937    0.441D-07 0.366D-13
                            Exc = -27.9919146476     Coul =  222.175204013    
                              N = 31.999996660    
                            current damping = 0.350
 
          Norm of current diis error: 0.34623E-04
          max. resid. norm for Fia-block=  1.272D-06 for orbital     15a         
          max. resid. fock norm         =  1.711D-06 for orbital     15a         
          mo-orthogonalization: Cholesky decomposition

 ENERGY & DENSITY CONVERGED !

          Overall gridpoints after grid construction =        279127

 ITERATION  ENERGY          1e-ENERGY        2e-ENERGY     RMS[dD(SAO)]   TOL
  16  -209.06795345044    -525.10686981     194.18328901    0.161D-07 0.366D-13
                            Exc = -27.9919195079     Coul =  222.175208514    
                              N = 32.000001625    
                            current damping = 0.400
 
          Norm of current diis error: 0.11257E-04
          max. resid. norm for Fia-block=  3.640D-07 for orbital      9a         
          max. resid. fock norm         =  5.763D-07 for orbital    704a         

 End of SCF iterations

   convergence criteria satisfied after    16 iterations


                  ------------------------------------------ 
                 |  total energy      =   -209.06795345044  |
                  ------------------------------------------ 
                 :  kinetic energy    =    208.25067195798  :
                 :  potential energy  =   -417.31862540843  :
                 :  virial theorem    =      1.99609083325  :
                 :  wavefunction norm =      1.00000000000  :
                  .......................................... 


 <geterg> : there is no data group $energy 


 <skperg> : $end is missing 


 orbitals $scfmo  will be written to file mos

    irrep                 12a         13a         14a         15a         16a   
 eigenvalues H         -0.36089    -0.34829    -0.32640    -0.23783    -0.20524
            eV          -9.8205     -9.4774     -8.8819     -6.4717     -5.5848
 occupation              2.0000      2.0000      2.0000      2.0000      2.0000 

    irrep                 17a         18a         19a         20a         21a   
 eigenvalues H         -0.01509    -0.01243     0.02289     0.03956     0.06714
            eV          -0.4106     -0.3382      0.6228      1.0764      1.8270
 
 
 
 
 ==============================================================================
                           electrostatic moments
 ==============================================================================

 reference point for electrostatic moments:    0.00000   0.00000   0.00000

 
              nuc           elec       ->  total
 ------------------------------------------------------------------------------
                          charge      
 ------------------------------------------------------------------------------
          32.000000     -32.000000       0.000000
 
 ------------------------------------------------------------------------------
                       dipole moment  
 ------------------------------------------------------------------------------
   x     175.100538    -174.671894       0.428643
   y      69.895972     -68.548202       1.347770
   z      10.976724     -10.336975       0.639749
 
   | dipole moment | =     1.5523 a.u. =     3.9454 debye 
 
 ------------------------------------------------------------------------------
                     quadrupole moment
 ------------------------------------------------------------------------------
  xx    1073.261611   -1085.225753     -11.964142
  yy     230.664773    -243.095346     -12.430573
  zz      24.564649     -42.840269     -18.275620
  xy     373.569443    -367.819504       5.749938
  xz      61.415980     -58.845915       2.570066
  yz      56.992282     -55.105355       1.886927
 
     1/3  trace=     -14.223445
     anisotropy=      12.914759
 
 ==============================================================================
 


    ------------------------------------------------------------------------
         total  cpu-time :  6 minutes and 10 seconds
         total wall-time :  1 minutes and  2 seconds
    ------------------------------------------------------------------------

   ****  ridft : all done  ****


    2018-04-28 20:55:43.415 

