           Doing BLAS/Lapack in the master proc. with  8 CPUs.
           SMPCPUS    set: Shared-memory Parallelization with   8 CPUs.

           SMP Parallelization Reference:
           C. van Wullen, J. Comput. Chem. 32 (2011) 1195--1201
 operating system is UNIX !

 ridft (c-18-132.gp.local) : TURBOMOLE V7.2 ( 21454 ) 4 Oct 2017 at 12:48:15
 Copyright (C) 2017 TURBOMOLE GmbH, Karlsruhe


    2018-04-24 21:21:20.807 



                                  r i d f t

                        DFT program with RI approximation 
                                for coulomb part 




                                                 
                                 References:     
                                                 
          TURBOMOLE:                             
              R. Ahlrichs, M. Baer, M. Haeser, H. Horn, and
              C. Koelmel
              Electronic structure calculations on workstation
              computers: the program system TURBOMOLE
              Chem. Phys. Lett. 162: 165 (1989)
          Density Functional:                              
              O. Treutler and R. Ahlrichs                      
              Efficient Molecular Numerical Integration Schemes
              J. Chem. Phys. 102: 346 (1995)                   
          Parallel Version:                                
              Performance of parallel TURBOMOLE for Density    
              Functional Calculations                          
              M. v. Arnim and R. Ahlrichs                      
              J. Comp. Chem. 19: 1746 (1998)                   
          RI-J Method:                                     
              Auxiliary Basis Sets to approximate Coulomb      
              Potentials                                       
              Chem. Phys. Lett. 240: 283 (1995)                
              K. Eichkorn, O. Treutler, H. Oehm, M. Haeser     
              and R. Ahlrichs                                  
              Chem. Phys. Lett. 242: 652 (1995)                
                                                           
              Auxiliary Basis Sets for Main Row Atoms and their
              Use to approximate Coulomb Potentials            
              K. Eichkorn, F. Weigend, O. Treutler and         
              R. Ahlrichs                                      
              Theo. Chem. Acc. 97: 119 (1997)                   
                                                           
              Accurate Coulomb-fitting basis sets for H to Rn 
              F. Weigend                                        
              Phys. Chem. Chem. Phys. 8: 1057 (2006)            
                                                           
          Multipole accelerated RI-J (MARI-J):             
              Fast evaluation of the Coulomb potential for     
              electron densities using multipole accelerated   
              resolution of identity approximation             
              M. Sierka, A. Hogekamp and R. Ahlrichs           
              J. Chem. Phys. 118: 9136 (2003)                  
          RI-JK Method:                                     
              A fully direct RI-HF algorithm: Implementation,
              optimised auxiliary basis sets, demonstration of
              accuracy and efficiency                         
              F. Weigend                                      
              Phys. Chem. Chem. Phys. 4: 4285 (2002)           
          Two-component HF and DFT with spin-orbit coupling:  
              Self-consistent treatment of spin-orbit         
              interactions with efficient Hartree-Fock and    
              density functional methods                      
              M. K. Armbruster, F. Weigend, C. van Wüllen and 
              W. Klopper                                      
              Phys. Chem. Chem. Phys. 10: 1748 (2008)         
          Relativistic all-electron 2c calculations           
              An efficient implementation of two-component    
              relativistic exact-decoupling methods for large 
              molecules                                       
              D. Peng, N. Middendorf, F. Weigend, M. Reiher   
              J. Chem. Phys. 138, 184105 (2013)               
                                         




              +--------------------------------------------------+
              |      general information about current run       |
              +--------------------------------------------------+

 

 DENSITY CONVERGENCE CHECK SWITCHED ON !
 SCF CONVERGENCE IF RMS(delta[D]) <     0.1000000000E-06

 TPSS meta-GGA functional
 exchange:    LDA + TPSS
 correlation: LDA (PW) + TPSS
 A DFT calculation using the RI-J approximation will be carried out.
 Allocatable memory for RI due to $ricore (MB):                   500


              +--------------------------------------------------+
              | Atomic coordinate, charge and isotop information |
              +--------------------------------------------------+

                    atomic coordinates            atom    charge  isotop
         -1.77863148    1.49296180    0.02214552    n      7.000     0
         -1.74375469   -1.04384341    0.06685615    c      6.000     0
          0.10816889   -1.91918319    0.09704672    h      1.000     0
         -3.92405235   -2.51903919    0.07424801    c      6.000     0
         -3.77289293   -4.55534684    0.11126179    h      1.000     0
         -6.26692322   -1.32911912    0.03325738    c      6.000     0
         -7.99651765   -2.41711901    0.03740480    h      1.000     0
         -6.32849493    1.29827739   -0.01339052    c      6.000     0
         -8.09831579    2.31700180   -0.04659875    h      1.000     0
         -4.04987930    2.61279878   -0.01679976    c      6.000     0
         -4.04042296    4.65940812   -0.05250221    h      1.000     0
          4.78707557   -1.79529520    0.08034717    n      7.000     0
          7.05810840   -2.91623583    0.08427750    c      6.000     0
          7.04823675   -4.96273828    0.12564203    h      1.000     0
          9.33699762   -1.60295448    0.03892146    c      6.000     0
         11.10660960   -2.62252821    0.04476829    h      1.000     0
          9.27592619    1.02434018   -0.01351222    c      6.000     0
         11.00573413    2.11140713   -0.04976002    h      1.000     0
          6.93326988    2.21540835   -0.01819327    c      6.000     0
          6.78252126    4.25169896   -0.05804488    h      1.000     0
          4.75268925    0.74140379    0.02941586    c      6.000     0
          2.90092695    1.61759909    0.02627354    h      1.000     0
 
       center of nuclear mass  :    1.50436021   -0.15177249    0.03069996
       center of nuclear charge:    1.50436283   -0.15178471    0.03027885

              +--------------------------------------------------+
              |               basis set information              |
              +--------------------------------------------------+

              we will work with the 1s 3p 5d 7f 9g ... basis set
              ...i.e. with spherical basis functions...

   type   atoms  prim   cont   basis
   ---------------------------------------------------------------------------
    n        2     77     57   def2-QZVP   [7s4p3d2f1g|15s8p3d2f1g]
    c       10     77     57   def2-QZVP   [7s4p3d2f1g|15s8p3d2f1g]
    h       10     33     30   def2-QZVP   [4s3p2d1f|7s3p2d1f]
   ---------------------------------------------------------------------------
   total:   22   1254    984
   ---------------------------------------------------------------------------

   total number of primitive shells          :   71
   total number of contracted shells         :  304
   total number of cartesian basis functions : 1214
   total number of SCF-basis functions       :  984


 integral neglect threshold       :  0.27E-13
 integral storage threshold THIZE :  0.10E-04
 integral storage threshold THIME :         5

 RI-J AUXILIARY BASIS SET information:

              we will work with the 1s 3p 5d 7f 9g ... basis set
              ...i.e. with spherical basis functions...

   type   atoms  prim   cont   basis
   ---------------------------------------------------------------------------
    n        2     70     49   def2-QZVP   [6s4p3d1f1g|12s5p4d2f1g]
    c       10     70     49   def2-QZVP   [6s4p3d1f1g|12s5p4d2f1g]
    h       10     16     11   def2-QZVP   [3s1p1d|5s2p1d]
   ---------------------------------------------------------------------------
   total:   22   1000    698
   ---------------------------------------------------------------------------

   total number of primitive shells          :   56
   total number of contracted shells         :  230
   total number of cartesian basis functions :  852
   total number of SCF-basis functions       :  698


 symmetry group of the molecule :   c1 

 the group has the following generators :
   c1(z)

    1 symmetry operations found

 there are 1 real representations :   a   

 maximum number of shells which are related by symmetry :  1


    mo occupation :
   irrep   mo's   occupied
    a      984       42
 
 number of basis functions   :                    984
 number of occupied orbitals :                     42
 
  
           ------------------
           density functional
           ------------------
 TPSS meta-GGA functional
 exchange:    LDA + TPSS
 correlation: LDA (PW) + TPSS

 iterations will be done with small grid
  
 spherical integration : Lebedev's spherical grid
 spherical gridsize    :                     5
    i.e. gridpoints    :                   590
 value for diffuse not defined
 radial integration    : Chebyshev 2nd kind (scaling 3)
 radial gridsize       :                     8
 integration cells     :                    22
 partition function    : becke
 partition sharpness   :                     3
  

 biggest AO integral is expected to be     6.129561670
  
           ------------------------
               RI-J - INFORMATION
           ------------------------
 Contributions to RI integral batches: 
  neglected integral batches:                 16954
  direct contribution:                        21483
  memory contribution:                  7923
 Memory core needed for (P|Q) and Cholesky      4 MByte
 Memory core minimum needed except of (P|Q)     1 MByte
 Total minimum memory core needed (sum)         5 MByte
  
 ****************************************
 Memory allocated for RI-J   218 MByte
 ****************************************
                                            

          ------------------------
          nuclear repulsion energy  :   577.235386769    
          ------------------------


         -----------------
         -S,T+V- integrals
         -----------------

 1e-integrals will be neglected if expon. factor < 0.275285E-14
 Difference densities >>NOT<< switched on in parallel ridft!

 DIIS switched on: error vector is FDS-SDF
 Max. Iterations for DIIS is     :   4
 DIIS matrix (see manual) 
    Scaling factor of diagonals  :  1.200
    threshold for scaling factor :  0.000

 scf convergence criterion : increment of total energy < .1000000D-08
                  and increment of one-electron energy < .1000000D-05

  MOs are in ASCII format !


 automatic virtual orbital shift switched on 
      shift if e(lumo)-e(homo) < 0.10000000    


 reading orbital data $scfmo  from file mos
 orbital characterization : expanded
 mo provided and orthogonalized by Cholesky decomposition

 DSCF restart information will be dumped onto file mos


 Starting SCF iterations

          Overall gridpoints after grid construction =        108762

 ITERATION  ENERGY          1e-ENERGY        2e-ENERGY     RMS[dD(SAO)]   TOL
   1  -494.90872084046    -1796.9123569     724.76824930    0.000D+00 0.275D-13
                            Exc = -70.2701213262     Coul =  795.038370628    
                              N = 84.000085893    
                            current damping = 0.700
 
          max. resid. norm for Fia-block=  6.052D-01 for orbital     14a         
          max. resid. fock norm         =  4.933D+01 for orbital    847a         

 ITERATION  ENERGY          1e-ENERGY        2e-ENERGY     RMS[dD(SAO)]   TOL
   2  -496.48858415135    -1808.8126444     735.08867345    0.404D-02 0.275D-13
                            Exc = -71.2950316535     Coul =  806.383705106    
                              N = 84.000083669    
                            current damping = 0.650
 
          Norm of current diis error:  4.2276    
          max. resid. norm for Fia-block=  1.382D-01 for orbital      1a         
          max. resid. fock norm         =  2.047D-01 for orbital    906a         

 ITERATION  ENERGY          1e-ENERGY        2e-ENERGY     RMS[dD(SAO)]   TOL
   3  -496.76236911163    -1811.9978419     738.00008601    0.194D-02 0.275D-13
                            Exc = -71.7053131948     Coul =  809.705399207    
                              N = 84.000074850    
                            current damping = 0.550
 
          Norm of current diis error:  2.0627    
          max. resid. norm for Fia-block=  5.832D-02 for orbital     42a         
          max. resid. fock norm         =  6.089D-02 for orbital     13a         

 ITERATION  ENERGY          1e-ENERGY        2e-ENERGY     RMS[dD(SAO)]   TOL
   4  -496.85312917720    -1813.1445933     739.05607731    0.109D-02 0.275D-13
                            Exc = -71.8454413321     Coul =  810.901518639    
                              N = 84.000075371    
                            current damping = 0.450
 
          Norm of current diis error: 0.81309    
          max. resid. norm for Fia-block=  2.791D-02 for orbital     13a         
          max. resid. fock norm         =  4.912D-02 for orbital    877a         

 ITERATION  ENERGY          1e-ENERGY        2e-ENERGY     RMS[dD(SAO)]   TOL
   5  -496.86417581252    -1814.7071345     740.60757196    0.495D-03 0.275D-13
                            Exc = -71.9966278881     Coul =  812.604199851    
                              N = 84.000074191    
                            current damping = 0.350
 
          Norm of current diis error: 0.49502    
          max. resid. norm for Fia-block=  1.430D-02 for orbital     42a         
          max. resid. fock norm         =  1.555D-02 for orbital     42a         
          mo-orthogonalization: Cholesky decomposition

 ITERATION  ENERGY          1e-ENERGY        2e-ENERGY     RMS[dD(SAO)]   TOL
   6  -496.87010086885    -1814.1784451     740.07295744    0.416D-03 0.275D-13
                            Exc = -71.9764270313     Coul =  812.049384475    
                              N = 84.000074183    
                            current damping = 0.400
 
          Norm of current diis error: 0.20084    
          max. resid. norm for Fia-block=  3.542D-03 for orbital     40a         
          max. resid. fock norm         =  8.947D-03 for orbital    978a         

 ITERATION  ENERGY          1e-ENERGY        2e-ENERGY     RMS[dD(SAO)]   TOL
   7  -496.87095376016    -1814.3980309     740.29169041    0.635D-04 0.275D-13
                            Exc = -71.9879084249     Coul =  812.279598838    
                              N = 84.000074088    
                            current damping = 0.450
 
          Norm of current diis error: 0.72048E-01
          max. resid. norm for Fia-block=  1.639D-03 for orbital     26a         
          max. resid. fock norm         =  4.214D-03 for orbital    978a         

 ITERATION  ENERGY          1e-ENERGY        2e-ENERGY     RMS[dD(SAO)]   TOL
   8  -496.87105905492    -1814.4498823     740.34343649    0.172D-04 0.275D-13
                            Exc = -71.9956963431     Coul =  812.339132836    
                              N = 84.000074041    
                            current damping = 0.300
 
          Norm of current diis error: 0.20958E-01
          max. resid. norm for Fia-block=  4.275D-04 for orbital     42a         
          max. resid. fock norm         =  8.440D-04 for orbital    978a         

 ITERATION  ENERGY          1e-ENERGY        2e-ENERGY     RMS[dD(SAO)]   TOL
   9  -496.87106855665    -1814.4465038     740.34004843    0.126D-04 0.275D-13
                            Exc = -71.9951331639     Coul =  812.335181595    
                              N = 84.000074018    
                            current damping = 0.350
 
          Norm of current diis error: 0.77540E-02
          max. resid. norm for Fia-block=  2.177D-04 for orbital     39a         
          max. resid. fock norm         =  5.255D-04 for orbital    975a         

 ITERATION  ENERGY          1e-ENERGY        2e-ENERGY     RMS[dD(SAO)]   TOL
  10  -496.87106894243    -1814.4408875     740.33443183    0.348D-05 0.275D-13
                            Exc = -71.9949462350     Coul =  812.329378062    
                              N = 84.000074013    
                            current damping = 0.200
 
          Norm of current diis error: 0.67622E-02
          max. resid. norm for Fia-block=  1.070D-04 for orbital     38a         
          max. resid. fock norm         =  2.127D-04 for orbital    975a         
          mo-orthogonalization: Cholesky decomposition

 ITERATION  ENERGY          1e-ENERGY        2e-ENERGY     RMS[dD(SAO)]   TOL
  11  -496.87106978008    -1814.4459870     740.33953044    0.167D-05 0.275D-13
                            Exc = -71.9951823543     Coul =  812.334712790    
                              N = 84.000074006    
                            current damping = 0.250
 
          Norm of current diis error: 0.31193E-02
          max. resid. norm for Fia-block=  7.020D-05 for orbital     38a         
          max. resid. fock norm         =  1.147D-04 for orbital    978a         

 ITERATION  ENERGY          1e-ENERGY        2e-ENERGY     RMS[dD(SAO)]   TOL
  12  -496.87106998714    -1814.4431366     740.33667986    0.120D-05 0.275D-13
                            Exc = -71.9950286104     Coul =  812.331708474    
                              N = 84.000074009    
                            current damping = 0.300
 
          Norm of current diis error: 0.10824E-02
          max. resid. norm for Fia-block=  1.640D-05 for orbital     40a         
          max. resid. fock norm         =  3.395D-05 for orbital    978a         

 ITERATION  ENERGY          1e-ENERGY        2e-ENERGY     RMS[dD(SAO)]   TOL
  13  -496.87107001395    -1814.4444973     740.33804055    0.330D-06 0.275D-13
                            Exc = -71.9951097423     Coul =  812.333150296    
                              N = 84.000074008    
                            current damping = 0.350
 
          Norm of current diis error: 0.23516E-03
          max. resid. norm for Fia-block=  6.478D-06 for orbital     39a         
          max. resid. fock norm         =  1.547D-05 for orbital    982a         

 DENSITY CONVERGED !


 ITERATION  ENERGY          1e-ENERGY        2e-ENERGY     RMS[dD(SAO)]   TOL
  14  -496.87107001490    -1814.4441331     740.33767627    0.634D-07 0.275D-13
                            Exc = -71.9950924809     Coul =  812.332768755    
                              N = 84.000074007    
                            current damping = 0.400
 
          Norm of current diis error: 0.12616E-03
          max. resid. norm for Fia-block=  2.073D-06 for orbital     39a         
          max. resid. fock norm         =  5.398D-06 for orbital    982a         

 ENERGY & DENSITY CONVERGED !

          Overall gridpoints after grid construction =        348908

 ITERATION  ENERGY          1e-ENERGY        2e-ENERGY     RMS[dD(SAO)]   TOL
  15  -496.87083178753    -1814.4441416     740.33792303    0.210D-07 0.275D-13
                            Exc = -71.9948515954     Coul =  812.332774628    
                              N = 83.999997888    
                            current damping = 0.450
 
          Norm of current diis error: 0.24352E-04
          max. resid. norm for Fia-block=  4.764D-07 for orbital     29a         
          max. resid. fock norm         =  7.942D-07 for orbital    917a         

 End of SCF iterations

   convergence criteria satisfied after    15 iterations


                  ------------------------------------------ 
                 |  total energy      =   -496.87083178753  |
                  ------------------------------------------ 
                 :  kinetic energy    =    494.70058150666  :
                 :  potential energy  =   -991.57141329419  :
                 :  virial theorem    =      1.99563216405  :
                 :  wavefunction norm =      1.00000000000  :
                  .......................................... 


 <geterg> : there is no data group $energy 


 <skperg> : $end is missing 


 orbitals $scfmo  will be written to file mos

    irrep                 38a         39a         40a         41a         42a   
 eigenvalues H         -0.26210    -0.23938    -0.23849    -0.22678    -0.21139
            eV          -7.1323     -6.5139     -6.4896     -6.1710     -5.7523
 occupation              2.0000      2.0000      2.0000      2.0000      2.0000 

    irrep                 43a         44a         45a         46a         47a   
 eigenvalues H         -0.05869    -0.05636    -0.04384    -0.04012     0.01410
            eV          -1.5970     -1.5337     -1.1930     -1.0919      0.3837
 
 
 
 
 ==============================================================================
                           electrostatic moments
 ==============================================================================

 reference point for electrostatic moments:    0.00000   0.00000   0.00000

 
              nuc           elec       ->  total
 ------------------------------------------------------------------------------
                          charge      
 ------------------------------------------------------------------------------
          84.000000     -84.000000       0.000000
 
 ------------------------------------------------------------------------------
                       dipole moment  
 ------------------------------------------------------------------------------
   x     126.366478    -126.366249       0.000229
   y     -12.749915      12.749512      -0.000404
   z       2.543424      -2.556564      -0.013140
 
   | dipole moment | =     0.0131 a.u. =     0.0334 debye 
 
 ------------------------------------------------------------------------------
                     quadrupole moment
 ------------------------------------------------------------------------------
  xx    3138.406839   -3174.739588     -36.332749
  yy     363.946757    -411.526139     -47.579383
  zz       0.230352     -56.046668     -55.816316
  xy    -122.933866     123.784663       0.850797
  xz       5.113448      -5.149158      -0.035709
  yz      -7.181494       7.025900      -0.155594
 
     1/3  trace=     -46.576149
     anisotropy=      17.006458
 
 ==============================================================================
 


    ------------------------------------------------------------------------
         total  cpu-time : 18 minutes and 33 seconds
         total wall-time :  2 minutes and 39 seconds
    ------------------------------------------------------------------------

   ****  ridft : all done  ****


    2018-04-24 21:24:00.242 

