
 eiger (gplogin1.local) : TURBOMOLE V7.2 ( 21285 ) 30 Jun 2017 at 11:51:10
 Copyright (C) 2017 TURBOMOLE GmbH, Karlsruhe


    2017-11-01 16:28:20.443 

                                                                                
  
 HOMO-LUMO Separation
   HOMO:    60.    60 a     -0.18944748 H =     -5.15513 eV
   LUMO:    61.    61 a     -0.07656893 H =     -2.08355 eV
   Gap :                    +0.11287855 H =     +3.07158 eV
 
Number of MOs=    708, Electrons=    120.00, Symmetry: c1   
 
   Nr.   Orbital    Occupation       Energy
   77.    77 a                     +0.122039 H =        +3.321 eV
   76.    76 a                     +0.103336 H =        +2.812 eV
   75.    75 a                     +0.094282 H =        +2.566 eV
   74.    74 a                     +0.081467 H =        +2.217 eV
   73.    73 a                     +0.076737 H =        +2.088 eV
   72.    72 a                     +0.063819 H =        +1.737 eV
   71.    71 a                     +0.059749 H =        +1.626 eV
   70.    70 a                     +0.057218 H =        +1.557 eV
   69.    69 a                     +0.041303 H =        +1.124 eV
   68.    68 a                     +0.038000 H =        +1.034 eV
   67.    67 a                     +0.033910 H =        +0.923 eV
   66.    66 a                     +0.032859 H =        +0.894 eV
   65.    65 a                     -0.012152 H =        -0.331 eV
   64.    64 a                     -0.012491 H =        -0.340 eV
   63.    63 a                     -0.052290 H =        -1.423 eV
   62.    62 a                     -0.062956 H =        -1.713 eV
   61.    61 a                     -0.076569 H =        -2.084 eV
   60.    60 a        2.000        -0.189447 H =        -5.155 eV
   59.    59 a        2.000        -0.207004 H =        -5.633 eV
   58.    58 a        2.000        -0.220378 H =        -5.997 eV
   57.    57 a        2.000        -0.251092 H =        -6.833 eV
   56.    56 a        2.000        -0.257761 H =        -7.014 eV
   55.    55 a        2.000        -0.281983 H =        -7.673 eV
   54.    54 a        2.000        -0.289432 H =        -7.876 eV
   53.    53 a        2.000        -0.293913 H =        -7.998 eV
   52.    52 a        2.000        -0.305958 H =        -8.326 eV
   51.    51 a        2.000        -0.307928 H =        -8.379 eV
   50.    50 a        2.000        -0.316922 H =        -8.624 eV
   49.    49 a        2.000        -0.338176 H =        -9.202 eV
   48.    48 a        2.000        -0.345925 H =        -9.413 eV
   47.    47 a        2.000        -0.358839 H =        -9.765 eV
   46.    46 a        2.000        -0.359066 H =        -9.771 eV
   45.    45 a        2.000        -0.366473 H =        -9.972 eV


    ------------------------------------------------------------------------
         total  cpu-time :   0.38 seconds
         total wall-time :   0.44 seconds
    ------------------------------------------------------------------------

   ****  eiger : all done  ****


    2017-11-01 16:28:20.874 

