
   OpenMP run-time library returned nthreads = 28
 operating system is UNIX !

 dscf (c-15-25) : TURBOMOLE V7.3 ( 22142 ) 4 Jul 2018 at 18:12:42
 Copyright (C) 2018 TURBOMOLE GmbH, Karlsruhe


    2019-04-01 23:28:27.560 



                             d s c f - program

                   idea & directorship : reinhart ahlrichs
                   program development : marco haeser
                                         michael baer
                           dft version : oliver treutler


                          quantum chemistry group
                          universitaet  karlsruhe
                                  germany




                          References             
                                                 
          TURBOMOLE:                             
              R. Ahlrichs, M. Baer, M. Haeser, H. Horn, and
              C. Koelmel
              Electronic structure calculations on workstation
              computers: the program system TURBOMOLE
              Chem. Phys. Lett. 162: 165 (1989)
          Density Functional:                              
              O. Treutler and R. Ahlrichs                      
              Efficient Molecular Numerical Integration Schemes
              J. Chem. Phys. 102: 346 (1995)                   
          Parallel Version:                                
              Performance of parallel TURBOMOLE for Density    
              Functional Calculations                          
              M. v. Arnim and R. Ahlrichs                      
              J. Comp. Chem. 19: 1746 (1998)                   
                                         




              +--------------------------------------------------+
              | Atomic coordinate, charge and isotop information |
              +--------------------------------------------------+

                    atomic coordinates            atom    charge  isotop
          1.58096746    2.10677253    0.43654166    c      6.000     0
          2.80709840    3.74105396    0.40573347    h      1.000     0
          2.61573587   -0.31551874    0.49143629    c      6.000     0
          4.64435004   -0.55990229    0.50278010    h      1.000     0
          1.03458602   -2.42233886    0.54222008    c      6.000     0
          1.83665854   -4.30097733    0.59314100    h      1.000     0
         -1.58107167   -2.10705154    0.53774575    c      6.000     0
         -2.80728932   -3.74084235    0.58524410    h      1.000     0
         -2.61568850    0.31530109    0.48302420    c      6.000     0
         -4.64427540    0.56022683    0.48857084    h      1.000     0
         -1.03462190    2.42215319    0.43270464    c      6.000     0
         -1.83708070    4.30101926    0.39903632    h      1.000     0
 
       center of nuclear mass  :   -0.00002121   -0.00009746    0.48793471
       center of nuclear charge:   -0.00002607   -0.00008371    0.48848908

              +--------------------------------------------------+
              |               basis set information              |
              +--------------------------------------------------+

              we will work with the 1s 3p 5d 7f 9g ... basis set
              ...i.e. with spherical basis functions...

   type   atoms  prim   cont   basis
   ---------------------------------------------------------------------------
    c        6     50     30   cc-pVTZ   [4s3p2d1f|18s5p2d1f]
    h        6     16     14   cc-pVTZ   [3s2p1d|5s2p1d]
   ---------------------------------------------------------------------------
   total:   12    396    264
   ---------------------------------------------------------------------------

   total number of primitive shells          :   34
   total number of contracted shells         :   96
   total number of cartesian basis functions :  300
   total number of SCF-basis functions       :  264


 integral neglect threshold       :  0.11E-12
 integral storage threshold THIZE :  0.10E-04
 integral storage threshold THIME :         5


 DENSITY CONVERGENCE CHECK SWITCHED ON !
 SCF CONVERGENCE IF RMS(delta[D]) <     0.1000000000E-06


 symmetry group of the molecule :   c1 

 the group has the following generators :
   c1(z)

    1 symmetry operations found

 there are 1 real representations :   a   

 maximum number of shells which are related by symmetry :  1


    mo occupation :
   irrep   mo's   occupied
    a      264       21
 
 number of basis functions   :                    264
 number of occupied orbitals :                     21
 

 automatic virtual orbital shift switched on 
      shift if e(lumo)-e(homo) < 0.10000000    


          ------------------------
          nuclear repulsion energy  :   203.651561686    
          ------------------------


         -----------------
         -S,T+V- integrals
         -----------------

 1e-integrals will be neglected if expon. factor < 0.111399E-13
 
   Difference densities algorithm switched on.
   The maximal number of linear combinations of
   difference densities is                    20 .

 DIIS switched on: error vector is FDS-SDF
 Max. Iterations for DIIS is     :   5
 DIIS matrix (see manual) 
    Scaling factor of diagonals  :  1.200
    threshold for scaling factor :  0.000

 scf convergence criterion : increment of total energy < .1000000D-08
                  and increment of one-electron energy < .1000000D-05

  MOs are in ASCII format !


 reading orbital data $scfmo  from file mos
 orbital characterization : scfconv=9

 DSCF restart information will be dumped onto file mos

 
                                              current damping :  0.700
 ITERATION  ENERGY          1e-ENERGY        2e-ENERGY     RMS[dD(SAO)]   TOL
   1  -230.73079193810    -714.72081305     280.33845942    0.000D+00 0.111D-12
          max. resid. norm for Fia-block=  9.459D-02 for orbital      6a         
          max. resid. fock norm         =  1.605D-01 for orbital    264a         
          Delta Eig. =    20.8290545218 eV 
 
                                              current damping :  0.650
 ITERATION  ENERGY          1e-ENERGY        2e-ENERGY     RMS[dD(SAO)]   TOL
   2  -230.76966969683    -713.84161677     279.42038539    0.118D-02 0.708D-13
          Norm of current diis error: 0.41744    
          max. resid. norm for Fia-block=  4.561D-02 for orbital      6a         
          max. resid. fock norm         =  5.495D-02 for orbital    264a         
          Delta Eig. =     9.7691869726 eV 
 
                                              current damping :  0.600
 ITERATION  ENERGY          1e-ENERGY        2e-ENERGY     RMS[dD(SAO)]   TOL
   3  -230.77748100794    -713.94658966     279.51754697    0.582D-03 0.536D-13
          Norm of current diis error: 0.18612    
          max. resid. norm for Fia-block=  1.880D-02 for orbital      6a         
          max. resid. fock norm         =  2.319D-02 for orbital    264a         
          Delta Eig. =     3.7382482638 eV 
 
                                              current damping :  0.650
 ITERATION  ENERGY          1e-ENERGY        2e-ENERGY     RMS[dD(SAO)]   TOL
   4  -230.77911490686    -713.86257522     279.43189863    0.262D-03 0.470D-13
          Norm of current diis error: 0.75019E-01
          max. resid. norm for Fia-block=  7.044D-03 for orbital      6a         
          max. resid. fock norm         =  8.512D-03 for orbital    264a         
          Delta Eig. =     1.3731157924 eV 
 
                                              current damping :  0.500
 ITERATION  ENERGY          1e-ENERGY        2e-ENERGY     RMS[dD(SAO)]   TOL
   5  -230.77937883636    -713.84857817     279.41763764    0.104D-03 0.434D-13
          Norm of current diis error: 0.31526E-01
          max. resid. norm for Fia-block=  2.728D-03 for orbital      6a         
          max. resid. fock norm         =  3.393D-03 for orbital    264a         
 mo-orthogonalization: Cholesky decomposition
          Delta Eig. =     0.5882435243 eV 
 
                                              current damping :  0.350
 ITERATION  ENERGY          1e-ENERGY        2e-ENERGY     RMS[dD(SAO)]   TOL
   6  -230.77942885956    -713.84045161     279.40946107    0.484D-04 0.402D-13
          Norm of current diis error: 0.11418E-01
          max. resid. norm for Fia-block=  1.001D-03 for orbital     14a         
          max. resid. fock norm         =  1.141D-03 for orbital    264a         
          Delta Eig. =     0.2159468706 eV 
 
                                              current damping :  0.200
 ITERATION  ENERGY          1e-ENERGY        2e-ENERGY     RMS[dD(SAO)]   TOL
   7  -230.77943598195    -713.83702343     279.40602577    0.198D-04 0.373D-13
          Norm of current diis error: 0.33531E-02
          max. resid. norm for Fia-block=  3.056D-04 for orbital     14a         
          max. resid. fock norm         =  3.056D-04 for orbital     14a         
          Delta Eig. =     0.0635544544 eV 
 
                                              current damping :  0.050
 ITERATION  ENERGY          1e-ENERGY        2e-ENERGY     RMS[dD(SAO)]   TOL
   8  -230.77943666387    -713.83630900     279.40531065    0.680D-05 0.343D-13
          Norm of current diis error: 0.71969E-03
          max. resid. norm for Fia-block=  6.594D-05 for orbital     14a         
          max. resid. fock norm         =  6.594D-05 for orbital     14a         
          Delta Eig. =     0.0116067677 eV 
 
                                              current damping :  0.050
 ITERATION  ENERGY          1e-ENERGY        2e-ENERGY     RMS[dD(SAO)]   TOL
   9  -230.77943670198    -713.83594800     279.40494961    0.184D-05 0.320D-13
          Norm of current diis error: 0.10861E-03
          max. resid. norm for Fia-block=  1.072D-05 for orbital     14a         
          max. resid. fock norm         =  1.072D-05 for orbital     14a         
          Delta Eig. =     0.0006717812 eV 
 
                                              current damping :  0.100
 ITERATION  ENERGY          1e-ENERGY        2e-ENERGY     RMS[dD(SAO)]   TOL
  10  -230.77943670307    -713.83600565     279.40500726    0.336D-06 0.308D-13
          Norm of current diis error: 0.27246E-04
          max. resid. norm for Fia-block=  3.472D-06 for orbital     17a         
          max. resid. fock norm         =  3.472D-06 for orbital     17a         
 mo-orthogonalization: Cholesky decomposition
          Delta Eig. =     0.0000855849 eV 

 DENSITY CONVERGED !

 
                                              current damping :  0.150
 ITERATION  ENERGY          1e-ENERGY        2e-ENERGY     RMS[dD(SAO)]   TOL
  11  -230.77943670314    -713.83596039     279.40496200    0.797D-07 0.302D-13
          Norm of current diis error: 0.10157E-04
          max. resid. norm for Fia-block=  7.347D-07 for orbital     17a         
          max. resid. fock norm         =  7.543D-07 for orbital     18a         
          Delta Eig. =     0.0000312712 eV 

 DENSITY CONVERGED !

 
                                              current damping :  0.200
 ITERATION  ENERGY          1e-ENERGY        2e-ENERGY     RMS[dD(SAO)]   TOL
  12  -230.77943670316    -713.83597628     279.40497789    0.211D-07 0.298D-13
          Norm of current diis error: 0.23566E-05
          max. resid. norm for Fia-block=  3.104D-07 for orbital     17a         
          max. resid. fock norm         =  3.104D-07 for orbital     17a         
          Delta Eig. =     0.0000047001 eV 

 ENERGY & DENSITY CONVERGED !

 
                                              current damping :  0.250
 ITERATION  ENERGY          1e-ENERGY        2e-ENERGY     RMS[dD(SAO)]   TOL
  13  -230.77943670316    -713.83597448     279.40497609    0.474D-08 0.317D-13
          max. resid. norm for Fia-block=  5.170D-08 for orbital     17a         
          max. resid. fock norm         =  5.170D-08 for orbital     17a         

 convergence criteria satisfied after    13 iterations


                  ------------------------------------------ 
                 |  total energy      =   -230.77943670316  |
                  ------------------------------------------ 
                 :  kinetic energy    =    230.45184950843  :
                 :  potential energy  =   -461.23128621158  :
                 :  virial theorem    =      1.99858051827  :
                 :  wavefunction norm =      1.00000000000  :
                  .......................................... 


 orbitals $scfmo  will be written to file mos

    irrep                 17a         18a         19a         20a         21a   
 eigenvalues H         -0.50062    -0.49320    -0.49317    -0.33516    -0.33516
            eV         -13.6228    -13.4208    -13.4200     -9.1203     -9.1202
 occupation              2.0000      2.0000      2.0000      2.0000      2.0000 

    irrep                 22a         23a         24a         25a         26a   
 eigenvalues H          0.12851     0.12852     0.14613     0.16999     0.16999
            eV           3.4968      3.4972      3.9763      4.6256      4.6257
 
 
 
 
 ==============================================================================
                           electrostatic moments
 ==============================================================================

 reference point for electrostatic moments:    0.00000   0.00000   0.00000

 
              nuc           elec       ->  total
 ------------------------------------------------------------------------------
                          charge      
 ------------------------------------------------------------------------------
          42.000000     -42.000000      -0.000000
 
 ------------------------------------------------------------------------------
                       dipole moment  
 ------------------------------------------------------------------------------
   x      -0.001095       0.001071      -0.000024
   y      -0.003516       0.003683       0.000167
   z      20.516542     -20.509257       0.007285
 
   | dipole moment | =     0.0073 a.u. =     0.0185 debye 
 
 ------------------------------------------------------------------------------
                     quadrupole moment
 ------------------------------------------------------------------------------
  xx     190.591878    -214.209660     -23.617782
  yy     190.483954    -214.105658     -23.621704
  zz      10.124448     -40.313067     -30.188619
  xy      -0.000056       0.000376       0.000320
  xz      -0.230104       0.221627      -0.008477
  yz      -4.402979       4.251474      -0.151504
 
     1/3  trace=     -25.809368
     anisotropy=       6.574132
 
 ==============================================================================
 


    ------------------------------------------------------------------------
         total  cpu-time : 10 minutes and 33 seconds
         total wall-time :  47.89 seconds
    ------------------------------------------------------------------------

   ****  dscf : all done  ****


    2019-04-01 23:29:15.384 

