           Doing BLAS/Lapack in the master proc. with  8 CPUs.
           SMPCPUS    set: Shared-memory Parallelization with   8 CPUs.

           SMP Parallelization Reference:
           C. van Wullen, J. Comput. Chem. 32 (2011) 1195--1201
 operating system is UNIX !

 ridft (c-18-263.gp.local) : TURBOMOLE V7.2 ( 21454 ) 4 Oct 2017 at 12:48:15
 Copyright (C) 2017 TURBOMOLE GmbH, Karlsruhe


    2018-04-28 21:04:58.516 



                                  r i d f t

                        DFT program with RI approximation 
                                for coulomb part 




                                                 
                                 References:     
                                                 
          TURBOMOLE:                             
              R. Ahlrichs, M. Baer, M. Haeser, H. Horn, and
              C. Koelmel
              Electronic structure calculations on workstation
              computers: the program system TURBOMOLE
              Chem. Phys. Lett. 162: 165 (1989)
          Density Functional:                              
              O. Treutler and R. Ahlrichs                      
              Efficient Molecular Numerical Integration Schemes
              J. Chem. Phys. 102: 346 (1995)                   
          Parallel Version:                                
              Performance of parallel TURBOMOLE for Density    
              Functional Calculations                          
              M. v. Arnim and R. Ahlrichs                      
              J. Comp. Chem. 19: 1746 (1998)                   
          RI-J Method:                                     
              Auxiliary Basis Sets to approximate Coulomb      
              Potentials                                       
              Chem. Phys. Lett. 240: 283 (1995)                
              K. Eichkorn, O. Treutler, H. Oehm, M. Haeser     
              and R. Ahlrichs                                  
              Chem. Phys. Lett. 242: 652 (1995)                
                                                           
              Auxiliary Basis Sets for Main Row Atoms and their
              Use to approximate Coulomb Potentials            
              K. Eichkorn, F. Weigend, O. Treutler and         
              R. Ahlrichs                                      
              Theo. Chem. Acc. 97: 119 (1997)                   
                                                           
              Accurate Coulomb-fitting basis sets for H to Rn 
              F. Weigend                                        
              Phys. Chem. Chem. Phys. 8: 1057 (2006)            
                                                           
          Multipole accelerated RI-J (MARI-J):             
              Fast evaluation of the Coulomb potential for     
              electron densities using multipole accelerated   
              resolution of identity approximation             
              M. Sierka, A. Hogekamp and R. Ahlrichs           
              J. Chem. Phys. 118: 9136 (2003)                  
          RI-JK Method:                                     
              A fully direct RI-HF algorithm: Implementation,
              optimised auxiliary basis sets, demonstration of
              accuracy and efficiency                         
              F. Weigend                                      
              Phys. Chem. Chem. Phys. 4: 4285 (2002)           
          Two-component HF and DFT with spin-orbit coupling:  
              Self-consistent treatment of spin-orbit         
              interactions with efficient Hartree-Fock and    
              density functional methods                      
              M. K. Armbruster, F. Weigend, C. van Wüllen and 
              W. Klopper                                      
              Phys. Chem. Chem. Phys. 10: 1748 (2008)         
          Relativistic all-electron 2c calculations           
              An efficient implementation of two-component    
              relativistic exact-decoupling methods for large 
              molecules                                       
              D. Peng, N. Middendorf, F. Weigend, M. Reiher   
              J. Chem. Phys. 138, 184105 (2013)               
                                         




              +--------------------------------------------------+
              |      general information about current run       |
              +--------------------------------------------------+

 

 DENSITY CONVERGENCE CHECK SWITCHED ON !
 SCF CONVERGENCE IF RMS(delta[D]) <     0.1000000000E-06

 TPSS meta-GGA functional
 exchange:    LDA + TPSS
 correlation: LDA (PW) + TPSS
 A DFT calculation using the RI-J approximation will be carried out.
 Allocatable memory for RI due to $ricore (MB):                  5000


              +--------------------------------------------------+
              | Atomic coordinate, charge and isotop information |
              +--------------------------------------------------+

                    atomic coordinates            atom    charge  isotop
          1.18312216   -1.60799188    1.52295994    n      7.000     0
          0.77325684   -3.42323994    1.95473540    h      1.000     0
         -0.81722377   -0.16504076    0.55683381    c      6.000     0
         -2.89273913   -1.11192077    0.23355612    o      8.000     0
         -0.12637471    2.44015652    0.03710929    c      6.000     0
         -1.53019350    3.68838710   -0.74235935    h      1.000     0
          2.23657039    3.24642668    0.54902820    c      6.000     0
          2.83808562    5.16626679    0.20755398    h      1.000     0
          4.03292084    1.67543422    1.54784023    n      7.000     0
          5.77374816    2.31283841    1.97179275    h      1.000     0
          3.59573912   -0.83748588    2.13220021    c      6.000     0
          5.18504248   -2.19949672    3.07758398    o      8.000     0
         -1.17862634   -0.05615881    8.94197459    c      0.000     0
         -3.66691602    1.34467401    9.34802554    c      0.000     0
         -5.00308733    0.17643362   10.39656340    h      0.000     0
         -3.36550553    3.08357079   10.41418071    h      0.000     0
         -4.53186214    1.83883176    7.54304671    h      0.000     0
         -0.01561969   -0.72405969   11.49551889    c      0.000     0
          1.76669852   -1.73009945   11.24837705    h      0.000     0
          0.35669596    0.97620579   12.60063478    h      0.000     0
         -1.28418154   -1.92920798   12.58539339    h      0.000     0
          0.64519422    1.63226958    7.47594567    c      0.000     0
          2.43773264    0.66360596    7.15402327    h      0.000     0
          1.03313647    3.36729602    8.52176995    h      0.000     0
         -0.15301739    2.15853300    5.64770284    h      0.000     0
         -1.67244427   -2.47507325    7.44840140    c      0.000     0
         -2.54878285   -2.05586831    5.62930446    h      0.000     0
          0.08986953   -3.49249976    7.10893727    h      0.000     0
         -2.93952040   -3.72572040    8.48810022    h      0.000     0
 
       center of nuclear mass  :    0.49603995    0.04349379    4.25507757
       center of nuclear charge:    1.58686019    0.16947152    1.22461162

              +--------------------------------------------------+
              |               basis set information              |
              +--------------------------------------------------+

              we will work with the 1s 3p 5d 7f 9g ... basis set
              ...i.e. with spherical basis functions...

   type   atoms  prim   cont   basis
   ---------------------------------------------------------------------------
    n        2     77     55   cc-pVQZ   [5s4p3d2f1g|21s6p3d2f1g]
    h       16     32     30   cc-pVQZ   [4s3p2d1f|6s3p2d1f]
    c        9     77     55   cc-pVQZ   [5s4p3d2f1g|21s6p3d2f1g]
    o        2     77     55   cc-pVQZ   [5s4p3d2f1g|21s6p3d2f1g]
   ---------------------------------------------------------------------------
   total:   29   1513   1195
   ---------------------------------------------------------------------------

   total number of primitive shells          :  111
   total number of contracted shells         :  355
   total number of cartesian basis functions : 1470
   total number of SCF-basis functions       : 1195


 integral neglect threshold       :  0.23E-13
 integral storage threshold THIZE :  0.10E-04
 integral storage threshold THIME :         5

 RI-J AUXILIARY BASIS SET information:

              we will work with the 1s 3p 5d 7f 9g ... basis set
              ...i.e. with spherical basis functions...

   type   atoms  prim   cont   basis
   ---------------------------------------------------------------------------
    n        2     70     49   cc-pVQZ   [6s4p3d1f1g|12s5p4d2f1g]
    h       16     16     11   cc-pVQZ   [3s1p1d|5s2p1d]
    c        9     70     49   cc-pVQZ   [6s4p3d1f1g|12s5p4d2f1g]
    o        2     70     49   cc-pVQZ   [6s4p3d1f1g|12s5p4d2f1g]
   ---------------------------------------------------------------------------
   total:   29   1166    813
   ---------------------------------------------------------------------------

   total number of primitive shells          :   80
   total number of contracted shells         :  275
   total number of cartesian basis functions :  985
   total number of SCF-basis functions       :  813


 symmetry group of the molecule :   c1 

 the group has the following generators :
   c1(z)

    1 symmetry operations found

 there are 1 real representations :   a   

 maximum number of shells which are related by symmetry :  1


    mo occupation :
   irrep   mo's   occupied
    a     1195       29
 
 number of basis functions   :                   1195
 number of occupied orbitals :                     29
 
  
           ------------------
           density functional
           ------------------
 Dummy atoms with grid-point found.
 DFT quadrature threshold dgrenze tightened by factor 1/10.

 TPSS meta-GGA functional
 exchange:    LDA + TPSS
 correlation: LDA (PW) + TPSS
 Dummy atoms with grid-point found.
 DFT quadrature threshold dgrenze tightened by factor 1/10.

 Dummy atoms with grid-point found.
 DFT quadrature threshold dgrenze tightened by factor 1/10.


 iterations will be done with small grid
  
 spherical integration : Lebedev's spherical grid
 spherical gridsize    :                     5
    i.e. gridpoints    :                   590
 value for diffuse not defined
 radial integration    : Chebyshev 2nd kind (scaling 3)
 radial gridsize       :                     8
 integration cells     :                    29
 partition function    : becke
 partition sharpness   :                     3
  
 found dummy atom(s) with basis: included in dft

 biggest AO integral is expected to be     4.785886462
  
           ------------------------
               RI-J - INFORMATION
           ------------------------
 Contributions to RI integral batches: 
  neglected integral batches:                 19430
  direct contribution:                         2463
  memory contribution:                 41297
 Memory core needed for (P|Q) and Cholesky      6 MByte
 Memory core minimum needed except of (P|Q)     6 MByte
 Total minimum memory core needed (sum)        11 MByte
  
 ****************************************
 Memory allocated for RI-J  4757 MByte
 ****************************************
                                            

          ------------------------
          nuclear repulsion energy  :   357.127131193    
          ------------------------


         -----------------
         -S,T+V- integrals
         -----------------

 1e-integrals will be neglected if expon. factor < 0.227344E-14
 Difference densities >>NOT<< switched on in parallel ridft!

 DIIS switched on: error vector is FDS-SDF
 Max. Iterations for DIIS is     :   4
 DIIS matrix (see manual) 
    Scaling factor of diagonals  :  1.200
    threshold for scaling factor :  0.000

 scf convergence criterion : increment of total energy < .1000000D-08
                  and increment of one-electron energy < .1000000D-05

  MOs are in ASCII format !


 automatic virtual orbital shift switched on 
      shift if e(lumo)-e(homo) < 0.10000000    


 reading orbital data $scfmo  from file mos
 orbital characterization : expanded
 mo provided and orthogonalized by Cholesky decomposition

 DSCF restart information will be dumped onto file mos


 Starting SCF iterations

          Overall gridpoints after grid construction =        154563

 ITERATION  ENERGY          1e-ENERGY        2e-ENERGY     RMS[dD(SAO)]   TOL
   1  -413.16346673142    -1261.6588780     491.36828009    0.000D+00 0.227D-13
                            Exc = -54.0869084803     Coul =  545.455188573    
                              N = 58.000042278    
                            current damping = 0.700
 
          max. resid. norm for Fia-block=  4.524D-01 for orbital     20a         
          max. resid. fock norm         =  1.762D+01 for orbital   1120a         

 ITERATION  ENERGY          1e-ENERGY        2e-ENERGY     RMS[dD(SAO)]   TOL
   2  -414.78287000824    -1268.5163978     496.60639656    0.345D-02 0.227D-13
                            Exc = -54.1137853499     Coul =  550.720181909    
                              N = 58.000041911    
                            current damping = 0.650
 
          Norm of current diis error:  3.2216    
          max. resid. norm for Fia-block=  1.666D-01 for orbital      1a         
          max. resid. fock norm         =  3.603D-01 for orbital   1070a         

 ITERATION  ENERGY          1e-ENERGY        2e-ENERGY     RMS[dD(SAO)]   TOL
   3  -414.99516910465    -1271.1749791     499.05267881    0.163D-02 0.227D-13
                            Exc = -54.3874081792     Coul =  553.440086992    
                              N = 58.000035870    
                            current damping = 0.550
 
          Norm of current diis error:  1.5238    
          max. resid. norm for Fia-block=  6.487D-02 for orbital      1a         
          max. resid. fock norm         =  7.740D-02 for orbital    936a         

 ITERATION  ENERGY          1e-ENERGY        2e-ENERGY     RMS[dD(SAO)]   TOL
   4  -415.05562155799    -1271.5658044     499.38305167    0.109D-02 0.227D-13
                            Exc = -54.3204892757     Coul =  553.703540945    
                              N = 58.000036629    
                            current damping = 0.400
 
          Norm of current diis error: 0.67154    
          max. resid. norm for Fia-block=  3.154D-02 for orbital     10a         
          max. resid. fock norm         =  7.058D-02 for orbital   1067a         

 ITERATION  ENERGY          1e-ENERGY        2e-ENERGY     RMS[dD(SAO)]   TOL
   5  -415.06408490284    -1271.8434511     499.65223496    0.441D-03 0.227D-13
                            Exc = -54.4132593576     Coul =  554.065494321    
                              N = 58.000033735    
                            current damping = 0.250
 
          Norm of current diis error: 0.43716    
          max. resid. norm for Fia-block=  1.026D-02 for orbital     27a         
          max. resid. fock norm         =  1.390D-02 for orbital   1169a         
          mo-orthogonalization: Cholesky decomposition

 ITERATION  ENERGY          1e-ENERGY        2e-ENERGY     RMS[dD(SAO)]   TOL
   6  -415.06929383873    -1272.1789222     499.98249721    0.316D-03 0.227D-13
                            Exc = -54.4053461930     Coul =  554.387843402    
                              N = 58.000034988    
                            current damping = 0.100
 
          Norm of current diis error: 0.10705    
          max. resid. norm for Fia-block=  3.451D-03 for orbital     26a         
          max. resid. fock norm         =  6.827D-03 for orbital   1090a         

 ITERATION  ENERGY          1e-ENERGY        2e-ENERGY     RMS[dD(SAO)]   TOL
   7  -415.06934949031    -1271.9450236     499.74854291    0.874D-04 0.227D-13
                            Exc = -54.3883015774     Coul =  554.136844489    
                              N = 58.000034677    
                            current damping = 0.150
 
          Norm of current diis error: 0.92828E-01
          max. resid. norm for Fia-block=  2.318D-03 for orbital     28a         
          max. resid. fock norm         =  4.117D-03 for orbital   1186a         

 ITERATION  ENERGY          1e-ENERGY        2e-ENERGY     RMS[dD(SAO)]   TOL
   8  -415.06955172042    -1272.0231042     499.82642131    0.339D-04 0.227D-13
                            Exc = -54.3982204825     Coul =  554.224641794    
                              N = 58.000034534    
                            current damping = 0.200
 
          Norm of current diis error: 0.31764E-01
          max. resid. norm for Fia-block=  1.026D-03 for orbital     29a         
          max. resid. fock norm         =  2.092D-03 for orbital   1136a         

 ITERATION  ENERGY          1e-ENERGY        2e-ENERGY     RMS[dD(SAO)]   TOL
   9  -415.06956585037    -1272.0783121     499.88161501    0.243D-04 0.227D-13
                            Exc = -54.4025618717     Coul =  554.284176881    
                              N = 58.000034770    
                            current damping = 0.050
 
          Norm of current diis error: 0.21991E-01
          max. resid. norm for Fia-block=  7.177D-04 for orbital     29a         
          max. resid. fock norm         =  1.165D-03 for orbital   1021a         

 ITERATION  ENERGY          1e-ENERGY        2e-ENERGY     RMS[dD(SAO)]   TOL
  10  -415.06957601125    -1272.0577396     499.86103240    0.171D-04 0.227D-13
                            Exc = -54.3987251598     Coul =  554.259757555    
                              N = 58.000034633    
                            current damping = 0.100
 
          Norm of current diis error: 0.13116E-01
          max. resid. norm for Fia-block=  2.843D-04 for orbital     23a         
          max. resid. fock norm         =  4.453D-04 for orbital     23a         
          mo-orthogonalization: Cholesky decomposition

 ITERATION  ENERGY          1e-ENERGY        2e-ENERGY     RMS[dD(SAO)]   TOL
  11  -415.06958057133    -1272.0521148     499.85540302    0.501D-05 0.227D-13
                            Exc = -54.3997513657     Coul =  554.255154385    
                              N = 58.000034668    
                            current damping = 0.050
 
          Norm of current diis error: 0.27413E-02
          max. resid. norm for Fia-block=  6.713D-05 for orbital     24a         
          max. resid. fock norm         =  8.972D-05 for orbital     23a         

 ITERATION  ENERGY          1e-ENERGY        2e-ENERGY     RMS[dD(SAO)]   TOL
  12  -415.06958070014    -1272.0563221     499.85961022    0.599D-06 0.227D-13
                            Exc = -54.3997156641     Coul =  554.259325881    
                              N = 58.000034660    
                            current damping = 0.100
 
          Norm of current diis error: 0.14713E-02
          max. resid. norm for Fia-block=  3.513D-05 for orbital     25a         
          max. resid. fock norm         =  7.339D-05 for orbital   1186a         

 ITERATION  ENERGY          1e-ENERGY        2e-ENERGY     RMS[dD(SAO)]   TOL
  13  -415.06958073728    -1272.0552325     499.85852059    0.351D-06 0.227D-13
                            Exc = -54.3997121113     Coul =  554.258232699    
                              N = 58.000034664    
                            current damping = 0.150
 
          Norm of current diis error: 0.66612E-03
          max. resid. norm for Fia-block=  1.685D-05 for orbital     28a         
          max. resid. fock norm         =  3.169D-05 for orbital   1160a         

 ITERATION  ENERGY          1e-ENERGY        2e-ENERGY     RMS[dD(SAO)]   TOL
  14  -415.06958074488    -1272.0547950     499.85808310    0.286D-06 0.227D-13
                            Exc = -54.3997000560     Coul =  554.257783154    
                              N = 58.000034661    
                            current damping = 0.050
 
          Norm of current diis error: 0.33592E-03
          max. resid. norm for Fia-block=  1.102D-05 for orbital     29a         
          max. resid. fock norm         =  2.505D-05 for orbital   1102a         

 ITERATION  ENERGY          1e-ENERGY        2e-ENERGY     RMS[dD(SAO)]   TOL
  15  -415.06958074656    -1272.0549633     499.85825141    0.269D-06 0.227D-13
                            Exc = -54.3997095399     Coul =  554.257960948    
                              N = 58.000034664    
                            current damping = 0.100
 
          Norm of current diis error: 0.24404E-03
          max. resid. norm for Fia-block=  5.430D-06 for orbital     29a         
          max. resid. fock norm         =  1.210D-05 for orbital   1136a         
          mo-orthogonalization: Cholesky decomposition

 ITERATION  ENERGY          1e-ENERGY        2e-ENERGY     RMS[dD(SAO)]   TOL
  16  -415.06958074836    -1272.0550237     499.85831179    0.121D-06 0.227D-13
                            Exc = -54.3997099411     Coul =  554.258021733    
                              N = 58.000034663    
                            current damping = 0.050
 
          Norm of current diis error: 0.42134E-04
          max. resid. norm for Fia-block=  1.462D-06 for orbital     28a         
          max. resid. fock norm         =  2.814D-06 for orbital   1187a         

 DENSITY CONVERGED !


 ITERATION  ENERGY          1e-ENERGY        2e-ENERGY     RMS[dD(SAO)]   TOL
  17  -415.06958074836    -1272.0549496     499.85823769    0.153D-07 0.227D-13
                            Exc = -54.3997061022     Coul =  554.257943793    
                              N = 58.000034663    
                            current damping = 0.100
 
          Norm of current diis error: 0.38831E-04
          max. resid. norm for Fia-block=  1.026D-06 for orbital     28a         
          max. resid. fock norm         =  1.898D-06 for orbital   1186a         

 DENSITY CONVERGED !


 ITERATION  ENERGY          1e-ENERGY        2e-ENERGY     RMS[dD(SAO)]   TOL
  18  -415.06958074839    -1272.0549748     499.85826287    0.859D-08 0.227D-13
                            Exc = -54.3997080276     Coul =  554.257970895    
                              N = 58.000034663    
                            current damping = 0.150
 
          Norm of current diis error: 0.13955E-04
          max. resid. norm for Fia-block=  3.260D-07 for orbital     28a         
          max. resid. fock norm         =  7.467D-07 for orbital   1185a         

 ENERGY & DENSITY CONVERGED !

          Overall gridpoints after grid construction =        439045

 ITERATION  ENERGY          1e-ENERGY        2e-ENERGY     RMS[dD(SAO)]   TOL
  19  -415.06947114833    -1272.0549853     499.85838291    0.306D-08 0.227D-13
                            Exc = -54.3995983331     Coul =  554.257981246    
                              N = 57.999995453    
                            current damping = 0.050
 
          Norm of current diis error: 0.59083E-05
          max. resid. norm for Fia-block=  1.141D-07 for orbital     24a         
          max. resid. fock norm         =  3.150D-07 for orbital   1185a         

 End of SCF iterations

   convergence criteria satisfied after    19 iterations


                  ------------------------------------------ 
                 |  total energy      =   -415.06947114833  |
                  ------------------------------------------ 
                 :  kinetic energy    =    413.58146303025  :
                 :  potential energy  =   -828.65093417858  :
                 :  virial theorem    =      1.99641503839  :
                 :  wavefunction norm =      1.00000000000  :
                  .......................................... 


 <geterg> : there is no data group $energy 


 <skperg> : $end is missing 


 orbitals $scfmo  will be written to file mos

    irrep                 25a         26a         27a         28a         29a   
 eigenvalues H         -0.34214    -0.26248    -0.26024    -0.23336    -0.23039
            eV          -9.3103     -7.1426     -7.0816     -6.3501     -6.2692
 occupation              2.0000      2.0000      2.0000      2.0000      2.0000 

    irrep                 30a         31a         32a         33a         34a   
 eigenvalues H         -0.08025    -0.03102    -0.01342     0.01491     0.03247
            eV          -2.1837     -0.8441     -0.3653      0.4057      0.8835
 
 
 
 
 ==============================================================================
                           electrostatic moments
 ==============================================================================

 reference point for electrostatic moments:    0.00000   0.00000   0.00000

 
              nuc           elec       ->  total
 ------------------------------------------------------------------------------
                          charge      
 ------------------------------------------------------------------------------
          58.000000     -58.000000       0.000000
 
 ------------------------------------------------------------------------------
                       dipole moment  
 ------------------------------------------------------------------------------
   x      92.037891     -91.205362       0.832529
   y       9.829348      -8.332194       1.497154
   z      71.027474     -71.219016      -0.191542
 
   | dipole moment | =     1.7237 a.u. =     4.3813 debye 
 
 ------------------------------------------------------------------------------
                     quadrupole moment
 ------------------------------------------------------------------------------
  xx     561.693231    -599.749739     -38.056508
  yy     247.038185    -275.952325     -28.914141
  zz     148.473125    -184.003497     -35.530373
  xy      12.658159      -6.667289       5.990870
  xz     243.794774    -246.036096      -2.241321
  yz     -59.044726      60.755886       1.711160
 
     1/3  trace=     -34.167007
     anisotropy=      14.085301
 
 ==============================================================================
 


    ------------------------------------------------------------------------
         total  cpu-time : 38 minutes and 40 seconds
         total wall-time :  5 minutes and 53 seconds
    ------------------------------------------------------------------------

   ****  ridft : all done  ****


    2018-04-28 21:10:51.510 

