           Doing BLAS/Lapack in the master proc. with  8 CPUs.
           SMPCPUS    set: Shared-memory Parallelization with   8 CPUs.

           SMP Parallelization Reference:
           C. van Wullen, J. Comput. Chem. 32 (2011) 1195--1201
 operating system is UNIX !

 ridft (c-18-213.gp.local) : TURBOMOLE V7.2 ( 21454 ) 4 Oct 2017 at 12:48:15
 Copyright (C) 2017 TURBOMOLE GmbH, Karlsruhe


    2018-04-28 20:56:42.102 



                                  r i d f t

                        DFT program with RI approximation 
                                for coulomb part 




                                                 
                                 References:     
                                                 
          TURBOMOLE:                             
              R. Ahlrichs, M. Baer, M. Haeser, H. Horn, and
              C. Koelmel
              Electronic structure calculations on workstation
              computers: the program system TURBOMOLE
              Chem. Phys. Lett. 162: 165 (1989)
          Density Functional:                              
              O. Treutler and R. Ahlrichs                      
              Efficient Molecular Numerical Integration Schemes
              J. Chem. Phys. 102: 346 (1995)                   
          Parallel Version:                                
              Performance of parallel TURBOMOLE for Density    
              Functional Calculations                          
              M. v. Arnim and R. Ahlrichs                      
              J. Comp. Chem. 19: 1746 (1998)                   
          RI-J Method:                                     
              Auxiliary Basis Sets to approximate Coulomb      
              Potentials                                       
              Chem. Phys. Lett. 240: 283 (1995)                
              K. Eichkorn, O. Treutler, H. Oehm, M. Haeser     
              and R. Ahlrichs                                  
              Chem. Phys. Lett. 242: 652 (1995)                
                                                           
              Auxiliary Basis Sets for Main Row Atoms and their
              Use to approximate Coulomb Potentials            
              K. Eichkorn, F. Weigend, O. Treutler and         
              R. Ahlrichs                                      
              Theo. Chem. Acc. 97: 119 (1997)                   
                                                           
              Accurate Coulomb-fitting basis sets for H to Rn 
              F. Weigend                                        
              Phys. Chem. Chem. Phys. 8: 1057 (2006)            
                                                           
          Multipole accelerated RI-J (MARI-J):             
              Fast evaluation of the Coulomb potential for     
              electron densities using multipole accelerated   
              resolution of identity approximation             
              M. Sierka, A. Hogekamp and R. Ahlrichs           
              J. Chem. Phys. 118: 9136 (2003)                  
          RI-JK Method:                                     
              A fully direct RI-HF algorithm: Implementation,
              optimised auxiliary basis sets, demonstration of
              accuracy and efficiency                         
              F. Weigend                                      
              Phys. Chem. Chem. Phys. 4: 4285 (2002)           
          Two-component HF and DFT with spin-orbit coupling:  
              Self-consistent treatment of spin-orbit         
              interactions with efficient Hartree-Fock and    
              density functional methods                      
              M. K. Armbruster, F. Weigend, C. van Wüllen and 
              W. Klopper                                      
              Phys. Chem. Chem. Phys. 10: 1748 (2008)         
          Relativistic all-electron 2c calculations           
              An efficient implementation of two-component    
              relativistic exact-decoupling methods for large 
              molecules                                       
              D. Peng, N. Middendorf, F. Weigend, M. Reiher   
              J. Chem. Phys. 138, 184105 (2013)               
                                         




              +--------------------------------------------------+
              |      general information about current run       |
              +--------------------------------------------------+

 

 DENSITY CONVERGENCE CHECK SWITCHED ON !
 SCF CONVERGENCE IF RMS(delta[D]) <     0.1000000000E-06

 PBE functional
 exchange:    LDA + PBE
 correlation: LDA (PW) + PBE
 A DFT calculation using the RI-J approximation will be carried out.
 Allocatable memory for RI due to $ricore (MB):                  5000


              +--------------------------------------------------+
              | Atomic coordinate, charge and isotop information |
              +--------------------------------------------------+

                    atomic coordinates            atom    charge  isotop
          1.18312216   -1.60799188    1.52295994    n      7.000     0
          0.77325684   -3.42323994    1.95473540    h      1.000     0
         -0.81722377   -0.16504076    0.55683381    c      6.000     0
         -2.89273913   -1.11192077    0.23355612    o      8.000     0
         -0.12637471    2.44015652    0.03710929    c      6.000     0
         -1.53019350    3.68838710   -0.74235935    h      1.000     0
          2.23657039    3.24642668    0.54902820    c      6.000     0
          2.83808562    5.16626679    0.20755398    h      1.000     0
          4.03292084    1.67543422    1.54784023    n      7.000     0
          5.77374816    2.31283841    1.97179275    h      1.000     0
          3.59573912   -0.83748588    2.13220021    c      6.000     0
          5.18504248   -2.19949672    3.07758398    o      8.000     0
         -1.17862634   -0.05615881    8.94197459    c      0.000     0
         -3.66691602    1.34467401    9.34802554    c      0.000     0
         -5.00308733    0.17643362   10.39656340    h      0.000     0
         -3.36550553    3.08357079   10.41418071    h      0.000     0
         -4.53186214    1.83883176    7.54304671    h      0.000     0
         -0.01561969   -0.72405969   11.49551889    c      0.000     0
          1.76669852   -1.73009945   11.24837705    h      0.000     0
          0.35669596    0.97620579   12.60063478    h      0.000     0
         -1.28418154   -1.92920798   12.58539339    h      0.000     0
          0.64519422    1.63226958    7.47594567    c      0.000     0
          2.43773264    0.66360596    7.15402327    h      0.000     0
          1.03313647    3.36729602    8.52176995    h      0.000     0
         -0.15301739    2.15853300    5.64770284    h      0.000     0
         -1.67244427   -2.47507325    7.44840140    c      0.000     0
         -2.54878285   -2.05586831    5.62930446    h      0.000     0
          0.08986953   -3.49249976    7.10893727    h      0.000     0
         -2.93952040   -3.72572040    8.48810022    h      0.000     0
 
       center of nuclear mass  :    0.49603995    0.04349379    4.25507757
       center of nuclear charge:    1.58686019    0.16947152    1.22461162

              +--------------------------------------------------+
              |               basis set information              |
              +--------------------------------------------------+

              we will work with the 1s 3p 5d 7f 9g ... basis set
              ...i.e. with spherical basis functions...

   type   atoms  prim   cont   basis
   ---------------------------------------------------------------------------
    n        2     77     55   cc-pVQZ   [5s4p3d2f1g|21s6p3d2f1g]
    h       16     32     30   cc-pVQZ   [4s3p2d1f|6s3p2d1f]
    c        9     77     55   cc-pVQZ   [5s4p3d2f1g|21s6p3d2f1g]
    o        2     77     55   cc-pVQZ   [5s4p3d2f1g|21s6p3d2f1g]
   ---------------------------------------------------------------------------
   total:   29   1513   1195
   ---------------------------------------------------------------------------

   total number of primitive shells          :  111
   total number of contracted shells         :  355
   total number of cartesian basis functions : 1470
   total number of SCF-basis functions       : 1195


 integral neglect threshold       :  0.23E-13
 integral storage threshold THIZE :  0.10E-04
 integral storage threshold THIME :         5

 RI-J AUXILIARY BASIS SET information:

              we will work with the 1s 3p 5d 7f 9g ... basis set
              ...i.e. with spherical basis functions...

   type   atoms  prim   cont   basis
   ---------------------------------------------------------------------------
    n        2     70     49   cc-pVQZ   [6s4p3d1f1g|12s5p4d2f1g]
    h       16     16     11   cc-pVQZ   [3s1p1d|5s2p1d]
    c        9     70     49   cc-pVQZ   [6s4p3d1f1g|12s5p4d2f1g]
    o        2     70     49   cc-pVQZ   [6s4p3d1f1g|12s5p4d2f1g]
   ---------------------------------------------------------------------------
   total:   29   1166    813
   ---------------------------------------------------------------------------

   total number of primitive shells          :   80
   total number of contracted shells         :  275
   total number of cartesian basis functions :  985
   total number of SCF-basis functions       :  813


 symmetry group of the molecule :   c1 

 the group has the following generators :
   c1(z)

    1 symmetry operations found

 there are 1 real representations :   a   

 maximum number of shells which are related by symmetry :  1


    mo occupation :
   irrep   mo's   occupied
    a     1195       29
 
 number of basis functions   :                   1195
 number of occupied orbitals :                     29
 
  
           ------------------
           density functional
           ------------------
 Dummy atoms with grid-point found.
 DFT quadrature threshold dgrenze tightened by factor 1/10.

 PBE functional
 exchange:    LDA + PBE
 correlation: LDA (PW) + PBE
 Dummy atoms with grid-point found.
 DFT quadrature threshold dgrenze tightened by factor 1/10.

 Dummy atoms with grid-point found.
 DFT quadrature threshold dgrenze tightened by factor 1/10.


 iterations will be done with small grid
  
 spherical integration : Lebedev's spherical grid
 spherical gridsize    :                     5
    i.e. gridpoints    :                   590
 value for diffuse not defined
 radial integration    : Chebyshev 2nd kind (scaling 3)
 radial gridsize       :                     8
 integration cells     :                    29
 partition function    : becke
 partition sharpness   :                     3
  
 found dummy atom(s) with basis: included in dft

 biggest AO integral is expected to be     4.785886462
  
           ------------------------
               RI-J - INFORMATION
           ------------------------
 Contributions to RI integral batches: 
  neglected integral batches:                 19430
  direct contribution:                         2463
  memory contribution:                 41297
 Memory core needed for (P|Q) and Cholesky      6 MByte
 Memory core minimum needed except of (P|Q)     6 MByte
 Total minimum memory core needed (sum)        11 MByte
  
 ****************************************
 Memory allocated for RI-J  4757 MByte
 ****************************************
                                            

          ------------------------
          nuclear repulsion energy  :   357.127131193    
          ------------------------


         -----------------
         -S,T+V- integrals
         -----------------

 1e-integrals will be neglected if expon. factor < 0.227344E-14
 Difference densities >>NOT<< switched on in parallel ridft!

 DIIS switched on: error vector is FDS-SDF
 Max. Iterations for DIIS is     :   4
 DIIS matrix (see manual) 
    Scaling factor of diagonals  :  1.200
    threshold for scaling factor :  0.000

 scf convergence criterion : increment of total energy < .1000000D-08
                  and increment of one-electron energy < .1000000D-05

  MOs are in ASCII format !


 automatic virtual orbital shift switched on 
      shift if e(lumo)-e(homo) < 0.10000000    


 reading orbital data $scfmo  from file mos
 orbital characterization : expanded
 mo provided and orthogonalized by Cholesky decomposition

 DSCF restart information will be dumped onto file mos


 Starting SCF iterations

          Overall gridpoints after grid construction =        154563

 ITERATION  ENERGY          1e-ENERGY        2e-ENERGY     RMS[dD(SAO)]   TOL
   1  -412.62231610959    -1261.6588780     491.90943071    0.000D+00 0.227D-13
                            Exc = -53.5457578585     Coul =  545.455188573    
                              N = 58.000042278    
                            current damping = 0.700
 
          max. resid. norm for Fia-block=  4.559D-01 for orbital     20a         
          max. resid. fock norm         =  1.762D+01 for orbital   1120a         

 ITERATION  ENERGY          1e-ENERGY        2e-ENERGY     RMS[dD(SAO)]   TOL
   2  -414.27066949722    -1268.5582559     497.16045517    0.343D-02 0.227D-13
                            Exc = -53.5652688149     Coul =  550.725723985    
                              N = 58.000041227    
                            current damping = 0.650
 
          Norm of current diis error:  3.1454    
          max. resid. norm for Fia-block=  1.654D-01 for orbital      1a         
          max. resid. fock norm         =  3.651D-01 for orbital   1072a         

 ITERATION  ENERGY          1e-ENERGY        2e-ENERGY     RMS[dD(SAO)]   TOL
   3  -414.47772112368    -1271.1840365     499.57918420    0.168D-02 0.227D-13
                            Exc = -53.8315854405     Coul =  553.410769641    
                              N = 58.000035049    
                            current damping = 0.550
 
          Norm of current diis error:  1.4942    
          max. resid. norm for Fia-block=  6.614D-02 for orbital      1a         
          max. resid. fock norm         =  7.509D-02 for orbital    617a         

 ITERATION  ENERGY          1e-ENERGY        2e-ENERGY     RMS[dD(SAO)]   TOL
   4  -414.53614198335    -1271.4522533     499.78898015    0.116D-02 0.227D-13
                            Exc = -53.7441370378     Coul =  553.533117184    
                              N = 58.000036062    
                            current damping = 0.400
 
          Norm of current diis error: 0.69795    
          max. resid. norm for Fia-block=  3.160D-02 for orbital     10a         
          max. resid. fock norm         =  6.939D-02 for orbital   1074a         

 ITERATION  ENERGY          1e-ENERGY        2e-ENERGY     RMS[dD(SAO)]   TOL
   5  -414.54540685872    -1271.7127232     500.04018513    0.482D-03 0.227D-13
                            Exc = -53.8357305280     Coul =  553.875915656    
                              N = 58.000033094    
                            current damping = 0.250
 
          Norm of current diis error: 0.44667    
          max. resid. norm for Fia-block=  9.830D-03 for orbital     26a         
          max. resid. fock norm         =  1.181D-02 for orbital    995a         
          mo-orthogonalization: Cholesky decomposition

 ITERATION  ENERGY          1e-ENERGY        2e-ENERGY     RMS[dD(SAO)]   TOL
   6  -414.55072084421    -1272.0819786     500.40412654    0.336D-03 0.227D-13
                            Exc = -53.8328945589     Coul =  554.237021100    
                              N = 58.000034586    
                            current damping = 0.100
 
          Norm of current diis error: 0.11754    
          max. resid. norm for Fia-block=  4.067D-03 for orbital     26a         
          max. resid. fock norm         =  6.078D-03 for orbital   1061a         

 ITERATION  ENERGY          1e-ENERGY        2e-ENERGY     RMS[dD(SAO)]   TOL
   7  -414.55073915545    -1271.7949679     500.11709756    0.108D-03 0.227D-13
                            Exc = -53.8077632388     Coul =  553.924860797    
                              N = 58.000034232    
                            current damping = 0.150
 
          Norm of current diis error: 0.10990    
          max. resid. norm for Fia-block=  2.564D-03 for orbital     28a         
          max. resid. fock norm         =  4.393D-03 for orbital     21a         

 ITERATION  ENERGY          1e-ENERGY        2e-ENERGY     RMS[dD(SAO)]   TOL
   8  -414.55101803146    -1271.8827379     500.20458864    0.390D-04 0.227D-13
                            Exc = -53.8198622928     Coul =  554.024450933    
                              N = 58.000034119    
                            current damping = 0.200
 
          Norm of current diis error: 0.36467E-01
          max. resid. norm for Fia-block=  1.267D-03 for orbital     29a         
          max. resid. fock norm         =  2.383D-03 for orbital   1074a         

 ITERATION  ENERGY          1e-ENERGY        2e-ENERGY     RMS[dD(SAO)]   TOL
   9  -414.55103025602    -1271.9500620     500.27190051    0.319D-04 0.227D-13
                            Exc = -53.8261254870     Coul =  554.098025994    
                              N = 58.000034405    
                            current damping = 0.050
 
          Norm of current diis error: 0.29141E-01
          max. resid. norm for Fia-block=  8.328D-04 for orbital     29a         
          max. resid. fock norm         =  1.447D-03 for orbital   1060a         

 ITERATION  ENERGY          1e-ENERGY        2e-ENERGY     RMS[dD(SAO)]   TOL
  10  -414.55105044990    -1271.9312766     500.25309495    0.212D-04 0.227D-13
                            Exc = -53.8218324780     Coul =  554.074927427    
                              N = 58.000034247    
                            current damping = 0.100
 
          Norm of current diis error: 0.14709E-01
          max. resid. norm for Fia-block=  3.022D-04 for orbital     29a         
          max. resid. fock norm         =  5.073D-04 for orbital   1061a         
          mo-orthogonalization: Cholesky decomposition

 ITERATION  ENERGY          1e-ENERGY        2e-ENERGY     RMS[dD(SAO)]   TOL
  11  -414.55105589849    -1271.9209266     500.24273946    0.542D-05 0.227D-13
                            Exc = -53.8226338387     Coul =  554.065373300    
                              N = 58.000034282    
                            current damping = 0.050
 
          Norm of current diis error: 0.37184E-02
          max. resid. norm for Fia-block=  7.781D-05 for orbital     24a         
          max. resid. fock norm         =  1.105D-04 for orbital     23a         

 ITERATION  ENERGY          1e-ENERGY        2e-ENERGY     RMS[dD(SAO)]   TOL
  12  -414.55105616946    -1271.9266505     500.24846311    0.835D-06 0.227D-13
                            Exc = -53.8226468689     Coul =  554.071109982    
                              N = 58.000034276    
                            current damping = 0.100
 
          Norm of current diis error: 0.16576E-02
          max. resid. norm for Fia-block=  4.155D-05 for orbital     25a         
          max. resid. fock norm         =  9.948D-05 for orbital   1187a         

 ITERATION  ENERGY          1e-ENERGY        2e-ENERGY     RMS[dD(SAO)]   TOL
  13  -414.55105620731    -1271.9248853     500.24669791    0.441D-06 0.227D-13
                            Exc = -53.8226007495     Coul =  554.069298664    
                              N = 58.000034278    
                            current damping = 0.150
 
          Norm of current diis error: 0.96091E-03
          max. resid. norm for Fia-block=  2.139D-05 for orbital     25a         
          max. resid. fock norm         =  4.841D-05 for orbital   1187a         

 ITERATION  ENERGY          1e-ENERGY        2e-ENERGY     RMS[dD(SAO)]   TOL
  14  -414.55105622365    -1271.9245251     500.24633765    0.339D-06 0.227D-13
                            Exc = -53.8225870273     Coul =  554.068924675    
                              N = 58.000034276    
                            current damping = 0.050
 
          Norm of current diis error: 0.41127E-03
          max. resid. norm for Fia-block=  1.502D-05 for orbital     29a         
          max. resid. fock norm         =  3.346D-05 for orbital   1074a         

 ITERATION  ENERGY          1e-ENERGY        2e-ENERGY     RMS[dD(SAO)]   TOL
  15  -414.55105622470    -1271.9248780     500.24669058    0.394D-06 0.227D-13
                            Exc = -53.8226129929     Coul =  554.069303572    
                              N = 58.000034279    
                            current damping = 0.100
 
          Norm of current diis error: 0.36332E-03
          max. resid. norm for Fia-block=  7.506D-06 for orbital     29a         
          max. resid. fock norm         =  1.792D-05 for orbital   1074a         
          mo-orthogonalization: Cholesky decomposition

 ITERATION  ENERGY          1e-ENERGY        2e-ENERGY     RMS[dD(SAO)]   TOL
  16  -414.55105622877    -1271.9249047     500.24671724    0.189D-06 0.227D-13
                            Exc = -53.8226129222     Coul =  554.069330164    
                              N = 58.000034277    
                            current damping = 0.050
 
          Norm of current diis error: 0.68660E-04
          max. resid. norm for Fia-block=  2.567D-06 for orbital     28a         
          max. resid. fock norm         =  5.944D-06 for orbital   1187a         

 DENSITY CONVERGED !


 ITERATION  ENERGY          1e-ENERGY        2e-ENERGY     RMS[dD(SAO)]   TOL
  17  -414.55105622867    -1271.9247861     500.24659866    0.421D-07 0.227D-13
                            Exc = -53.8225971262     Coul =  554.069195790    
                              N = 58.000034277    
                            current damping = 0.100
 
          Norm of current diis error: 0.90958E-04
          max. resid. norm for Fia-block=  1.463D-06 for orbital     26a         
          max. resid. fock norm         =  2.452D-06 for orbital   1188a         

 ENERGY & DENSITY CONVERGED !

          Overall gridpoints after grid construction =        439045

 ITERATION  ENERGY          1e-ENERGY        2e-ENERGY     RMS[dD(SAO)]   TOL
  18  -414.55105068592    -1271.9247899     500.24660799    0.250D-07 0.227D-13
                            Exc = -53.8225988319     Coul =  554.069206821    
                              N = 57.999995322    
                            current damping = 0.150
 
          Norm of current diis error: 0.25617E-04
          max. resid. norm for Fia-block=  4.225D-07 for orbital     24a         
          max. resid. fock norm         =  7.768D-07 for orbital   1183a         

 End of SCF iterations

   convergence criteria satisfied after    18 iterations


                  ------------------------------------------ 
                 |  total energy      =   -414.55105068592  |
                  ------------------------------------------ 
                 :  kinetic energy    =    413.03272236571  :
                 :  potential energy  =   -827.58377305163  :
                 :  virial theorem    =      1.99633741534  :
                 :  wavefunction norm =      1.00000000000  :
                  .......................................... 


 <geterg> : there is no data group $energy 


 <skperg> : $end is missing 


 orbitals $scfmo  will be written to file mos

    irrep                 25a         26a         27a         28a         29a   
 eigenvalues H         -0.34086    -0.26131    -0.25833    -0.23366    -0.22775
            eV          -9.2753     -7.1107     -7.0295     -6.3583     -6.1975
 occupation              2.0000      2.0000      2.0000      2.0000      2.0000 

    irrep                 30a         31a         32a         33a         34a   
 eigenvalues H         -0.08620    -0.03777    -0.02126     0.00894     0.02500
            eV          -2.3457     -1.0279     -0.5786      0.2432      0.6803
 
 
 
 
 ==============================================================================
                           electrostatic moments
 ==============================================================================

 reference point for electrostatic moments:    0.00000   0.00000   0.00000

 
              nuc           elec       ->  total
 ------------------------------------------------------------------------------
                          charge      
 ------------------------------------------------------------------------------
          58.000000     -58.000000       0.000000
 
 ------------------------------------------------------------------------------
                       dipole moment  
 ------------------------------------------------------------------------------
   x      92.037891     -91.205941       0.831950
   y       9.829348      -8.349637       1.479711
   z      71.027474     -71.214643      -0.187169
 
   | dipole moment | =     1.7078 a.u. =     4.3409 debye 
 
 ------------------------------------------------------------------------------
                     quadrupole moment
 ------------------------------------------------------------------------------
  xx     561.693231    -599.785188     -38.091957
  yy     247.038185    -276.101612     -29.063427
  zz     148.473125    -184.152698     -35.679573
  xy      12.658159      -6.708158       5.950001
  xz     243.794774    -245.980759      -2.185984
  yz     -59.044726      60.720588       1.675862
 
     1/3  trace=     -34.278319
     anisotropy=      13.947126
 
 ==============================================================================
 


    ------------------------------------------------------------------------
         total  cpu-time : 20 minutes and 11 seconds
         total wall-time :  3 minutes and 30 seconds
    ------------------------------------------------------------------------

   ****  ridft : all done  ****


    2018-04-28 21:00:12.274 

