STARTING dscf ON 32 PROCESSORS!
RUNNING PROGRAM /beegfs/modfac/apps/TURBOMOLE/7.2.1-official/bin/em64t-unknown-linux-gnu_mpi/dscf_mpi.
PLEASE WAIT UNTIL dscf HAS FINISHED.
Look for the output in slave1.output.
MACHINEFILE is ./hostlist
 this is node-proc. number 1 running on node c-5-32.local
 the total number of node-proc. spawned is  33
  parallel platform: MPP or cluster with fast interconnect

 dscf (c-5-32.local) : TURBOMOLE V7.2 ( 21471 ) 7 Nov 2017 at 16:15:16
 Copyright (C) 2017 TURBOMOLE GmbH, Karlsruhe


    2018-02-20 07:51:53.098 


 SCF run will be profiled !



                             d s c f - program

                   idea & directorship : reinhart ahlrichs
                   program development : marco haeser
                                         michael baer
                           dft version : oliver treutler
           parallelized version : malte v. arnim, gina corongiu, GMD 


                          quantum chemistry group
                          universitaet  karlsruhe
                                  germany




                          References             
                                                 
          TURBOMOLE:                             
              R. Ahlrichs, M. Baer, M. Haeser, H. Horn, and
              C. Koelmel
              Electronic structure calculations on workstation
              computers: the program system TURBOMOLE
              Chem. Phys. Lett. 162: 165 (1989)
          Density Functional:                              
              O. Treutler and R. Ahlrichs                      
              Efficient Molecular Numerical Integration Schemes
              J. Chem. Phys. 102: 346 (1995)                   
          Parallel Version:                                
              Performance of parallel TURBOMOLE for Density    
              Functional Calculations                          
              M. v. Arnim and R. Ahlrichs                      
              J. Comp. Chem. 19: 1746 (1998)                   
                                         




              +--------------------------------------------------+
              | Atomic coordinate, charge and isotop information |
              +--------------------------------------------------+

                    atomic coordinates            atom    charge  isotop
          5.15646714    3.55641122  -13.99529727    c      0.000     0
          5.39945020    1.43999346  -15.54136533    c      0.000     0
          4.90799877   -0.94331597  -14.53847173    c      0.000     0
          4.23781840   -1.12193071  -11.99113751    c      0.000     0
          4.05169093    0.90290133  -10.47823678    n      0.000     0
          4.46957251    3.19659844  -11.47196724    c      0.000     0
          3.58357931   -3.67470140  -10.89464246    c      0.000     0
          3.38404817   -5.55631251  -12.24908876    o      0.000     0
          4.05627374    5.47140671   -9.80113526    c      0.000     0
          4.13016380    7.63298851  -10.65904371    o      0.000     0
          3.22438498   -3.63390859   -8.35029865    n      0.000     0
          2.30430158   -5.66524119   -6.85060945    c      0.000     0
         -0.13526866   -6.62954585   -7.23863709    c      0.000     0
         -1.04805735   -8.45604985   -5.55421318    c      0.000     0
          0.37339320   -9.32615730   -3.50726326    c      0.000     0
          2.81663810   -8.35069364   -3.20934483    c      0.000     0
          3.81650587   -6.54915143   -4.85336029    c      0.000     0
         -0.70132605  -11.20575729   -1.55874366    c      0.000     0
         -3.09805797  -12.54697542   -2.56889594    c      0.000     0
         -4.11457888  -14.54475836   -0.73267206    c      0.000     0
         -2.12167913  -16.57009344   -0.17903992    c      0.000     0
          0.31488467  -15.34572939    0.79239134    c      0.000     0
          1.27172651  -13.31531073   -1.04147459    c      0.000     0
         -1.71387887  -17.62372298   -1.92262034    h      0.000     0
         -2.84313238  -17.93707699    1.20017457    h      0.000     0
         -1.30505520   -9.65328477    0.83367816    c      0.000     0
         -3.59925677   -8.35434285    1.06225768    c      0.000     0
         -4.16376991   -6.84646779    3.15590566    c      0.000     0
         -2.33526217   -6.58151282    5.07092309    c      0.000     0
         -0.00621281   -7.85093307    4.90456227    c      0.000     0
          0.44638910   -9.37374629    2.79118310    c      0.000     0
         -6.67290684   -5.51480957    3.36626044    c      0.000     0
         -2.82391017   -4.87496689    7.08551975    n      0.000     0
         -2.86383266   -5.49167466    9.58404672    c      0.000     0
         -2.69045345   -7.65369656   10.42572706    o      0.000     0
          1.98795006   -7.55206153    6.90785621    c      0.000     0
         -1.77642665   -5.68806547   -9.36108792    c      0.000     0
          6.44557369   -5.51941925   -4.47840233    c      0.000     0
         -3.09777576   -3.23771823   11.31492923    c      0.000     0
         -2.94260065   -0.92925234   10.28098962    n      0.000     0
         -2.97173840    1.08644741   11.81696236    c      0.000     0
         -3.22337173    0.88128851   14.43699295    c      0.000     0
         -3.44416322   -1.52029490   15.49101343    c      0.000     0
         -3.35583458   -3.62550098   13.91326748    c      0.000     0
         -2.58987203    3.66093797   10.64742561    c      0.000     0
         -2.25740707    5.54957072   11.96560196    o      0.000     0
          3.56544743    4.87303781   -7.34712691    n      0.000     0
          2.78439476    6.59977592   -5.44453906    c      0.000     0
          0.51325605    7.95118127   -5.69292566    c      0.000     0
         -0.27047497    9.48152317   -3.67940314    c      0.000     0
          1.09870366    9.67699404   -1.43225789    c      0.000     0
          3.35611711    8.30251075   -1.25209784    c      0.000     0
          4.24644685    6.79418101   -3.22601333    c      0.000     0
          0.18615519   11.27906194    0.82227824    c      0.000     0
         -2.03698560   13.02445970    0.07191132    c      0.000     0
         -2.86126802   14.76244978    2.23905969    c      0.000     0
         -0.67047711   16.43340057    3.12951669    c      0.000     0
          1.61314581   14.80698660    3.85273697    c      0.000     0
          2.37082474   13.04260524    1.68192400    c      0.000     0
         -0.13262493   17.72970054    1.59738503    h      0.000     0
         -1.26037849   17.60400898    4.73354588    h      0.000     0
         -0.60559343    9.40653845    2.90960745    c      0.000     0
         -3.03449402    8.35808316    2.94256034    c      0.000     0
         -3.75165895    6.52634823    4.70041886    c      0.000     0
         -1.96166034    5.68831461    6.47286844    c      0.000     0
          0.48158071    6.72451353    6.53116224    c      0.000     0
          1.10034236    8.57548516    4.74732557    c      0.000     0
         -6.37834299    5.42640116    4.67817221    c      0.000     0
         -2.60986269    3.63310442    8.07734383    n      0.000     0
          2.42467716    5.83635655    8.40732075    c      0.000     0
         -1.09198151    7.73173561   -8.02847574    c      0.000     0
          6.71098507    5.38303171   -2.99648423    c      0.000     0
         -3.08685579   -3.01346416    6.62225629    h      0.000     0
          3.50605530   -1.94939029   -7.44494974    h      0.000     0
         -5.01502322   -8.50510760   -0.41509152    h      0.000     0
          2.25463660  -10.33822741    2.69137279    h      0.000     0
         -2.94609827   -9.16724685   -5.86597230    h      0.000     0
          3.98380539   -8.97634934   -1.63983092    h      0.000     0
         -7.61526919   -6.01767518    5.13960951    h      0.000     0
         -7.90415069   -6.03516919    1.79127988    h      0.000     0
         -6.43581027   -3.45722646    3.36891533    h      0.000     0
          2.20499928   -5.56354012    7.44411088    h      0.000     0
          3.80737638   -8.26147690    6.23317724    h      0.000     0
          1.45494289   -8.58374956    8.62115727    h      0.000     0
          6.40142500   -3.49522612   -4.03517604    h      0.000     0
          7.40381403   -6.51054882   -2.93920620    h      0.000     0
          7.57030212   -5.73209553   -6.20310284    h      0.000     0
         -1.74314201   -3.61935895   -9.46067358    h      0.000     0
         -3.73006888   -6.30851435   -9.10124827    h      0.000     0
         -1.08336855   -6.38913993  -11.18115903    h      0.000     0
         -4.58949743  -11.18149238   -2.99911211    h      0.000     0
         -2.59791448  -13.45187757   -4.36802650    h      0.000     0
         -4.67709279  -13.62632545    1.04074653    h      0.000     0
         -5.82035823  -15.40694136   -1.53278398    h      0.000     0
         -0.04224422  -14.49279299    2.64863244    h      0.000     0
          1.78944206  -16.77697463    1.05989889    h      0.000     0
          1.71623944  -14.18635277   -2.87113508    h      0.000     0
          3.04616685  -12.51480306   -0.34655620    h      0.000     0
         -3.45747142   -5.54622310   14.62036991    h      0.000     0
         -3.65332448   -1.75015159   17.51996122    h      0.000     0
          5.00601986   -2.65860070  -15.65559279    h      0.000     0
          5.93831529    1.64816651  -17.51099335    h      0.000     0
         -2.98826348    1.94573181    7.21414008    h      0.000     0
          3.64837380    3.00274674   -6.85270853    h      0.000     0
         -4.42880641    8.95488302    1.55967166    h      0.000     0
          2.99997043    9.34910840    4.80793328    h      0.000     0
         -2.03233495   10.50693259   -3.90071547    h      0.000     0
          4.46876084    8.38931725    0.47136309    h      0.000     0
         -6.33867708    3.41000156    4.20331894    h      0.000     0
         -7.56573305    6.40574061    3.29932119    h      0.000     0
         -7.25881605    5.59052359    6.54439745    h      0.000     0
          2.46394351    3.76794998    8.51064170    h      0.000     0
          4.30555656    6.50958060    7.87960799    h      0.000     0
          1.97035508    6.52490954   10.30565805    h      0.000     0
          6.42100870    3.33462544   -3.09070663    h      0.000     0
          7.64209615    5.83672104   -1.20906472    h      0.000     0
          7.98128744    5.88513851   -4.55222934    h      0.000     0
         -1.27434537    5.75465171   -8.61710037    h      0.000     0
         -2.97922523    8.50058615   -7.68761188    h      0.000     0
         -0.22208445    8.75224836   -9.60522969    h      0.000     0
         -3.65566371   11.92249601   -0.59408096    h      0.000     0
         -1.41489800   14.17978079   -1.53592019    h      0.000     0
         -3.54087444   13.61037185    3.82461811    h      0.000     0
         -4.45406711   15.93101258    1.61415436    h      0.000     0
          1.14769774   13.68078501    5.53059292    h      0.000     0
          3.22612134   16.00603417    4.35758852    h      0.000     0
          2.92308828   14.16980652    0.03000093    h      0.000     0
          4.04155315   11.94316251    2.20560489    h      0.000     0
         -3.21705117    2.59160581   15.56593160    h      0.000     0
          5.45605707    5.46651763  -14.67436091    h      0.000     0
         -0.98135932    2.39897048    0.85754603    c      6.000     0
          0.71446459   -2.37371889   -1.39700457    c      6.000     0
         -0.78504475   -2.22088648    0.90373723    n      7.000     0
          0.64628342    2.24959336   -1.35484881    n      7.000     0
          1.52645023    0.14744777   -2.46505870    c      6.000     0
         -1.64082459   -0.12025376    2.03432596    c      6.000     0
          2.97373359    0.20162942   -4.31233669    o      8.000     0
         -2.95695122   -0.17531934    3.97856574    o      8.000     0
          1.26802496    3.92141529   -2.09556771    h      1.000     0
         -1.30107264   -3.89119703    1.72399102    h      1.000     0
         -2.75928855    3.34035180    0.36890570    h      1.000     0
         -0.32901972   -3.39090870   -2.87093058    h      1.000     0
         -0.08075015    3.56548014    2.31083132    h      1.000     0
          2.42521866   -3.47385114   -1.03428251    h      1.000     0
 
       center of nuclear mass  :    0.09776464    0.00107981   -0.05785533
       center of nuclear charge:   -0.06502620    0.01328988   -0.22076915

              +--------------------------------------------------+
              |               basis set information              |
              +--------------------------------------------------+

              we will work with the 1s 3p 5d 7f 9g ... basis set
              ...i.e. with spherical basis functions...

   type   atoms  prim   cont   basis
   ---------------------------------------------------------------------------
    c       62     77     55   cc-pVQZ   [5s4p3d2f1g|21s6p3d2f1g]
    n        8     77     55   cc-pVQZ   [5s4p3d2f1g|21s6p3d2f1g]
    o        6     77     55   cc-pVQZ   [5s4p3d2f1g|21s6p3d2f1g]
    h       68     32     30   cc-pVQZ   [4s3p2d1f|6s3p2d1f]
   ---------------------------------------------------------------------------
   total:  144   8028   6220
   ---------------------------------------------------------------------------

   total number of primitive shells          :  111
   total number of contracted shells         : 1820
   total number of cartesian basis functions : 7700
   total number of SCF-basis functions       : 6220


 integral neglect threshold       :  0.43E-12
 integral storage threshold THIZE :  0.10E-04
 integral storage threshold THIME :         5


 DENSITY CONVERGENCE CHECK SWITCHED ON !
 SCF CONVERGENCE IF RMS(delta[D]) <     0.1000000000E-06


 symmetry group of the molecule :   c1 

 the group has the following generators :
   c1(z)

    1 symmetry operations found

 there are 1 real representations :   a   

 maximum number of shells which are related by symmetry :  1


    mo occupation :
   irrep   mo's   occupied
    a     6220       30
 
 number of basis functions   :                   6220
 number of occupied orbitals :                     30
 

 automatic virtual orbital shift switched on 
      shift if e(lumo)-e(homo) < 0.10000000    


 keyword $2e-ints_shell_statistics missing in file <control>

 ! One task per shell generated
  No pre-computed optimal task distribution found
  ... using automatic task generation

          ------------------------
          nuclear repulsion energy  :   373.697351516    
          ------------------------


         -----------------
         -S,T+V- integrals
         -----------------

 1e-integrals will be neglected if expon. factor < 0.434021E-13
 
   Difference densities algorithm switched on.
   The maximal number of linear combinations of
   difference densities is                    20 .

 DIIS switched on: error vector is FDS-SDF
 Max. Iterations for DIIS is     :   5
 DIIS matrix (see manual) 
    Scaling factor of diagonals  :  1.200
    threshold for scaling factor :  0.000

 scf convergence criterion : increment of total energy < .1000000D-06
                  and increment of one-electron energy < .1000000D-03

  MOs are in ASCII format !


 reading orbital data $scfmo  from file mos
 orbital characterization : expanded
 mo provided and orthogonalized by Cholesky decomposition

 DSCF restart information will be dumped onto file mos

 
                                              current damping :  0.300
 ITERATION  ENERGY          1e-ENERGY        2e-ENERGY     RMS[dD(SAO)]   TOL
   1  -411.90575549635    -1297.2134552     511.61034816    0.000D+00 0.433D-12
          max. resid. norm for Fia-block=  4.144D-01 for orbital     19a         
          max. resid. fock norm         =  2.015D+01 for orbital   5607a         
          Delta Eig. =  2508.4642138425 eV 
 
                                              current damping :  0.250
 ITERATION  ENERGY          1e-ENERGY        2e-ENERGY     RMS[dD(SAO)]   TOL
   2  -413.61775893142    -1304.4165434     517.10143300    0.129D-02 0.395D-12
          Norm of current diis error:  2.6646    
          max. resid. norm for Fia-block=  1.264D-01 for orbital      1a         
          max. resid. fock norm         =  3.495D-01 for orbital   5973a         
          Delta Eig. =   601.9364559328 eV 
 
                                              current damping :  0.150
 ITERATION  ENERGY          1e-ENERGY        2e-ENERGY     RMS[dD(SAO)]   TOL
   3  -413.76086400391    -1305.4178362     517.95962068    0.297D-03 0.245D-12
          Norm of current diis error:  1.0268    
          max. resid. norm for Fia-block=  4.182D-02 for orbital     30a         
          max. resid. fock norm         =  4.224D-02 for orbital     30a         
          Delta Eig. =   130.8622866710 eV 
 
                                              current damping :  0.100
 ITERATION  ENERGY          1e-ENERGY        2e-ENERGY     RMS[dD(SAO)]   TOL
   4  -413.79081053735    -1305.5398507     518.05168868    0.131D-03 0.201D-12
          Norm of current diis error: 0.27910    
          max. resid. norm for Fia-block=  1.475D-02 for orbital     10a         
          max. resid. fock norm         =  2.721D-02 for orbital   5961a         
          Delta Eig. =    17.8378364562 eV 
 
                                              current damping :  0.100
 ITERATION  ENERGY          1e-ENERGY        2e-ENERGY     RMS[dD(SAO)]   TOL
   5  -413.79366470872    -1305.6101825     518.11916626    0.507D-04 0.182D-12
          Norm of current diis error: 0.93522E-01
          max. resid. norm for Fia-block=  4.853D-03 for orbital     30a         
          max. resid. fock norm         =  6.337D-03 for orbital   5960a         
 mo-orthogonalization: Cholesky decomposition
          Delta Eig. =     1.6234306376 eV 
 
                                              current damping :  0.100
 ITERATION  ENERGY          1e-ENERGY        2e-ENERGY     RMS[dD(SAO)]   TOL
   6  -413.79400373425    -1305.6194579     518.12810269    0.172D-04 0.172D-12
          Norm of current diis error: 0.31668E-01
          max. resid. norm for Fia-block=  1.852D-03 for orbital     29a         
          max. resid. fock norm         =  2.133D-03 for orbital     29a         
          Delta Eig. =     0.1535607946 eV 
 
                                              current damping :  0.150
 ITERATION  ENERGY          1e-ENERGY        2e-ENERGY     RMS[dD(SAO)]   TOL
   7  -413.79405312966    -1305.6046072     518.11320255    0.795D-05 0.164D-12
          Norm of current diis error: 0.10936E-01
          max. resid. norm for Fia-block=  6.808D-04 for orbital     30a         
          max. resid. fock norm         =  6.833D-04 for orbital     30a         
          Delta Eig. =     0.0288114747 eV 
 
                                              current damping :  0.200
 ITERATION  ENERGY          1e-ENERGY        2e-ENERGY     RMS[dD(SAO)]   TOL
   8  -413.79406037633    -1305.6113988     518.11998690    0.247D-05 0.158D-12
          Norm of current diis error: 0.38403E-02
          max. resid. norm for Fia-block=  3.360D-04 for orbital     30a         
          max. resid. fock norm         =  3.401D-04 for orbital     30a         
          Delta Eig. =     0.0074063124 eV 
 
                                              current damping :  0.250
 ITERATION  ENERGY          1e-ENERGY        2e-ENERGY     RMS[dD(SAO)]   TOL
   9  -413.79406154087    -1305.6094464     518.11803339    0.807D-06 0.152D-12
          Norm of current diis error: 0.17473E-02
          max. resid. norm for Fia-block=  1.445D-04 for orbital     30a         
          max. resid. fock norm         =  1.548D-04 for orbital     23a         
          Delta Eig. =     0.0040672425 eV 
 
                                              current damping :  0.300
 ITERATION  ENERGY          1e-ENERGY        2e-ENERGY     RMS[dD(SAO)]   TOL
  10  -413.79406179457    -1305.6101691     518.11875577    0.245D-06 0.147D-12
          Norm of current diis error: 0.76878E-03
          max. resid. norm for Fia-block=  8.092D-05 for orbital     30a         
          max. resid. fock norm         =  8.113D-05 for orbital     30a         
 mo-orthogonalization: Cholesky decomposition
          Delta Eig. =     0.0011097817 eV 

 ENERGY & DENSITY CONVERGED !

 
                                              current damping :  0.150
 ITERATION  ENERGY          1e-ENERGY        2e-ENERGY     RMS[dD(SAO)]   TOL
  11  -413.79406185237    -1305.6101801     518.11876675    0.927D-07 0.142D-12
          max. resid. norm for Fia-block=  2.145D-05 for orbital     29a         
          max. resid. fock norm         =  2.156D-05 for orbital     29a         

 convergence criteria satisfied after    11 iterations


                  ------------------------------------------ 
                 |  total energy      =   -413.79406185237  |
                  ------------------------------------------ 
                 :  kinetic energy    =    413.10008556056  :
                 :  potential energy  =   -826.89414741293  :
                 :  virial theorem    =      1.99832289451  :
                 :  wavefunction norm =      1.00000000000  :
                  .......................................... 


 <geterg> : there is no data group $energy 


 <skperg> : $end is missing 


 orbitals $scfmo  will be written to file mos

    irrep                 26a         27a         28a         29a         30a   
 eigenvalues H         -0.51423    -0.44291    -0.44202    -0.42417    -0.40297
            eV         -13.9931    -12.0524    -12.0280    -11.5423    -10.9655
 occupation              2.0000      2.0000      2.0000      2.0000      2.0000 

    irrep                 31a         32a         33a         34a         35a   
 eigenvalues H          0.02294     0.02564     0.04448     0.05050     0.05239
            eV           0.6241      0.6976      1.2103      1.3743      1.4257
 
 
 
 
 ==============================================================================
                           electrostatic moments
 ==============================================================================

 reference point for electrostatic moments:    0.00000   0.00000   0.00000

 
              nuc           elec       ->  total
 ------------------------------------------------------------------------------
                          charge      
 ------------------------------------------------------------------------------
          60.000000     -60.000000       0.000000
 
 ------------------------------------------------------------------------------
                       dipole moment  
 ------------------------------------------------------------------------------
   x      -3.901572       3.821571      -0.080001
   y       0.797393      -0.798654      -0.001261
   z     -13.246149      13.185619      -0.060530
 
   | dipole moment | =     0.1003 a.u. =     0.2550 debye 
 
 ------------------------------------------------------------------------------
                     quadrupole moment
 ------------------------------------------------------------------------------
  xx     203.817157    -245.082112     -41.264954
  yy     217.032409    -242.197539     -25.165130
  zz     393.531944    -441.944379     -48.412435
  xy       2.779898      -2.860550      -0.080652
  xz    -269.112106     279.607268      10.495161
  yz     -11.455954      11.529238       0.073284
 
     1/3  trace=     -38.280840
     anisotropy=      27.492633
 
 ==============================================================================
 

    dscf profiling
  --------------------------------------------------------------------
             module   cpu total (s)       %  wall total (s)       %

          dscf.total         46915.1  100.00         42032.3  100.00
        dscf.prepare           283.3    0.60           283.1    0.67
      prepare.oneint             1.4    0.00             1.4    0.00
     prepare.moinput             0.2    0.00             0.2    0.00
     moinput_orthmos           279.4    0.60           279.2    0.66
            dscf.scf         46626.7   99.39         41743.9   99.31
             scf.pre             0.0    0.00             0.0    0.00
        scf.makedmat            38.9    0.08            46.5    0.11
          scf.shloop         39232.8   83.63         39202.1   93.27
          shloop_omp         39227.1   83.61         39196.4   93.25
          scf.symcar             7.4    0.02             7.4    0.02
        scf.makefock            16.1    0.03            19.6    0.05
          scf.newerg             0.6    0.00             0.6    0.00
          scf.newcnv          1327.3    2.83           179.6    0.43
           scf.fdiag          4076.5    8.69           510.1    1.21
         diag_tritrn           981.9    2.09           122.9    0.29
          diag_rdiag          3084.4    6.57           385.6    0.92
          scf.modump          1450.8    3.09          1457.6    3.47
           ortho_all           322.7    0.69           163.1    0.39
            scf.post           153.0    0.33           157.0    0.37
        dscf.postscf             5.1    0.01             5.2    0.01
 


    ------------------------------------------------------------------------
         total  cpu-time : 13 hours  1 minutes and 55 seconds
         total wall-time : 11 hours 40 minutes and 33 seconds
    ------------------------------------------------------------------------

   ****  dscf : all done  ****


    2018-02-20 19:32:25.558 

