Using Slurm to start processes with PMI2
STARTING ridft ON 8 PROCESSORS!
RUNNING PROGRAM /beegfs/modfac/apps/TURBOMOLE/7.0_intel_GA/bin/em64t-unknown-linux-gnu_mpi/ridft_mpi.
PLEASE WAIT UNTIL ridft HAS FINISHED.
Look for the output in slave1.output.
  this is node-proc. number 1 running on node c-5-31.local
  the total number of node-proc. spawned is            8
  parallel platform: MPP, or cluster with fast interconnect

 ridft (c-5-31.local) : TURBOMOLE V7.0.2( ) 15 Jan 2016 at 17:47:42
 Copyright (C) 2016 TURBOMOLE GmbH, Karlsruhe


    2016-06-10 11:42:21.654 



                                  r i d f t

                        DFT program with RI approximation 
                                for coulomb part 




                                                 
                                 References:     
                                                 
          TURBOMOLE:                             
              R. Ahlrichs, M. Baer, M. Haeser, H. Horn, and
              C. Koelmel
              Electronic structure calculations on workstation
              computers: the program system TURBOMOLE
              Chem. Phys. Lett. 162: 165 (1989)
          Density Functional:                              
              O. Treutler and R. Ahlrichs                      
              Efficient Molecular Numerical Integration Schemes
              J. Chem. Phys. 102: 346 (1995)                   
          Parallel Version:                                
              Performance of parallel TURBOMOLE for Density    
              Functional Calculations                          
              M. v. Arnim and R. Ahlrichs                      
              J. Comp. Chem. 19: 1746 (1998)                   
          RI-J Method:                                     
              Auxiliary Basis Sets to approximate Coulomb      
              Potentials                                       
              Chem. Phys. Lett. 240: 283 (1995)                
              K. Eichkorn, O. Treutler, H. Oehm, M. Haeser     
              and R. Ahlrichs                                  
              Chem. Phys. Lett. 242: 652 (1995)                
                                                           
              Auxiliary Basis Sets for Main Row Atoms and their
              Use to approximate Coulomb Potentials            
              K. Eichkorn, F. Weigend, O. Treutler and         
              R. Ahlrichs                                      
              Theo. Chem. Acc. 97: 119 (1997)                   
                                                           
              Accurate Coulomb-fitting basis sets for H to Rn 
              F. Weigend                                        
              Phys. Chem. Chem. Phys. 8: 1057 (2006)            
                                                           
          Multipole accelerated RI-J (MARI-J):             
              Fast evaluation of the Coulomb potential for     
              electron densities using multipole accelerated   
              resolution of identity approximation             
              M. Sierka, A. Hogekamp and R. Ahlrichs           
              J. Chem. Phys. 118: 9136 (2003)                  
          RI-JK Method:                                     
              A fully direct RI-HF algorithm: Implementation,
              optimised auxiliary basis sets, demonstration of
              accuracy and efficiency                         
              F. Weigend                                      
              Phys. Chem. Chem. Phys. 4: 4285 (2002)           
          Two-component HF and DFT with spin-orbit coupling:  
              Self-consistent treatment of spin-orbit         
              interactions with efficient Hartree-Fock and    
              density functional methods                      
              M. K. Armbruster, F. Weigend, C. van Wüllen and 
              W. Klopper                                      
              Phys. Chem. Chem. Phys. 10: 1748 (2008)         
          Relativistic all-electron 2c calculations           
              An efficient implementation of two-component    
              relativistic exact-decoupling methods for large 
              molecules                                       
              D. Peng, N. Middendorf, F. Weigend, M. Reiher   
              J. Chem. Phys. 138, 184105 (2013)               
                                         


 


              +--------------------------------------------------+
              |      general information about current run       |
              +--------------------------------------------------+

 

 SCF run will be profiled !


 DENSITY CONVERGENCE CHECK SWITCHED ON !
 SCF CONVERGENCE IF RMS(delta[D]) <     0.1000000000E-06

 TPSS meta-GGA functional
 exchange:    LDA + TPSS
 correlation: LDA (PW) + TPSS
 A DFT calculation using the RI-J approximation will be carried out.
 Allocatable memory for RI due to $ricore (MB):        8000


              +--------------------------------------------------+
              | Atomic coordinate, charge and isotop information |
              +--------------------------------------------------+

                    atomic coordinates            atom    charge  isotop
         -0.27544648    6.49907053   -0.93617033    c      0.000     0
         -2.47255547    6.05175345   -2.32339938    c      0.000     0
         -4.67784697    5.59787903   -0.95075901    c      0.000     0
         -4.66834164    5.53831486    1.70647939    c      0.000     0
         -2.46786895    5.93487389    3.09346278    c      0.000     0
         -0.28585887    6.46210748    1.71931063    c      0.000     0
         -7.38487965    4.94567785   -1.77082456    c      0.000     0
         -7.76605631    2.18044160   -0.99658487    c      0.000     0
         -7.72092965    2.12828516    1.66222200    c      0.000     0
         -7.35432278    4.86003546    2.53376370    c      0.000     0
         -7.90684091   -0.03760555   -2.41125275    c      0.000     0
         -7.97131836   -2.30436984   -1.07041647    c      0.000     0
         -7.89569152   -2.35257675    1.58568810    c      0.000     0
         -7.76320282   -0.13768545    3.00394646    c      0.000     0
         -8.86345807    6.24955109    0.41919795    c      0.000     0
          2.41741326    7.20522339   -1.73552448    c      0.000     0
          2.37321256    7.18090261    2.57307000    c      0.000     0
          4.16533434    5.06966278    1.75827678    c      0.000     0
          4.21531760    5.08844666   -0.89816793    c      0.000     0
          5.70512099    3.46634354    3.16650070    c      0.000     0
          7.40186829    1.97612441    1.81491188    c      0.000     0
          7.48998622    2.01212369   -0.83900061    c      0.000     0
          5.85652585    3.52889348   -2.25017250    c      0.000     0
          3.00621413    9.12754730    0.43654563    c      0.000     0
          9.66241538    0.24904701   -1.61084035    c      0.000     0
          8.88900717   -2.42822249   -0.84654062    c      0.000     0
          8.75678303   -2.45140943    1.81243633    c      0.000     0
          9.49814149    0.19339457    2.69826436    c      0.000     0
          8.32603886   -4.57667103   -2.23393975    c      0.000     0
          7.57003502   -6.76215820   -0.92974526    c      0.000     0
          7.39440387   -6.76812973    1.69960079    c      0.000     0
          7.99599819   -4.59768478    3.10587828    c      0.000     0
         11.50812979    0.81891282    0.62534817    c      0.000     0
         -7.80579725   -5.13576540    2.36143957    c      0.000     0
         -5.23289733   -6.09461244    1.45155533    c      0.000     0
         -5.30274160   -6.04816297   -1.20587204    c      0.000     0
         -7.92044694   -5.05985510   -1.94687145    c      0.000     0
         -3.06868847   -6.82325305    2.73190148    c      0.000     0
         -0.95383927   -7.55162909    1.30566848    c      0.000     0
         -1.02209617   -7.50674809   -1.32726805    c      0.000     0
         -3.20678966   -6.73194148   -2.61810217    c      0.000     0
         -9.50001232   -6.27060264    0.23031982    c      0.000     0
         -2.47096810    6.08924562   -4.37849545    h      0.000     0
         -2.46108483    5.88048757    5.14727384    h      0.000     0
         -7.89610726    5.43349176   -3.70705686    h      0.000     0
         -7.83469116    5.26695019    4.49599862    h      0.000     0
         -7.93790800   -0.00597153   -4.46670787    h      0.000     0
         -7.66440794   -0.17633035    5.05582999    h      0.000     0
         -8.59292488    8.29901577    0.45903337    h      0.000     0
        -10.87448572    5.76723629    0.42224041    h      0.000     0
          2.64032535    7.85661199   -3.67827633    h      0.000     0
          2.55353023    7.80551379    4.52887986    h      0.000     0
          5.65377713    3.45152809    5.22000939    h      0.000     0
          5.92652130    3.56491166   -4.30387016    h      0.000     0
          1.73104583   10.75647233    0.43270949    h      0.000     0
          4.98437944    9.73167384    0.46063964    h      0.000     0
         10.37648620    0.47708026   -3.53065092    h      0.000     0
         10.06080745    0.36645569    4.67299037    h      0.000     0
          8.46368651   -4.58914322   -4.28440599    h      0.000     0
          7.11667082   -8.46572741   -1.98160462    h      0.000     0
          6.79715593   -8.47398551    2.67301761    h      0.000     0
          7.85714111   -4.61518365    5.15458708    h      0.000     0
         12.11698066    2.79379001    0.67589835    h      0.000     0
         13.13304860   -0.46090420    0.66837724    h      0.000     0
         -8.29861893   -5.55528460    4.31772186    h      0.000     0
         -8.51595633   -5.41432993   -3.88775247    h      0.000     0
         -2.98735466   -6.82281841    4.78350155    h      0.000     0
          0.76762565   -8.12570899    2.26553597    h      0.000     0
          0.64532258   -8.05225533   -2.39267674    h      0.000     0
         -3.23594813   -6.67802759   -4.67130851    h      0.000     0
        -11.44340667   -5.56647178    0.29377682    h      0.000     0
         -9.46172647   -8.33767957    0.19275207    h      0.000     0
          2.50025885   -2.09343861   -0.49926564    c      6.000     0
          2.51543335   -2.04222703   -3.11466551    c      6.000     0
         -1.63412178   -0.07479536   -3.10463106    c      6.000     0
         -1.65591032   -0.12370147   -0.48805957    c      6.000     0
          0.42199474   -1.11151801    0.82361824    c      6.000     0
          0.45368545   -1.02181271   -4.43276838    c      6.000     0
          0.41596652   -1.12569096    3.52244951    c      6.000     0
          0.47619209   -0.95132593   -7.12976662    c      6.000     0
          0.41439804   -1.12599332    5.71936952    n      7.000     0
          0.49191461   -0.88754767   -9.32700789    n      7.000     0
         -3.22973093    0.69606172   -4.12434618    h      1.000     0
         -3.26384049    0.61179884    0.54066954    h      1.000     0
          4.08182734   -2.88827632    0.52487143    h      1.000     0
          4.11901715   -2.78785627   -4.14284660    h      1.000     0
 
       center of nuclear mass  :   -0.04468387    0.02991796   -0.06790538
       center of nuclear charge:    0.43958265   -1.05651696   -1.80293416

              +--------------------------------------------------+
              |               basis set information              |
              +--------------------------------------------------+

              we will work with the 1s 3p 5d 7f 9g ... basis set
              ...i.e. with spherical basis functions...

   type   atoms  prim   cont   basis
   ---------------------------------------------------------------------------
    c       50     77     57   def2-QZVP   [7s4p3d2f1g|15s8p3d2f1g]
    h       34     33     30   def2-QZVP   [4s3p2d1f|7s3p2d1f]
    n        2     77     57   def2-QZVP   [7s4p3d2f1g|15s8p3d2f1g]
   ---------------------------------------------------------------------------
   total:   86   5126   3984
   ---------------------------------------------------------------------------

   total number of primitive shells          :   71
   total number of contracted shells         : 1224
   total number of cartesian basis functions : 4934
   total number of SCF-basis functions       : 3984


 integral neglect threshold       :  0.68E-14
 integral storage threshold THIZE :  0.10E-04
 integral storage threshold THIME :         5

 RI-J AUXILIARY BASIS SET information:

              we will work with the 1s 3p 5d 7f 9g ... basis set
              ...i.e. with spherical basis functions...

   type   atoms  prim   cont   basis
   ---------------------------------------------------------------------------
    c       50     70     49   def2-QZVP   [6s4p3d1f1g|12s5p4d2f1g]
    h       34     16     11   def2-QZVP   [3s1p1d|5s2p1d]
    n        2     70     49   def2-QZVP   [6s4p3d1f1g|12s5p4d2f1g]
   ---------------------------------------------------------------------------
   total:   86   4184   2922
   ---------------------------------------------------------------------------

   total number of primitive shells          :   56
   total number of contracted shells         :  950
   total number of cartesian basis functions : 3580
   total number of SCF-basis functions       : 2922


 symmetry group of the molecule :   c1 

 the group has the following generators :
   c1(z)

    1 symmetry operations found

 there are 1 real representations :   a   

 maximum number of shells which are related by symmetry :  1


    mo occupation :
   irrep   mo's   occupied
    a     3984       33
 
 number of basis functions   :         3984
 number of occupied orbitals :           33
 
  
           ------------------
           density functional
           ------------------
 Dummy atoms with grid-point found.
 DFT quadrature threshold dgrenze tightened by factor 1/10.

 TPSS meta-GGA functional
 exchange:    LDA + TPSS
 correlation: LDA (PW) + TPSS
 Dummy atoms with grid-point found.
 DFT quadrature threshold dgrenze tightened by factor 1/10.

 Dummy atoms with grid-point found.
 DFT quadrature threshold dgrenze tightened by factor 1/10.

 grinp -> nfun, dfgga, dfhybrid 
           5 F F
 iterations will be done with small grid
  
 spherical integration : Lebedev's spherical grid
 spherical gridsize    :           5
    i.e. gridpoints    :         590
 value for diffuse not defined
 radial integration    : Chebyshev 2nd kind (scaling 3)
 radial gridsize       :           8
 integration cells     :          86
 partition function    : becke
 partition sharpness   :           3
  
 found dummy atom(s) with basis: included in dft

 <rddim> : input of entry tasksize
           from data group '$pardft' failed !

               Default values taken

 <rddim> : input of entry memdiv
           from data group '$pardft' failed !

               Default values taken
  RIDFT: memory allocation for DFT gridpoints
  MEMORY is divided by 1 as DEFAULT
 Each node can hold at most  the            1 -th part
 of the gridpoints    

 biggest AO integral is expected to be     6.129561670
  
           ------------------------
               RI-J - INFORMATION
           ------------------------
 
 
 **************************************************
 *      MEMORY ALLOCATION FOR PARALLEL RI-DFT     *
 **************************************************
 
 
MEMORY FOR (MU NU/ ALPHA), SEQUENTIAL RUN               7934 MByte
 
            DIFFERENCE IN MEMORY NEED:       DIAG./SLAVE  
 
      TOTAL DIFFERENCE :                    711 MByte
 
      difference in xcore:                   67 MByte
      difference in fatmat:                 216 MByte
      getcor calls skipped by slaves:       429 MByte
 
 
           Integral memory available for diagonal.      7934 MByte
 
           Integral memory available for slave             0 MByte
 
         MEMORY FOR (MU NU/ ALPHA) ON DIAGONALIZER      7934 MByte
 
         MEMORY FOR (MU NU/ ALPHA) ON ONE SLAVE            0 MByte
 
         TOTAL MEMORY FOR (MU NU/ ALPHA),ALL NODES      7934 MByte
 
 Contributions to RI integral batches: 
  neglected integral batches:      413804
  direct contribution:             272187
  memory contribution:       63709
 Memory core needed for (P|Q) and Cholesky     66 MByte
 Memory core minimum needed except of (P|Q)     4 MByte
 Total minimum memory core needed (sum)        69 MByte
     number of direct tasks:         160
  
 ****************************************
 Memory allocated for RI-J  8002 MByte
 ****************************************
                                            

          ------------------------
          nuclear repulsion energy  :   407.054943938    
          ------------------------

 
          -----------------
          -S integrals
          -----------------

 1e-integrals will be neglected if expon. factor < 0.677333E-15
 
          -----------------
          -T+V integrals
          -----------------

 1e-integrals will be neglected if expon. factor < 0.677333E-15
 Difference densities >>NOT<< switched on in parallel ridft!

 automatic virtual orbital shift switched on 
      shift if e(lumo)-e(homo) < 0.10000000    


 DIIS switched on: error vector is FDS-SDF
 Max. Iterations for DIIS is     :   4
 DIIS matrix (see manual) 
    Scaling factor of diagonals  :  1.200
    threshold for scaling factor :  0.000

 scf convergence criterion : increment of total energy < .1000000D-08
                  and increment of one-electron energy < .1000000D-05


 <geterg> : there is no data group $energy 

  MOs are in ASCII format !


 reading orbital data $scfmo  from file mos . 

 orbital characterization : expanded
 
 mo provided and orthogonalized by Cholesky decomposition

 DSCF restart information will be dumped onto file mos


 Starting SCF iterations


 ITERATION  ENERGY          1e-ENERGY        2e-ENERGY     RMS[dD(SAO)]   TOL
   1  -414.74125794016    -1348.0515493     526.25534743    0.000D+00 0.676D-14
                            Exc = -57.5651987969     Coul =  583.820546227    
                              N = 66.000194084    
                            current damping = 0.700
 
          max. resid. norm for Fia-block=  6.092D-01 for orbital     11a         
          max. resid. fock norm         =  6.454D+01 for orbital   3448a         

 ITERATION  ENERGY          1e-ENERGY        2e-ENERGY     RMS[dD(SAO)]   TOL
   2  -416.62513679226    -1361.0352937     537.35521298    0.692D-02 0.676D-14
                            Exc = -58.2123558111     Coul =  595.567568788    
                              N = 66.000156596    
                            current damping = 0.650
 
          Norm of current diis error:  4.0110    
          max. resid. norm for Fia-block=  1.711D-01 for orbital      1a         
          max. resid. fock norm         =  3.239D-01 for orbital   3393a         

 ITERATION  ENERGY          1e-ENERGY        2e-ENERGY     RMS[dD(SAO)]   TOL
   3  -416.86686634809    -1364.6413545     540.71954421    0.244D-02 0.676D-14
                            Exc = -58.6076204819     Coul =  599.327164688    
                              N = 66.000136845    
                            current damping = 0.550
 
          Norm of current diis error:  2.0810    
          max. resid. norm for Fia-block=  6.782D-02 for orbital      1a         
          max. resid. fock norm         =  7.270D-02 for orbital     37a         

 ITERATION  ENERGY          1e-ENERGY        2e-ENERGY     RMS[dD(SAO)]   TOL
   4  -416.95583115028    -1366.6725520     542.66177693    0.666D-03 0.676D-14
                            Exc = -58.6064679547     Coul =  601.268244888    
                              N = 66.000126795    
                            current damping = 0.450
 
          Norm of current diis error: 0.95140    
          max. resid. norm for Fia-block=  4.567D-02 for orbital     13a         
          max. resid. fock norm         =  6.438D-02 for orbital   3667a         

 ITERATION  ENERGY          1e-ENERGY        2e-ENERGY     RMS[dD(SAO)]   TOL
   5  -416.97001794868    -1366.8635376     542.83857575    0.271D-03 0.676D-14
                            Exc = -58.7481692348     Coul =  601.586744986    
                              N = 66.000123891    
                            current damping = 0.300
 
          Norm of current diis error: 0.56622    
          max. resid. norm for Fia-block=  1.307D-02 for orbital     30a         
          max. resid. fock norm         =  1.335D-02 for orbital     30a         
          mo-orthogonalization: Cholesky decomposition

 ITERATION  ENERGY          1e-ENERGY        2e-ENERGY     RMS[dD(SAO)]   TOL
   6  -416.97834405911    -1367.3269240     543.29363598    0.143D-03 0.676D-14
                            Exc = -58.7314087909     Coul =  602.025044769    
                              N = 66.000122112    
                            current damping = 0.150
 
          Norm of current diis error: 0.11259    
          max. resid. norm for Fia-block=  3.618D-03 for orbital     12a         
          max. resid. fock norm         =  6.024D-03 for orbital   3940a         

 ITERATION  ENERGY          1e-ENERGY        2e-ENERGY     RMS[dD(SAO)]   TOL
   7  -416.97857754108    -1367.3275140     543.29399256    0.463D-04 0.676D-14
                            Exc = -58.7384167166     Coul =  602.032409272    
                              N = 66.000121661    
                            current damping = 0.050
 
          Norm of current diis error: 0.56421E-01
          max. resid. norm for Fia-block=  1.533D-03 for orbital     19a         
          max. resid. fock norm         =  3.779D-03 for orbital   3940a         

 ITERATION  ENERGY          1e-ENERGY        2e-ENERGY     RMS[dD(SAO)]   TOL
   8  -416.97863737490    -1367.3060760     543.27249464    0.663D-05 0.676D-14
                            Exc = -58.7385537681     Coul =  602.011048410    
                              N = 66.000121667    
                            current damping = 0.100
 
          Norm of current diis error: 0.27449E-01
          max. resid. norm for Fia-block=  6.836D-04 for orbital     30a         
          max. resid. fock norm         =  1.049D-03 for orbital   3939a         

 ITERATION  ENERGY          1e-ENERGY        2e-ENERGY     RMS[dD(SAO)]   TOL
   9  -416.97863557019    -1367.3378188     543.30423926    0.269D-05 0.676D-14
                            Exc = -58.7398506062     Coul =  602.044089868    
                              N = 66.000121591    
                            current damping = 0.150
 
          Norm of current diis error: 0.27116E-01
          max. resid. norm for Fia-block=  5.408D-04 for orbital     30a         
          max. resid. fock norm         =  6.957D-04 for orbital   3658a         

 ITERATION  ENERGY          1e-ENERGY        2e-ENERGY     RMS[dD(SAO)]   TOL
  10  -416.97864976153    -1367.3458532     543.31225945    0.164D-05 0.676D-14
                            Exc = -58.7391942870     Coul =  602.051453738    
                              N = 66.000121616    
                            current damping = 0.050
 
          Norm of current diis error: 0.12228E-01
          max. resid. norm for Fia-block=  2.499D-04 for orbital     31a         
          max. resid. fock norm         =  3.062D-04 for orbital   3658a         
          mo-orthogonalization: Cholesky decomposition

 ITERATION  ENERGY          1e-ENERGY        2e-ENERGY     RMS[dD(SAO)]   TOL
  11  -416.97865196113    -1367.3244936     543.29089769    0.104D-05 0.676D-14
                            Exc = -58.7394425270     Coul =  602.030340221    
                              N = 66.000121630    
                            current damping = 0.100
 
          Norm of current diis error: 0.69686E-02
          max. resid. norm for Fia-block=  1.370D-04 for orbital     30a         
          max. resid. fock norm         =  1.641D-04 for orbital   3658a         

 ITERATION  ENERGY          1e-ENERGY        2e-ENERGY     RMS[dD(SAO)]   TOL
  12  -416.97865308508    -1367.3288729     543.29527590    0.589D-06 0.676D-14
                            Exc = -58.7388721080     Coul =  602.034148005    
                              N = 66.000121619    
                            current damping = 0.150
 
          Norm of current diis error: 0.19071E-02
          max. resid. norm for Fia-block=  4.945D-05 for orbital     31a         
          max. resid. fock norm         =  6.986D-05 for orbital   3782a         

 ITERATION  ENERGY          1e-ENERGY        2e-ENERGY     RMS[dD(SAO)]   TOL
  13  -416.97865316851    -1367.3300473     543.29645024    0.261D-06 0.676D-14
                            Exc = -58.7392163404     Coul =  602.035666577    
                              N = 66.000121623    
                            current damping = 0.050
 
          Norm of current diis error: 0.78714E-03
          max. resid. norm for Fia-block=  1.744D-05 for orbital     31a         
          max. resid. fock norm         =  2.930D-05 for orbital   3938a         

 ITERATION  ENERGY          1e-ENERGY        2e-ENERGY     RMS[dD(SAO)]   TOL
  14  -416.97865317907    -1367.3296236     543.29602648    0.105D-06 0.676D-14
                            Exc = -58.7391257257     Coul =  602.035152204    
                              N = 66.000121621    
                            current damping = 0.100
 
          Norm of current diis error: 0.50468E-03
          max. resid. norm for Fia-block=  1.073D-05 for orbital     30a         
          max. resid. fock norm         =  1.551D-05 for orbital   3938a         

 DENSITY CONVERGED !


 ITERATION  ENERGY          1e-ENERGY        2e-ENERGY     RMS[dD(SAO)]   TOL
  15  -416.97865318186    -1367.3293831     543.29578602    0.400D-07 0.676D-14
                            Exc = -58.7391057555     Coul =  602.034891773    
                              N = 66.000121622    
                            current damping = 0.050
 
          Norm of current diis error: 0.33868E-03
          max. resid. norm for Fia-block=  6.530D-06 for orbital     30a         
          max. resid. fock norm         =  9.234D-06 for orbital   3939a         
          mo-orthogonalization: Cholesky decomposition

 DENSITY CONVERGED !


 ITERATION  ENERGY          1e-ENERGY        2e-ENERGY     RMS[dD(SAO)]   TOL
  16  -416.97865318390    -1367.3294986     543.29590147    0.264D-07 0.676D-14
                            Exc = -58.7391131460     Coul =  602.035014613    
                              N = 66.000121622    
                            current damping = 0.100
 
          Norm of current diis error: 0.17225E-03
          max. resid. norm for Fia-block=  3.559D-06 for orbital     31a         
          max. resid. fock norm         =  4.744D-06 for orbital   3940a         

 DENSITY CONVERGED !


 ITERATION  ENERGY          1e-ENERGY        2e-ENERGY     RMS[dD(SAO)]   TOL
  17  -416.97865318451    -1367.3295386     543.29594150    0.113D-07 0.676D-14
                            Exc = -58.7391228863     Coul =  602.035064387    
                              N = 66.000121622    
                            current damping = 0.050
 
          Norm of current diis error: 0.51233E-04
          max. resid. norm for Fia-block=  1.508D-06 for orbital     31a         
          max. resid. fock norm         =  1.784D-06 for orbital   3938a         

 ENERGY & DENSITY CONVERGED !


 ITERATION  ENERGY          1e-ENERGY        2e-ENERGY     RMS[dD(SAO)]   TOL
  18  -416.97845008165    -1367.3295442     543.29615014    0.493D-08 0.676D-14
                            Exc = -58.7389141788     Coul =  602.035064324    
                              N = 66.000002707    
                            current damping = 0.050
 
          Norm of current diis error: 0.41434E-04
          max. resid. norm for Fia-block=  6.634D-07 for orbital     31a         
          max. resid. fock norm         =  7.345D-07 for orbital     39a         

 End of SCF iterations

   convergence criteria satisfied after   18 iterations


                  ------------------------------------------ 
                 |  total energy      =   -416.97845008165  |
                  ------------------------------------------ 
                 :  kinetic energy    =    415.19626474585  :
                 :  potential energy  =   -832.17471482750  :
                 :  virial theorem    =      1.99572595338  :
                 :  wavefunction norm =      1.00000000000  :
                  .......................................... 


 <geterg> : there is no data group $energy 


 <skperg> : $end is missing 


 orbitals $scfmo  will be written to file mos

    irrep                 29a         30a         31a         32a         33a   
 eigenvalues H         -0.32312    -0.32056    -0.32054    -0.28573    -0.26681
            eV          -8.7927     -8.7228     -8.7224     -7.7751     -7.2605
 occupation              2.0000      2.0000      2.0000      2.0000      2.0000 

    irrep                 34a         35a         36a         37a         38a   
 eigenvalues H         -0.12582    -0.08772    -0.02815    -0.02748    -0.02081
            eV          -3.4239     -2.3870     -0.7659     -0.7479     -0.5662
 
 
 ! grave: sending quit signal to master process
 
 
 
 
 ==============================================================================
                           electrostatic moments
 ==============================================================================

 reference point for electrostatic moments:    0.00000   0.00000   0.00000

 
              nuc           elec       ->  total
 ------------------------------------------------------------------------------
                          charge      
 ------------------------------------------------------------------------------
          66.000000     -66.000000       0.000000
 
 ------------------------------------------------------------------------------
                       dipole moment  
 ------------------------------------------------------------------------------
   x      29.012455     -29.023496      -0.011041
   y     -69.730120      69.692599      -0.037520
   z    -118.993655     118.991729      -0.001925
 
   | dipole moment | =     0.0392 a.u. =     0.0995 debye 
 
 ------------------------------------------------------------------------------
                     quadrupole moment
 ------------------------------------------------------------------------------
  xx     170.256110    -206.958856     -36.702747
  yy     109.517380    -150.947116     -41.429735
  zz    1493.049164   -1562.133247     -69.084083
  xy    -105.228395     102.261005      -2.967390
  xz     -59.661740      59.785908       0.124168
  yz     105.141954    -104.670746       0.471209
 
     1/3  trace=     -49.072188
     anisotropy=      30.740165
 
 ==============================================================================
 

    ridft profiling
  --------------------------------------------------------------------
             module   cpu total (s)       %  wall total (s)       %

               RIDFT         14912.4  100.00         15577.8  100.00
         Ridft_b_scf           224.6    1.51           374.9    2.41
        b_scf_prelim             0.0    0.00             0.0    0.00
        b_scf_molinp             0.0    0.00             0.0    0.00
         b_scf_init0             0.0    0.00             0.0    0.00
        b_scf_auxbas             0.0    0.00             0.0    0.00
      b_scf_symmetry             0.0    0.00             0.0    0.00
         b_scf_cosmo             0.0    0.00             0.0    0.00
        b_scf_params            20.5    0.14            20.5    0.13
          b_scf_ri-j            56.9    0.38            56.9    0.37
    b_scf_ri-j_auxpq            56.8    0.38            56.7    0.36
     ri-j_auxpq_chol             3.8    0.03             3.7    0.02
         b_scf_1elec             3.6    0.02             3.7    0.02
       b_scf_moinput           143.6    0.96           293.8    1.89
     moinput_orthmos           143.3    0.96           143.2    0.92
    b_scf_dft-dstmax             0.0    0.00             0.0    0.00
           Ridft_scf         14685.9   98.48         15201.1   97.58
          Scf_b_loop             0.0    0.00             0.0    0.00
                noga             0.0    0.00             0.0    0.00
            Scf_loop         14674.9   98.41         15190.0   97.51
     scf_loop_mkdmat            16.3    0.11           163.4    1.05
       scf_loop_ri-j          1395.5    9.36          1394.4    8.95
      parlp1.bc.dens             1.9    0.01             1.9    0.01
        parlp1.gs.gp             0.4    0.00             0.4    0.00
        parlp2.bc.gq             0.0    0.00             0.0    0.00
        scf_loop_dft         11684.3   78.35         11675.3   74.95
      pardft.bc.dens             0.0    0.00             0.0    0.00
        dft_grid_con            31.0    0.21            31.0    0.20
          dft_xcmrhf         11541.4   77.39         11532.5   74.03
          dft_getval            81.8    0.55            81.6    0.52
          funct2 dst             1.0    0.01             1.0    0.01
      funct2 f2loop1            16.5    0.11            16.5    0.11
      funct2 f2loop2            33.4    0.22            33.3    0.21
          funct2 s+c            29.7    0.20            29.6    0.19
        funct2 cmf_2            26.6    0.18            26.6    0.17
          dft_mkdens          6157.4   41.29          6152.9   39.50
        dft_mgga-fun             2.0    0.01             1.9    0.01
          dft_mkfock          5299.0   35.53          5295.0   33.99
     pardft.red.fock           820.1    5.50           819.4    5.26
     scf_loop_energy             0.2    0.00             5.7    0.04
     scf_loop_mkfock             0.3    0.00             0.3    0.00
       scf_loop_diis           854.0    5.73          1225.8    7.87
       scf_loop_diag           420.3    2.82           420.0    2.70
         diag_tritrn           147.2    0.99           147.2    0.94
          diag_rdiag           272.0    1.82           271.8    1.74
     scf_loop_modump           168.4    1.13           169.6    1.09
      scf_loop_ortho           128.9    0.86           128.8    0.83
          Scf_a_loop            11.0    0.07            11.1    0.07
         Ridft_a_scf             1.8    0.01             1.9    0.01
         a_scf_fanal             1.8    0.01             1.8    0.01
 


    ------------------------------------------------------------------------
         total  cpu-time :  4 hours  8 minutes and 49 seconds
         total wall-time :  4 hours 24 minutes and 13 seconds
    ------------------------------------------------------------------------


   ****  ridft : all done  ****


    2016-06-10 16:06:34.459 

