
 eiger (gplogin1.local) : TURBOMOLE V7.2 ( 21285 ) 30 Jun 2017 at 11:51:10
 Copyright (C) 2017 TURBOMOLE GmbH, Karlsruhe


    2017-11-01 16:28:15.952 

                                                                                
  
 HOMO-LUMO Separation
   HOMO:    85.    85 a     -0.10495691 H =     -2.85602 eV
   LUMO:    86.    86 a     -0.08733930 H =     -2.37662 eV
   Gap :                    +0.01761761 H =     +0.47940 eV
 
Number of MOs=    890, Electrons=    170.00, Symmetry: c1   
 
   Nr.   Orbital    Occupation       Energy
  102.   102 a                     +0.086179 H =        +2.345 eV
  101.   101 a                     +0.065831 H =        +1.791 eV
  100.   100 a                     +0.062724 H =        +1.707 eV
   99.    99 a                     +0.055776 H =        +1.518 eV
   98.    98 a                     +0.039352 H =        +1.071 eV
   97.    97 a                     +0.029836 H =        +0.812 eV
   96.    96 a                     +0.017057 H =        +0.464 eV
   95.    95 a                     +0.014987 H =        +0.408 eV
   94.    94 a                     -0.000403 H =        -0.011 eV
   93.    93 a                     -0.008296 H =        -0.226 eV
   92.    92 a                     -0.027602 H =        -0.751 eV
   91.    91 a                     -0.029306 H =        -0.797 eV
   90.    90 a                     -0.034753 H =        -0.946 eV
   89.    89 a                     -0.037068 H =        -1.009 eV
   88.    88 a                     -0.054506 H =        -1.483 eV
   87.    87 a                     -0.069970 H =        -1.904 eV
   86.    86 a                     -0.087339 H =        -2.377 eV
   85.    85 a        2.000        -0.104957 H =        -2.856 eV
   84.    84 a        2.000        -0.106059 H =        -2.886 eV
   83.    83 a        2.000        -0.109868 H =        -2.990 eV
   82.    82 a        2.000        -0.213351 H =        -5.806 eV
   81.    81 a        2.000        -0.223369 H =        -6.078 eV
   80.    80 a        2.000        -0.226475 H =        -6.163 eV
   79.    79 a        2.000        -0.226981 H =        -6.176 eV
   78.    78 a        2.000        -0.265102 H =        -7.214 eV
   77.    77 a        2.000        -0.278153 H =        -7.569 eV
   76.    76 a        2.000        -0.290859 H =        -7.915 eV
   75.    75 a        2.000        -0.295497 H =        -8.041 eV
   74.    74 a        2.000        -0.303984 H =        -8.272 eV
   73.    73 a        2.000        -0.315066 H =        -8.573 eV
   72.    72 a        2.000        -0.333072 H =        -9.063 eV
   71.    71 a        2.000        -0.333622 H =        -9.078 eV
   70.    70 a        2.000        -0.335285 H =        -9.124 eV


    ------------------------------------------------------------------------
         total  cpu-time :   0.59 seconds
         total wall-time :   0.68 seconds
    ------------------------------------------------------------------------

   ****  eiger : all done  ****


    2017-11-01 16:28:16.620 

