
   OpenMP run-time library returned nthreads = 28

 ricc2 (c-15-33) : TURBOMOLE V7.3 ( 22142 ) 4 Jul 2018 at 18:12:42
 Copyright (C) 2018 TURBOMOLE GmbH, Karlsruhe


    2019-03-25 11:25:20.190 



                              R I C C 2 - PROGRAM

                          the quantum chemistry groups
                             at the universities in
                           Karlsruhe, Bochum & Mainz
                                   Germany



   *-----------------------------------------------------------------------*
   |                     program will use 28 thread(s)                     |
   *-----------------------------------------------------------------------*


              +--------------------------------------------------+
              | Atomic coordinate, charge and isotop information |
              +--------------------------------------------------+

                    atomic coordinates            atom    charge  isotop
         12.07912944   15.52410018   67.70888734    n      7.000     0
         13.54177747   13.46240897   67.12118251    c      6.000     0
         13.13737608   11.49709379   68.53280794    n      7.000     0
         11.23253213   12.26054315   70.17875940    c      6.000     0
         10.08735810   11.00198555   72.19509718    c      6.000     0
         10.37837592    8.85903611   72.95665681    o      8.000     0
          8.30534635   12.58746577   73.45554451    n      7.000     0
          7.71008262   15.03844057   72.86594996    c      6.000     0
          6.03956472   16.29699817   74.30781100    n      7.000     0
          8.75321145   16.23652693   70.91386286    n      7.000     0
         10.54656155   14.74553301   69.69687923    c      6.000     0
         12.01865821   17.22485370   66.83961332    h      1.000     0
          7.37938055   11.71819175   74.95220761    h      1.000     0
         14.91749809   13.54933637   65.60940161    h      1.000     0
          5.66539895   18.09601745   73.80325412    h      1.000     0
          5.23265166   15.52032073   75.88951177    h      1.000     0
 
       center of nuclear mass  :   10.09976437   13.41756862   70.97976474
       center of nuclear charge:   10.06606234   13.47474065   70.99393395

              +--------------------------------------------------+
              |               basis set information              |
              +--------------------------------------------------+

              we will work with the 1s 3p 5d 7f 9g ... basis set
              ...i.e. with spherical basis functions...

   type   atoms  prim   cont   basis
   ---------------------------------------------------------------------------
    n        5     77     55   cc-pVQZ   [5s4p3d2f1g|21s6p3d2f1g]
    c        5     77     55   cc-pVQZ   [5s4p3d2f1g|21s6p3d2f1g]
    o        1     77     55   cc-pVQZ   [5s4p3d2f1g|21s6p3d2f1g]
    h        5     32     30   cc-pVQZ   [4s3p2d1f|6s3p2d1f]
   ---------------------------------------------------------------------------
   total:   16   1007    755
   ---------------------------------------------------------------------------

   total number of primitive shells          :  111
   total number of contracted shells         :  215
   total number of cartesian basis functions :  945
   total number of SCF-basis functions       :  755


 symmetry group of the molecule :   c1 

 the group has the following generators :
   c1(z)

    1 symmetry operations found

 there are 1 real representations :   a   


   =========================================================================


     restricted closed shell calculation for the wavefunction models:
               MP2        - Second Order Moeller Plesset PT


     global parameters for ricc2 program:

        hard restart (reuse of interm.) :  disabled
        soft restart (reuse of vectors) :  disabled
        threshold for vector function   :    0.100000E-05
        convergence threshold energy    :    0.100000E-06
        linear dependence threshold     :    0.100000E-13
        global print level              :      1
        maximum number of iterations    :   300
        maximum number DIIS vectors     :    10
        max. dim. of reduced space      :   100
        core memory limit (MB)          : *****


     MP2 energy only: Energy will be calculated directly from T2 amplitudes!

     Scratch Directory : 


   =========================================================================

    der. integral neglect threshold  :  0.10E-07
    integral neglect threshold       :  0.35E-11
    integral storage threshold THIZE :  0.10E-04
    integral storage threshold THIME :         5


                  +------------------------------------------+
                  |     Auxiliary basis set information      |
                  +------------------------------------------+

              we will work with the 1s 3p 5d 7f 9g ... basis set
              ...i.e. with spherical basis functions...

   type   atoms  prim   cont   basis
   ---------------------------------------------------------------------------
    n        5    132    132   cc-pVQZ   [8s7p6d5f3g1h|8s7p6d5f3g1h]
    c        5    132    132   cc-pVQZ   [8s7p6d5f3g1h|8s7p6d5f3g1h]
    o        1    132    132   cc-pVQZ   [8s7p6d5f3g1h|8s7p6d5f3g1h]
    h        5     55     55   cc-pVQZ   [5s4p3d2f1g|5s4p3d2f1g]
   ---------------------------------------------------------------------------
   total:   16   1727   1727
   ---------------------------------------------------------------------------

   total number of primitive shells          :  105
   total number of contracted shells         :  405
   total number of cartesian basis functions : 2341
   total number of SCF-basis functions       : 1727


 maximum number of shells which are related by symmetry :  1


 The symmetry information takes   1 MB

*---------------------------------------------------------------------*
|               simplified C1 algorithm will be applied               |
*---------------------------------------------------------------------*
  MOs are in ASCII format !


 reading orbital data $scfmo  from file mos
 orbital characterization : scfconv=9



              +--------------------------------------------+
              | list of orbitals that will be kept frozen: |
              +--------------------------------------------+
              |   irrep   index      energy     occ/vir    |
              +--------------------------------------------+
              |   a         1      -20.5107     occupied   |
              |   a         2      -15.6260     occupied   |
              |   a         3      -15.6258     occupied   |
              |   a         4      -15.6154     occupied   |
              |   a         5      -15.5594     occupied   |
              |   a         6      -15.5545     occupied   |
              |   a         7      -11.3968     occupied   |
              |   a         8      -11.3542     occupied   |
              |   a         9      -11.3262     occupied   |
              |   a        10      -11.3050     occupied   |
              |   a        11      -11.2382     occupied   |
              +--------------------------------------------+



   Molecular Orbital Statistic:
   ============================

   -----------------------------
   orbitals in total:
   -----------------------------
    frozen occupied :     11
    active occupied :     28
    active virtual  :    716
    frozen virtual  :      0
    all together    :    755
   -----------------------------


     time in riccmos       cpu:  8.88 sec    wall:  0.74 sec    ratio: 12.0

     total memory allocated for calculation of (Q|P)**(-1/2) : 35 MiB


     calculation of (P|Q) ...
     time in lp2sym        cpu:  3.35 sec    wall:  0.12 sec    ratio: 27.9


     calculation of the Cholesky decomposition of (P|Q)**(-1) ...
     time in invmetri      cpu: 13.81 sec    wall:  0.53 sec    ratio: 26.0

   threshold for RMS(d[D]) in SCF was     :  0.10E-06
   integral neglect threshold             :  0.35E-11
   derivative integral neglect threshold  :  0.10E-07


   =========================================================================

     Energy of reference wave function is  -539.6144482300000
     Maximum orbital residual is           0.1144484382551E-05


     Number of symmetry-nonredundant auxiliary basis functions:     1727

     Block lengths for integral files:
        frozen occupied (BOI):        1 MiB
        active occupied (BJI):        1 MiB
        active virtual  (BAI):       10 MiB
        frozen virtual  (BGI):        0 MiB
               general  (BTI):       10 MiB

   =========================================================================




   **************************************************************************
   *                                                                        *
   *          OPTIMIZATION OF THE GROUND STATE CLUSTER AMPLITUDES           *
   *                                                                        *
   **************************************************************************


   Iter.   MP2 energy       Norm(Omega)   Norm(t1)  Norm(t2)     cpu    wall
   ...........................................................................
    1   -541.7495709261     ------          0.00000   0.46364    9.26    0.34
   ...........................................................................


     time in total         cpu:  9 min 16 s  wall:  0 min 20 s  ratio: 27.3


     **********************************************************************
     *                                                                    *
     *   RHF  energy                             :   -539.6144482300      *
     *   MP2 correlation energy (doubles)        :     -2.1351226961      *
     *                                                                    *
     *   Final MP2 energy                        :   -541.7495709261      *
     *                                                                    *
     *    E(S)   =     -1.3050864266      E(T)   =     -0.8300362696      *
     *    E(OS)  =     -1.5817651831      E(SS)  =     -0.5533575130      *
     *                                                                    *
     *   SCS-MP2 energy                          :   -541.6970189541      *
     *   (computed with  C(OS) =   1.2000  and  C(SS) =   0.3333)         *
     *                                                                    *
     *   SOS-MP2 energy                          :   -541.6707429680      *
     *   (computed with  C(OS) =   1.3000)                                *
     *                                                                    *
     *   Norm of MP1 T2 amplitudes               :      0.4636422832      *
     *                                                                    *
     **********************************************************************



    ------------------------------------------------------------------------
         total  cpu-time : 11 minutes and 22 seconds
         total wall-time :  26.06 seconds
    ------------------------------------------------------------------------

   ****  ricc2 : all done  ****


    2019-03-25 11:25:46.174 

