
 ccsdf12 (gplogin2.gp.local) : TURBOMOLE V7.3 ( 22118 ) 1 Jul 2018 at 20:38:15
 Copyright (C) 2018 TURBOMOLE GmbH, Karlsruhe


    2019-09-09 11:54:17.780 


          ************************************************************
          *                                                          *
          *              C C S D F 1 2   P R O G R A M               *
          *                                                          *
          *               the quantum chemistry groups               *
          *                  at the universities in                  *
          *            Karlsruhe, Bochum, Bristol & Mainz            *
          *                                                          *
          ************************************************************


   *-----------------------------------------------------------------------*
   |                     program will use  1 thread(s)                     |
   *-----------------------------------------------------------------------*


              +--------------------------------------------------+
              | Atomic coordinate, charge and isotop information |
              +--------------------------------------------------+

                    atomic coordinates            atom    charge  isotop
        -58.58151012    0.00000000    0.00000000    he     2.000     0
 
       center of nuclear mass  :  -58.58151012    0.00000000    0.00000000
       center of nuclear charge:  -58.58151012    0.00000000    0.00000000

              +--------------------------------------------------+
              |               basis set information              |
              +--------------------------------------------------+

              we will work with the 1s 3p 5d 7f 9g ... basis set
              ...i.e. with spherical basis functions...

   type   atoms  prim   cont   basis
   ---------------------------------------------------------------------------
    he       1     17     14   cc-pVTZ   [3s2p1d|6s2p1d]
   ---------------------------------------------------------------------------
   total:    1     17     14
   ---------------------------------------------------------------------------

   total number of primitive shells          :    9
   total number of contracted shells         :    6
   total number of cartesian basis functions :   15
   total number of SCF-basis functions       :   14


 symmetry group of the molecule :   c1 

 the group has the following generators :
   c1(z)

    1 symmetry operations found

 there are 1 real representations :   a   
WARNING: an $rij but no $rik flag found
WARNING: $rij is ignored by ricc2!


   =========================================================================


     restricted closed shell calculation for the wavefunction models:
               CCSD(T)    - CC Singles and Doubles With Pert. Triples Corr.


     global parameters for ricc2 program:

        hard restart (reuse of interm.) :  disabled
        soft restart (reuse of vectors) :  disabled
        threshold for vector function   :    0.100000E-05
        convergence threshold energy    :    0.100000E-06
        linear dependence threshold     :    0.100000E-13
        global print level              :      1
        maximum number of iterations    :    30
        maximum number DIIS vectors     :    10
        max. dim. of reduced space      :   100
        core memory limit (MB)          :   500


     CCSD(T) energy only: Energy will be calculated directly from T3 amplitudes!

     Scratch Directory : 


   =========================================================================

    der. integral neglect threshold  :  0.10E-07
    integral neglect threshold       :  0.22E-09
    integral storage threshold THIZE :  0.10E-04
    integral storage threshold THIME :         5


                  +------------------------------------------+
                  |     Auxiliary basis set information      |
                  +------------------------------------------+

              we will work with the 1s 3p 5d 7f 9g ... basis set
              ...i.e. with spherical basis functions...

   type   atoms  prim   cont   basis
   ---------------------------------------------------------------------------
    he       1     27     27   cc-pVTZ   [5s4p2d|5s4p2d]
   ---------------------------------------------------------------------------
   total:    1     27     27
   ---------------------------------------------------------------------------

   total number of primitive shells          :   11
   total number of contracted shells         :   11
   total number of cartesian basis functions :   29
   total number of SCF-basis functions       :   27


 maximum number of shells which are related by symmetry :  1


 The symmetry information takes   1 MB

*---------------------------------------------------------------------*
|               simplified C1 algorithm will be applied               |
*---------------------------------------------------------------------*

         -----------------
         -T+V- integrals
         -----------------

 1e-integrals will be neglected if expon. factor < 0.222797E-10
  MOs are in ASCII format !


 reading orbital data $scfmo  from file mos
 orbital characterization : scfconv=9
 all orbitals will be active in the correlation treatment


   Molecular Orbital Statistic:
   ============================

   -----------------------------
   orbitals in total:
   -----------------------------
    frozen occupied :      0
    active occupied :      1
    active virtual  :     13
    frozen virtual  :      0
    all together    :     14
   -----------------------------


     time in riccmos       cpu:  0.01 sec    wall:  0.03 sec    ratio:  0.2

     total memory allocated for calculation of (Q|P)**(-1/2) : 1 MiB


     calculation of (P|Q) ...
     time in lp2sym        cpu:  0.00 sec    wall:  0.00 sec    ratio:  0.0


     calculation of the Cholesky decomposition of (P|Q)**(-1) ...
     time in invmetri      cpu:  0.00 sec    wall:  0.01 sec    ratio:  0.3

   threshold for RMS(d[D]) in SCF was     :  0.10E-06
   integral neglect threshold             :  0.22E-09
   derivative integral neglect threshold  :  0.10E-07


   =========================================================================

     Energy of reference wave function is    -2.8611541797530
     Maximum orbital residual is           0.5486259411273E-07


     Number of symmetry-nonredundant auxiliary basis functions:       27

     Block lengths for integral files:
        frozen occupied (BOI):        0 MiB
        active occupied (BJI):        1 MiB
        active virtual  (BAI):        1 MiB
        frozen virtual  (BGI):        0 MiB
               general  (BTI):        1 MiB

   =========================================================================




     **********************************************************************
     *               no explicit correlation will be included             *
     **********************************************************************


     time in 3idx,ccsdint  cpu:  0.01 sec    wall:  0.01 sec    ratio:  0.6

     Calculate integrals (ia|jb) for MP2 start guess



     **********************************************************************
     *                                                                    *
     *   RHF  energy                             :     -2.8611541798      *
     *   MP2 correlation energy (doubles)        :     -0.0331341263      *
     *                                                                    *
     *   Final MP2 energy                        :     -2.8942883061      *
     *                                                                    *
     *    E(S)   =     -0.0331341263      E(T)   =      0.0000000000      *
     *    E(OS)  =     -0.0331341263      E(SS)  =      0.0000000000      *
     *                                                                    *
     *   SCS-MP2 energy                          :     -2.9009151313      *
     *   (computed with  C(OS) =   1.2000  and  C(SS) =   0.3333)         *
     *                                                                    *
     *   SOS-MP2 energy                          :     -2.9042285440      *
     *   (computed with  C(OS) =   1.3000)                                *
     *                                                                    *
     *   Norm of MP1 T2 amplitudes               :      0.0392180740      *
     *                                                                    *
     **********************************************************************

     time in ccsdint       cpu:  0.02 sec    wall:  0.04 sec    ratio:  0.4


   **************************************************************************
   *                                                                        *
   *          OPTIMIZATION OF THE GROUND STATE CLUSTER AMPLITUDES           *
   *                                                                        *
   **************************************************************************
     threshold for screening of BF intermediate: 0.44E-11
     start CCSD from scratch because restart not enabled


   Iter.   CCSD energy      Norm(Omega)    Norm(t1)  Norm(t2)     cpu    wall
   ...........................................................................
    1     -2.8990650903    0.0536771444     0.00000   0.06934    0.00    0.00
    2     -2.9001745063    0.0121411700     0.00108   0.08121    0.00    0.00
    3     -2.9002304010    0.0009853334     0.00154   0.08443    0.00    0.00
    4     -2.9002309971    0.0001458974     0.00175   0.08460    0.00    0.00
    5     -2.9002310416    0.0000062707     0.00176   0.08460    0.00    0.00
    6     -2.9002310430    0.0000008204     0.00176   0.08460    0.00    0.00
   ...........................................................................
   CC equations converged in  6 iterations.

   last energy change         :  0.14E-08
   convergence threshold      :  0.10E-06
   norm of the vector function:  0.82E-06
   convergence threshold      :  0.10E-05

     time in total         cpu:  0.44 sec    wall:  0.81 sec    ratio:  0.5


     **********************************************************************
     *                                                                    *
     *   RHF  energy                             :     -2.8611541798      *
     *   correlation energy                      :     -0.0390768632      *
     *                                                                    *
     *   Final CCSD energy                       :     -2.9002310430      *
     *                                                                    *
     *   D1 diagnostic                           :      0.0018            *
     *                                                                    *
     **********************************************************************

     time in triples corr  cpu:  0.01 sec    wall:  0.02 sec    ratio:  0.4


      *********************************************************************
      *                                                                   *
      *  RHF  energy                             :     -2.8611541798      *
      *  CCSD correlation energy                 :     -0.0390768632      *
      *  E4 doubles and triples contribution     :      0.0000000000      *
      *  E5 singles and triples contribution     :      0.0000000000      *
      *  total correlation energy                :     -0.0390768632      *
      *                                                                   *
      *  Final CCSD(T) energy                    :     -2.9002310430      *
      *                                                                   *
      *  D1 diagnostic (CCSD)                    :      0.0018            *
      *                                                                   *
      *********************************************************************



    ------------------------------------------------------------------------
         total  cpu-time :   0.57 seconds
         total wall-time :   1.21 seconds
    ------------------------------------------------------------------------

   ****  ccsdf12 : all done  ****


    2019-09-09 11:54:18.961 

