 this is node-proc. number 0 running on node c-5-23.local
 the total number of node-proc. spawned is  33

 dscfserver (c-5-23.local) : TURBOMOLE V7.2 ( 21471 ) 7 Nov 2017 at 16:15:16
 Copyright (C) 2017 TURBOMOLE GmbH, Karlsruhe


    2018-03-08 22:12:09.130 

 
    0:00:03 ---- Start global counter...
    0:01:20 ---- ... finished.
 
    0:01:28 ---- Start global counter...
    0:02:47 ---- ... finished.
 
    0:02:54 ---- Start global counter...
    0:04:09 ---- ... finished.
 
    0:04:17 ---- Start global counter...
    0:05:27 ---- ... finished.
 
    0:05:34 ---- Start global counter...
    0:06:38 ---- ... finished.
 
    0:06:46 ---- Start global counter...
    0:07:44 ---- ... finished.
 
    0:07:52 ---- Start global counter...
    0:08:48 ---- ... finished.
 
    0:08:55 ---- Start global counter...
    0:09:46 ---- ... finished.
 
    0:09:53 ---- Start global counter...
    0:10:41 ---- ... finished.
 
    0:10:48 ---- Start global counter...
    0:11:33 ---- ... finished.
 
    0:11:42 ---- Start global counter...
    0:12:23 ---- ... finished.
 
    0:12:30 ---- Start global counter...
    0:13:07 ---- ... finished.
 
    0:13:15 ---- Start global counter...
    0:13:49 ---- ... finished.
 
    0:13:56 ---- Start global counter...
    0:14:27 ---- ... finished.
 
    0:14:34 ---- Start global counter...
    0:15:01 ---- ... finished.
 
    0:15:09 ---- Start global counter...
    0:15:32 ---- ... finished.
 
    0:15:40 ---- ByeBye Tag received


 ! Total wall-clock time in seconds  :      940.1
 ! Time (sec) spent in global counter:      815.2
 ! So-called SERIAL wall-clock time  :      124.9

  *** Regular termination of server ***
 total turnaround time of dscfserver   940.72 sec
 cpu elapsed by dscfserver process     225.19 sec 

   ***  dscf server : all done  ***


    2018-03-08 22:27:49.855 

