Using Slurm to start processes with PMI2
STARTING ridft ON 8 PROCESSORS!
RUNNING PROGRAM /beegfs/modfac/apps/TURBOMOLE/7.0_intel_GA/bin/em64t-unknown-linux-gnu_mpi/ridft_mpi.
PLEASE WAIT UNTIL ridft HAS FINISHED.
Look for the output in slave1.output.
  this is node-proc. number 1 running on node c-5-39.local
  the total number of node-proc. spawned is            8
  parallel platform: MPP, or cluster with fast interconnect

 ridft (c-5-39.local) : TURBOMOLE V7.0.2( ) 15 Jan 2016 at 17:47:42
 Copyright (C) 2016 TURBOMOLE GmbH, Karlsruhe


    2017-11-07 21:23:28.295 



                                  r i d f t

                        DFT program with RI approximation 
                                for coulomb part 




                                                 
                                 References:     
                                                 
          TURBOMOLE:                             
              R. Ahlrichs, M. Baer, M. Haeser, H. Horn, and
              C. Koelmel
              Electronic structure calculations on workstation
              computers: the program system TURBOMOLE
              Chem. Phys. Lett. 162: 165 (1989)
          Density Functional:                              
              O. Treutler and R. Ahlrichs                      
              Efficient Molecular Numerical Integration Schemes
              J. Chem. Phys. 102: 346 (1995)                   
          Parallel Version:                                
              Performance of parallel TURBOMOLE for Density    
              Functional Calculations                          
              M. v. Arnim and R. Ahlrichs                      
              J. Comp. Chem. 19: 1746 (1998)                   
          RI-J Method:                                     
              Auxiliary Basis Sets to approximate Coulomb      
              Potentials                                       
              Chem. Phys. Lett. 240: 283 (1995)                
              K. Eichkorn, O. Treutler, H. Oehm, M. Haeser     
              and R. Ahlrichs                                  
              Chem. Phys. Lett. 242: 652 (1995)                
                                                           
              Auxiliary Basis Sets for Main Row Atoms and their
              Use to approximate Coulomb Potentials            
              K. Eichkorn, F. Weigend, O. Treutler and         
              R. Ahlrichs                                      
              Theo. Chem. Acc. 97: 119 (1997)                   
                                                           
              Accurate Coulomb-fitting basis sets for H to Rn 
              F. Weigend                                        
              Phys. Chem. Chem. Phys. 8: 1057 (2006)            
                                                           
          Multipole accelerated RI-J (MARI-J):             
              Fast evaluation of the Coulomb potential for     
              electron densities using multipole accelerated   
              resolution of identity approximation             
              M. Sierka, A. Hogekamp and R. Ahlrichs           
              J. Chem. Phys. 118: 9136 (2003)                  
          RI-JK Method:                                     
              A fully direct RI-HF algorithm: Implementation,
              optimised auxiliary basis sets, demonstration of
              accuracy and efficiency                         
              F. Weigend                                      
              Phys. Chem. Chem. Phys. 4: 4285 (2002)           
          Two-component HF and DFT with spin-orbit coupling:  
              Self-consistent treatment of spin-orbit         
              interactions with efficient Hartree-Fock and    
              density functional methods                      
              M. K. Armbruster, F. Weigend, C. van Wüllen and 
              W. Klopper                                      
              Phys. Chem. Chem. Phys. 10: 1748 (2008)         
          Relativistic all-electron 2c calculations           
              An efficient implementation of two-component    
              relativistic exact-decoupling methods for large 
              molecules                                       
              D. Peng, N. Middendorf, F. Weigend, M. Reiher   
              J. Chem. Phys. 138, 184105 (2013)               
                                         


 


              +--------------------------------------------------+
              |      general information about current run       |
              +--------------------------------------------------+

 

 SCF run will be profiled !


 DENSITY CONVERGENCE CHECK SWITCHED ON !
 SCF CONVERGENCE IF RMS(delta[D]) <     0.1000000000E-06

 TPSS meta-GGA functional
 exchange:    LDA + TPSS
 correlation: LDA (PW) + TPSS
 A DFT calculation using the RI-J approximation will be carried out.
 Allocatable memory for RI due to $ricore (MB):       12000


              +--------------------------------------------------+
              | Atomic coordinate, charge and isotop information |
              +--------------------------------------------------+

                    atomic coordinates            atom    charge  isotop
          1.47400130   12.97840855   10.46321877    c      6.000     0
         -1.42194711  -12.95236318   10.50711918    c      6.000     0
         -3.51827852   -8.71488287   10.67272269    c      6.000     0
          1.22919144   -9.05957629   10.95273739    c      6.000     0
          3.57308963    8.74214504   10.61880143    c      6.000     0
         -1.17165289    9.08563621   10.94293406    c      6.000     0
         -1.17288083  -10.16974409    9.71264374    c      6.000     0
          1.21820004   10.19389350    9.67760254    c      6.000     0
         -0.01577677   -0.00081710   -0.61100156    c      6.000     0
          0.15429197    4.37565313   -0.69054108    c      6.000     0
         -0.19402613   -4.37709458   -0.67856040    c      6.000     0
         -0.55929318   -7.03123591    3.21036313    c      6.000     0
          0.54805534    7.03986009    3.18853604    c      6.000     0
         -0.31877961   -4.55516328    2.04416646    c      6.000     0
          0.30345127    4.56044964    2.03044875    c      6.000     0
          0.58076877    9.15982629    1.54879573    c      6.000     0
         -0.61478594   -9.15470964    1.57576987    c      6.000     0
          0.99711247    9.87365787    6.81274844    c      6.000     0
         -0.97953426   -9.85618032    6.84504121    c      6.000     0
         -0.00403023    0.00250863    2.11154219    c      6.000     0
         -0.74392528   -7.43475782    5.81861435    c      6.000     0
          0.75850110    7.44933785    5.79386139    c      6.000     0
          0.34070212    8.73142991   -1.10144086    c      6.000     0
         -0.39861827   -8.73309227   -1.07762389    c      6.000     0
         -0.17910655   -2.31709543    3.38716175    c      6.000     0
          0.18085094    2.32528402    3.37988952    c      6.000     0
          1.02479054   11.95094915    5.14064543    c      6.000     0
         -1.03036373  -11.93691487    5.17780973    c      6.000     0
          0.81990586   11.60622568    2.55789493    c      6.000     0
         -0.85134166  -11.59820735    2.59240284    c      6.000     0
          0.02193858    2.18166975   -1.94927934    n      7.000     0
         -0.06672775   -2.18648606   -1.94364909    n      7.000     0
          0.13355147    6.51560640   -2.18085243    n      7.000     0
         -0.19352271   -6.52056992   -2.16406656    n      7.000     0
         -0.71180296   -5.82922647    7.09345346    h      1.000     0
          0.74579439    5.84626805    7.07218421    h      1.000     0
          1.20982307   13.85044838    5.88201126    h      1.000     0
         -1.21256395  -13.83432520    5.92511799    h      1.000     0
         -0.20128702   -2.31305349    5.43959803    h      1.000     0
          0.22184874    2.32620338    5.43205972    h      1.000     0
          0.84152149   13.22104769    1.28896670    h      1.000     0
         -0.89126969  -13.21558200    1.32720077    h      1.000     0
         -0.39306323  -10.36850454   -2.33336202    h      1.000     0
          0.31715197   10.36393541   -2.36071770    h      1.000     0
         -1.55225091  -13.06116624   12.56760513    h      1.000     0
          1.62652034   13.09185297   12.52191892    h      1.000     0
         -1.39328016    7.07229742   10.52134693    h      1.000     0
          3.44669246    6.72205728   10.19043378    h      1.000     0
         -3.39522541   -6.69602570   10.23763233    h      1.000     0
          1.44796069   -7.04728951   10.52466264    h      1.000     0
         -3.12774186  -13.82428811    9.72380578    h      1.000     0
          0.22085682  -14.06739060    9.92284383    h      1.000     0
          3.17055302   13.84961217    9.65934363    h      1.000     0
         -0.17576722   14.09116736    9.89447375    h      1.000     0
          5.29559352    9.48212419    9.74469141    h      1.000     0
         -2.87285749   10.07196214   10.30104757    h      1.000     0
         -5.24932510   -9.45656504    9.81712783    h      1.000     0
          2.92380070  -10.04822525   10.29713433    h      1.000     0
         -3.66821506   -8.91595502   12.72633173    h      1.000     0
          1.10891264   -9.26470625   13.00791869    h      1.000     0
         -1.03209869    9.29552243   12.99640534    h      1.000     0
          3.74274055    8.94867302   12.67033744    h      1.000     0
 
       center of nuclear mass  :   -0.00152415    0.00530701    4.11934769
       center of nuclear charge:   -0.00050369    0.00560590    4.36462909

              +--------------------------------------------------+
              |               basis set information              |
              +--------------------------------------------------+

              we will work with the 1s 3p 5d 7f 9g ... basis set
              ...i.e. with spherical basis functions...

   type   atoms  prim   cont   basis
   ---------------------------------------------------------------------------
    c       30     77     55   cc-pVQZ   [5s4p3d2f1g|21s6p3d2f1g]
    n        4     77     55   cc-pVQZ   [5s4p3d2f1g|21s6p3d2f1g]
    h       28     32     30   cc-pVQZ   [4s3p2d1f|6s3p2d1f]
   ---------------------------------------------------------------------------
   total:   62   3514   2710
   ---------------------------------------------------------------------------

   total number of primitive shells          :   78
   total number of contracted shells         :  790
   total number of cartesian basis functions : 3360
   total number of SCF-basis functions       : 2710


 integral neglect threshold       :  0.99E-14
 integral storage threshold THIZE :  0.10E-04
 integral storage threshold THIME :         5

 RI-J AUXILIARY BASIS SET information:

              we will work with the 1s 3p 5d 7f 9g ... basis set
              ...i.e. with spherical basis functions...

   type   atoms  prim   cont   basis
   ---------------------------------------------------------------------------
    c       30     70     49   cc-pVQZ   [6s4p3d1f1g|12s5p4d2f1g]
    n        4     70     49   cc-pVQZ   [6s4p3d1f1g|12s5p4d2f1g]
    h       28     16     11   cc-pVQZ   [3s1p1d|5s2p1d]
   ---------------------------------------------------------------------------
   total:   62   2828   1974
   ---------------------------------------------------------------------------

   total number of primitive shells          :   56
   total number of contracted shells         :  650
   total number of cartesian basis functions : 2410
   total number of SCF-basis functions       : 1974


 symmetry group of the molecule :   c1 

 the group has the following generators :
   c1(z)

    1 symmetry operations found

 there are 1 real representations :   a   

 maximum number of shells which are related by symmetry :  1


    mo occupation :
   irrep   mo's   occupied
    a     2710      118
 
 number of basis functions   :         2710
 number of occupied orbitals :          118
 
  
           ------------------
           density functional
           ------------------
 TPSS meta-GGA functional
 exchange:    LDA + TPSS
 correlation: LDA (PW) + TPSS
 grinp -> nfun, dfgga, dfhybrid 
           5 F F
 iterations will be done with small grid
  
 spherical integration : Lebedev's spherical grid
 spherical gridsize    :           5
    i.e. gridpoints    :         590
 value for diffuse not defined
 radial integration    : Chebyshev 2nd kind (scaling 3)
 radial gridsize       :           8
 integration cells     :          62
 partition function    : becke
 partition sharpness   :           3
  

 <rddim> : input of entry tasksize
           from data group '$pardft' failed !

               Default values taken

 <rddim> : input of entry memdiv
           from data group '$pardft' failed !

               Default values taken
  RIDFT: memory allocation for DFT gridpoints
  MEMORY is divided by 1 as DEFAULT
 Each node can hold at most  the            1 -th part
 of the gridpoints    

 biggest AO integral is expected to be     4.161848376
  
           ------------------------
               RI-J - INFORMATION
           ------------------------
 
 
 **************************************************
 *      MEMORY ALLOCATION FOR PARALLEL RI-DFT     *
 **************************************************
 
 
MEMORY FOR (MU NU/ ALPHA), SEQUENTIAL RUN              11968 MByte
 
            DIFFERENCE IN MEMORY NEED:       DIAG./SLAVE  
 
      TOTAL DIFFERENCE :                    331 MByte
 
      difference in xcore:                   33 MByte
      difference in fatmat:                 100 MByte
      getcor calls skipped by slaves:       199 MByte
 
 
           Integral memory available for diagonal.     11968 MByte
 
           Integral memory available for slave             0 MByte
 
         MEMORY FOR (MU NU/ ALPHA) ON DIAGONALIZER     11968 MByte
 
         MEMORY FOR (MU NU/ ALPHA) ON ONE SLAVE            0 MByte
 
         TOTAL MEMORY FOR (MU NU/ ALPHA),ALL NODES     11968 MByte
 
 Contributions to RI integral batches: 
  neglected integral batches:      189157
  direct contribution:              63758
  memory contribution:       59530
 Memory core needed for (P|Q) and Cholesky     30 MByte
 Memory core minimum needed except of (P|Q)     8 MByte
 Total minimum memory core needed (sum)        38 MByte
     number of direct tasks:         160
  
 ****************************************
 Memory allocated for RI-J 12005 MByte
 ****************************************
                                            

          ------------------------
          nuclear repulsion energy  :   3161.25075355    
          ------------------------

 
          -----------------
          -S integrals
          -----------------

 1e-integrals will be neglected if expon. factor < 0.994631E-15
 
          -----------------
          -T+V integrals
          -----------------

 1e-integrals will be neglected if expon. factor < 0.994631E-15
 Difference densities >>NOT<< switched on in parallel ridft!

 automatic virtual orbital shift switched on 
      shift if e(lumo)-e(homo) < 0.10000000    


 DIIS switched on: error vector is FDS-SDF
 Max. Iterations for DIIS is     :   4
 DIIS matrix (see manual) 
    Scaling factor of diagonals  :  1.200
    threshold for scaling factor :  0.000

 scf convergence criterion : increment of total energy < .1000000D-08
                  and increment of one-electron energy < .1000000D-05


 <geterg> : there is no data group $energy 

  MOs are in ASCII format !


 reading orbital data $scfmo  from file mos . 

 orbital characterization : expanded
 
 mo provided and orthogonalized by Cholesky decomposition

 DSCF restart information will be dumped onto file mos


 Starting SCF iterations


 ITERATION  ENERGY          1e-ENERGY        2e-ENERGY     RMS[dD(SAO)]   TOL
   1  -1374.9955390272    -8098.9992782     3562.7529857    0.000D+00 0.992D-14
                            Exc = -197.157892194     Coul =  3759.91087786    
                              N = 236.00026740    
                            current damping = 0.700
 
          max. resid. norm for Fia-block=  3.010D-01 for orbital     97a         
          max. resid. fock norm         =  7.145D+00 for orbital   2480a         

 ITERATION  ENERGY          1e-ENERGY        2e-ENERGY     RMS[dD(SAO)]   TOL
   2  -1378.9135739574    -8134.5381508     3594.3738233    0.799D-02 0.992D-14
                            Exc = -199.775746907     Coul =  3794.14957022    
                              N = 236.00022411    
                            current damping = 0.650
 
          Norm of current diis error:  6.6099    
          max. resid. norm for Fia-block=  1.449D-01 for orbital      3a         
          max. resid. fock norm         =  2.713D-01 for orbital   2518a         

 ITERATION  ENERGY          1e-ENERGY        2e-ENERGY     RMS[dD(SAO)]   TOL
   3  -1379.6224351821    -8143.4008605     3602.5276718    0.265D-02 0.992D-14
                            Exc = -200.873786399     Coul =  3803.40145821    
                              N = 236.00019158    
                            current damping = 0.550
 
          Norm of current diis error:  3.2585    
          max. resid. norm for Fia-block=  6.146D-02 for orbital    114a         
          max. resid. fock norm         =  6.531D-02 for orbital     37a         

 ITERATION  ENERGY          1e-ENERGY        2e-ENERGY     RMS[dD(SAO)]   TOL
   4  -1379.8589924887    -8148.4300851     3607.3203391    0.115D-02 0.992D-14
                            Exc = -201.223940802     Coul =  3808.54427989    
                              N = 236.00017901    
                            current damping = 0.450
 
          Norm of current diis error:  1.3147    
          max. resid. norm for Fia-block=  3.082D-02 for orbital     35a         
          max. resid. fock norm         =  8.055D-02 for orbital   2199a         

 ITERATION  ENERGY          1e-ENERGY        2e-ENERGY     RMS[dD(SAO)]   TOL
   5  -1379.8877273500    -8150.7771811     3609.6387002    0.514D-03 0.992D-14
                            Exc = -201.620208591     Coul =  3811.25890877    
                              N = 236.00016709    
                            current damping = 0.350
 
          Norm of current diis error: 0.83630    
          max. resid. norm for Fia-block=  1.788D-02 for orbital    118a         
          max. resid. fock norm         =  2.042D-02 for orbital    118a         
          mo-orthogonalization: Cholesky decomposition

 ITERATION  ENERGY          1e-ENERGY        2e-ENERGY     RMS[dD(SAO)]   TOL
   6  -1379.9033635394    -8151.0435508     3609.8894338    0.544D-03 0.992D-14
                            Exc = -201.587368256     Coul =  3811.47680201    
                              N = 236.00016576    
                            current damping = 0.200
 
          Norm of current diis error: 0.44213    
          max. resid. norm for Fia-block=  7.266D-03 for orbital    117a         
          max. resid. fock norm         =  1.473D-02 for orbital   2398a         

 ITERATION  ENERGY          1e-ENERGY        2e-ENERGY     RMS[dD(SAO)]   TOL
   7  -1379.9066672237    -8151.3021538     3610.1447330    0.125D-03 0.992D-14
                            Exc = -201.624007358     Coul =  3811.76874038    
                              N = 236.00016483    
                            current damping = 0.050
 
          Norm of current diis error: 0.26431    
          max. resid. norm for Fia-block=  3.796D-03 for orbital    118a         
          max. resid. fock norm         =  7.869D-03 for orbital   2709a         
          irrep a   : virtual orbitals shifted by    0.01335

 ITERATION  ENERGY          1e-ENERGY        2e-ENERGY     RMS[dD(SAO)]   TOL
   8  -1379.9080924828    -8151.3092094     3610.1503634    0.701D-04 0.992D-14
                            Exc = -201.634942575     Coul =  3811.78530599    
                              N = 236.00016424    
                            current damping = 0.050
 
          Norm of current diis error: 0.10883    
          max. resid. norm for Fia-block=  1.664D-03 for orbital    117a         
          max. resid. fock norm         =  5.076D-03 for orbital   2709a         
          irrep a   : virtual orbitals shifted by    0.01319

 ITERATION  ENERGY          1e-ENERGY        2e-ENERGY     RMS[dD(SAO)]   TOL
   9  -1379.9081818160    -8151.2377583     3610.0788229    0.394D-04 0.992D-14
                            Exc = -201.635291322     Coul =  3811.71411422    
                              N = 236.00016427    
                            current damping = 0.100
 
          Norm of current diis error: 0.89727E-01
          max. resid. norm for Fia-block=  9.577D-04 for orbital    118a         
          max. resid. fock norm         =  2.285D-03 for orbital   2707a         
          irrep a   : virtual orbitals shifted by    0.00939

 ITERATION  ENERGY          1e-ENERGY        2e-ENERGY     RMS[dD(SAO)]   TOL
  10  -1379.9083549140    -8151.3359466     3610.1768382    0.162D-04 0.992D-14
                            Exc = -201.632898160     Coul =  3811.80973633    
                              N = 236.00016431    
                            current damping = 0.150
 
          Norm of current diis error: 0.23376E-01
          max. resid. norm for Fia-block=  4.564D-04 for orbital    118a         
          max. resid. fock norm         =  7.163D-04 for orbital    118a         
          irrep a   : virtual orbitals shifted by    0.00489
          mo-orthogonalization: Cholesky decomposition

 ITERATION  ENERGY          1e-ENERGY        2e-ENERGY     RMS[dD(SAO)]   TOL
  11  -1379.9083566162    -8151.2770417     3610.1179315    0.583D-05 0.992D-14
                            Exc = -201.634274241     Coul =  3811.75220573    
                              N = 236.00016427    
                            current damping = 0.200
 
          Norm of current diis error: 0.20887E-01
          max. resid. norm for Fia-block=  2.668D-04 for orbital    117a         
          max. resid. fock norm         =  4.125D-04 for orbital   2182a         
          irrep a   : virtual orbitals shifted by    0.00107

 ITERATION  ENERGY          1e-ENERGY        2e-ENERGY     RMS[dD(SAO)]   TOL
  12  -1379.9083669924    -8151.2911736     3610.1320531    0.508D-05 0.992D-14
                            Exc = -201.632924412     Coul =  3811.76497751    
                              N = 236.00016429    
                            current damping = 0.250
 
          Norm of current diis error: 0.52048E-02
          max. resid. norm for Fia-block=  9.287D-05 for orbital    117a         
          max. resid. fock norm         =  1.681D-04 for orbital   2684a         

 ITERATION  ENERGY          1e-ENERGY        2e-ENERGY     RMS[dD(SAO)]   TOL
  13  -1379.9083674128    -8151.3001636     3610.1410426    0.229D-05 0.992D-14
                            Exc = -201.633570385     Coul =  3811.77461299    
                              N = 236.00016428    
                            current damping = 0.100
 
          Norm of current diis error: 0.31343E-02
          max. resid. norm for Fia-block=  4.755D-05 for orbital    117a         
          max. resid. fock norm         =  8.896D-05 for orbital   2684a         
          irrep a   : virtual orbitals shifted by    0.00927

 ITERATION  ENERGY          1e-ENERGY        2e-ENERGY     RMS[dD(SAO)]   TOL
  14  -1379.9083676148    -8151.2978891     3610.1387679    0.951D-06 0.992D-14
                            Exc = -201.633402534     Coul =  3811.77217045    
                              N = 236.00016429    
                            current damping = 0.150
 
          Norm of current diis error: 0.15473E-02
          max. resid. norm for Fia-block=  1.894D-05 for orbital    117a         
          max. resid. fock norm         =  5.044D-05 for orbital   2707a         
          irrep a   : virtual orbitals shifted by    0.00513

 ITERATION  ENERGY          1e-ENERGY        2e-ENERGY     RMS[dD(SAO)]   TOL
  15  -1379.9083676649    -8151.2979581     3610.1388369    0.387D-06 0.992D-14
                            Exc = -201.633364278     Coul =  3811.77220117    
                              N = 236.00016429    
                            current damping = 0.200
 
          Norm of current diis error: 0.50896E-03
          max. resid. norm for Fia-block=  8.048D-06 for orbital    113a         
          max. resid. fock norm         =  1.629D-05 for orbital   2683a         
          irrep a   : virtual orbitals shifted by    0.00101
          mo-orthogonalization: Cholesky decomposition

 ITERATION  ENERGY          1e-ENERGY        2e-ENERGY     RMS[dD(SAO)]   TOL
  16  -1379.9083676689    -8151.2971518     3610.1380306    0.116D-06 0.992D-14
                            Exc = -201.633364799     Coul =  3811.77139537    
                              N = 236.00016429    
                            current damping = 0.250
 
          Norm of current diis error: 0.31083E-03
          max. resid. norm for Fia-block=  4.366D-06 for orbital    113a         
          max. resid. fock norm         =  8.967D-06 for orbital   2699a         

 DENSITY CONVERGED !


 ITERATION  ENERGY          1e-ENERGY        2e-ENERGY     RMS[dD(SAO)]   TOL
  17  -1379.9083676710    -8151.2977817     3610.1386605    0.700D-07 0.992D-14
                            Exc = -201.633379288     Coul =  3811.77203977    
                              N = 236.00016429    
                            current damping = 0.300
 
          Norm of current diis error: 0.99236E-04
          max. resid. norm for Fia-block=  1.750D-06 for orbital    114a         
          max. resid. fock norm         =  3.557D-06 for orbital   2709a         

 DENSITY CONVERGED !


 ITERATION  ENERGY          1e-ENERGY        2e-ENERGY     RMS[dD(SAO)]   TOL
  18  -1379.9083676711    -8151.2976943     3610.1385731    0.366D-07 0.992D-14
                            Exc = -201.633375080     Coul =  3811.77194818    
                              N = 236.00016429    
                            current damping = 0.350
 
          Norm of current diis error: 0.55812E-04
          max. resid. norm for Fia-block=  7.189D-07 for orbital    117a         
          max. resid. fock norm         =  1.530D-06 for orbital   2678a         

 ENERGY & DENSITY CONVERGED !


 ITERATION  ENERGY          1e-ENERGY        2e-ENERGY     RMS[dD(SAO)]   TOL
  19  -1379.9077838832    -8151.2976902     3610.1391528    0.861D-08 0.992D-14
                            Exc = -201.632790341     Coul =  3811.77194311    
                              N = 236.00003133    
                            current damping = 0.400
 
          Norm of current diis error: 0.18840E-04
          max. resid. norm for Fia-block=  4.058D-07 for orbital    117a         
          max. resid. fock norm         =  6.291D-07 for orbital   2182a         

 End of SCF iterations

   convergence criteria satisfied after   19 iterations


                  ------------------------------------------ 
                 |  total energy      =  -1379.90778388323  |
                  ------------------------------------------ 
                 :  kinetic energy    =   1373.50299008308  :
                 :  potential energy  =  -2753.41077396631  :
                 :  virial theorem    =      1.99535853491  :
                 :  wavefunction norm =      1.00000000000  :
                  .......................................... 


 <geterg> : there is no data group $energy 


 <skperg> : $end is missing 


 orbitals $scfmo  will be written to file mos

    irrep                114a        115a        116a        117a        118a   
 eigenvalues H         -0.22524    -0.21418    -0.21348    -0.20619    -0.20527
            eV          -6.1291     -5.8281     -5.8092     -5.6107     -5.5856
 occupation              2.0000      2.0000      2.0000      2.0000      2.0000 

    irrep                119a        120a        121a        122a        123a   
 eigenvalues H         -0.12277    -0.09025    -0.07605    -0.06914    -0.04203
            eV          -3.3409     -2.4560     -2.0694     -1.8815     -1.1437
 
 
 ! grave: sending quit signal to master process
 
 
 
 
 ==============================================================================
                           electrostatic moments
 ==============================================================================

 reference point for electrostatic moments:    0.00000   0.00000   0.00000

 
              nuc           elec       ->  total
 ------------------------------------------------------------------------------
                          charge      
 ------------------------------------------------------------------------------
         236.000000    -236.000000      -0.000000
 
 ------------------------------------------------------------------------------
                       dipole moment  
 ------------------------------------------------------------------------------
   x      -0.118870       0.134375       0.015505
   y       1.322993      -1.317790       0.005203
   z    1030.052464   -1026.004827       4.047637
 
   | dipole moment | =     4.0477 a.u. =    10.2882 debye 
 
 ------------------------------------------------------------------------------
                     quadrupole moment
 ------------------------------------------------------------------------------
  xx     422.429137    -573.422092    -150.992954
  yy   17094.658334  -17204.737619    -110.079285
  zz    9552.674057   -9687.289016    -134.614959
  xy    1568.532068   -1564.431534       4.100534
  xz      17.581082     -17.577064       0.004018
  yz     -15.372834      15.326611      -0.046222
 
     1/3  trace=    -131.895733
     anisotropy=      36.366644
 
 ==============================================================================
 

    ridft profiling
  --------------------------------------------------------------------
             module   cpu total (s)       %  wall total (s)       %

               RIDFT          3577.3  100.00          3583.0  100.00
         Ridft_b_scf           115.8    3.24           115.7    3.23
        b_scf_prelim             0.0    0.00             0.0    0.00
        b_scf_molinp             0.0    0.00             0.0    0.00
         b_scf_init0             0.0    0.00             0.0    0.00
        b_scf_auxbas             0.0    0.00             0.0    0.00
      b_scf_symmetry             0.0    0.00             0.0    0.00
         b_scf_cosmo             0.0    0.00             0.0    0.00
        b_scf_params             8.6    0.24             8.6    0.24
          b_scf_ri-j            57.2    1.60            57.2    1.60
    b_scf_ri-j_auxpq            57.2    1.60            57.1    1.59
     ri-j_auxpq_chol             1.1    0.03             1.1    0.03
         b_scf_1elec             3.7    0.10             3.7    0.10
       b_scf_moinput            46.2    1.29            46.2    1.29
     moinput_orthmos            45.9    1.28            45.8    1.28
    b_scf_dft-dstmax             0.0    0.00             0.0    0.00
           Ridft_scf          3460.4   96.73          3466.2   96.74
          Scf_b_loop             0.0    0.00             0.0    0.00
                noga             0.0    0.00             0.0    0.00
            Scf_loop          3455.4   96.59          3460.9   96.59
     scf_loop_mkdmat            12.6    0.35            13.0    0.36
       scf_loop_ri-j           325.2    9.09           324.9    9.07
      parlp1.bc.dens             1.7    0.05             1.7    0.05
        parlp1.gs.gp             0.4    0.01             0.4    0.01
        parlp2.bc.gq             0.0    0.00             0.0    0.00
        scf_loop_dft          2545.9   71.17          2544.2   71.01
      pardft.bc.dens             0.0    0.00             0.0    0.00
        dft_grid_con             2.1    0.06             2.1    0.06
          dft_xcmrhf          2500.1   69.89          2498.3   69.73
          dft_getval            31.5    0.88            31.5    0.88
          funct2 dst             0.4    0.01             0.5    0.01
      funct2 f2loop1             7.6    0.21             7.6    0.21
      funct2 f2loop2            12.5    0.35            12.4    0.35
          funct2 s+c            10.4    0.29            10.4    0.29
        funct2 cmf_2             9.2    0.26             9.3    0.26
          dft_mkdens          1208.3   33.78          1207.3   33.70
        dft_mgga-fun             1.1    0.03             1.2    0.03
          dft_mkfock          1258.5   35.18          1257.7   35.10
     pardft.red.fock           224.3    6.27           224.1    6.25
     scf_loop_energy             0.1    0.00             0.1    0.00
     scf_loop_mkfock             0.2    0.00             0.2    0.00
       scf_loop_diis           287.3    8.03           287.1    8.01
       scf_loop_diag           158.2    4.42           158.1    4.41
         diag_tritrn            51.2    1.43            51.2    1.43
          diag_rdiag           106.5    2.98           106.4    2.97
     scf_loop_modump            81.7    2.28            89.0    2.48
      scf_loop_ortho            41.2    1.15            41.2    1.15
          Scf_a_loop             5.0    0.14             5.4    0.15
         Ridft_a_scf             1.1    0.03             1.1    0.03
         a_scf_fanal             1.0    0.03             1.1    0.03
 


    ------------------------------------------------------------------------
         total  cpu-time : 59 minutes and 43 seconds
         total wall-time : 59 minutes and 49 seconds
    ------------------------------------------------------------------------


   ****  ridft : all done  ****


    2017-11-07 22:23:17.407 

