Using Slurm to start processes with PMI2
STARTING ridft ON 8 PROCESSORS!
RUNNING PROGRAM /beegfs/modfac/apps/TURBOMOLE/7.0_intel_GA/bin/em64t-unknown-linux-gnu_mpi/ridft_mpi.
PLEASE WAIT UNTIL ridft HAS FINISHED.
Look for the output in slave1.output.
  this is node-proc. number 1 running on node c-15-41.local
  the total number of node-proc. spawned is            8
  parallel platform: MPP, or cluster with fast interconnect

 ridft (c-15-41.local) : TURBOMOLE V7.0.2( ) 15 Jan 2016 at 17:47:42
 Copyright (C) 2016 TURBOMOLE GmbH, Karlsruhe


    2017-11-09 10:36:04.638 



                                  r i d f t

                        DFT program with RI approximation 
                                for coulomb part 




                                                 
                                 References:     
                                                 
          TURBOMOLE:                             
              R. Ahlrichs, M. Baer, M. Haeser, H. Horn, and
              C. Koelmel
              Electronic structure calculations on workstation
              computers: the program system TURBOMOLE
              Chem. Phys. Lett. 162: 165 (1989)
          Density Functional:                              
              O. Treutler and R. Ahlrichs                      
              Efficient Molecular Numerical Integration Schemes
              J. Chem. Phys. 102: 346 (1995)                   
          Parallel Version:                                
              Performance of parallel TURBOMOLE for Density    
              Functional Calculations                          
              M. v. Arnim and R. Ahlrichs                      
              J. Comp. Chem. 19: 1746 (1998)                   
          RI-J Method:                                     
              Auxiliary Basis Sets to approximate Coulomb      
              Potentials                                       
              Chem. Phys. Lett. 240: 283 (1995)                
              K. Eichkorn, O. Treutler, H. Oehm, M. Haeser     
              and R. Ahlrichs                                  
              Chem. Phys. Lett. 242: 652 (1995)                
                                                           
              Auxiliary Basis Sets for Main Row Atoms and their
              Use to approximate Coulomb Potentials            
              K. Eichkorn, F. Weigend, O. Treutler and         
              R. Ahlrichs                                      
              Theo. Chem. Acc. 97: 119 (1997)                   
                                                           
              Accurate Coulomb-fitting basis sets for H to Rn 
              F. Weigend                                        
              Phys. Chem. Chem. Phys. 8: 1057 (2006)            
                                                           
          Multipole accelerated RI-J (MARI-J):             
              Fast evaluation of the Coulomb potential for     
              electron densities using multipole accelerated   
              resolution of identity approximation             
              M. Sierka, A. Hogekamp and R. Ahlrichs           
              J. Chem. Phys. 118: 9136 (2003)                  
          RI-JK Method:                                     
              A fully direct RI-HF algorithm: Implementation,
              optimised auxiliary basis sets, demonstration of
              accuracy and efficiency                         
              F. Weigend                                      
              Phys. Chem. Chem. Phys. 4: 4285 (2002)           
          Two-component HF and DFT with spin-orbit coupling:  
              Self-consistent treatment of spin-orbit         
              interactions with efficient Hartree-Fock and    
              density functional methods                      
              M. K. Armbruster, F. Weigend, C. van Wüllen and 
              W. Klopper                                      
              Phys. Chem. Chem. Phys. 10: 1748 (2008)         
          Relativistic all-electron 2c calculations           
              An efficient implementation of two-component    
              relativistic exact-decoupling methods for large 
              molecules                                       
              D. Peng, N. Middendorf, F. Weigend, M. Reiher   
              J. Chem. Phys. 138, 184105 (2013)               
                                         


 


              +--------------------------------------------------+
              |      general information about current run       |
              +--------------------------------------------------+

 

 SCF run will be profiled !


 DENSITY CONVERGENCE CHECK SWITCHED ON !
 SCF CONVERGENCE IF RMS(delta[D]) <     0.1000000000E-06

 PBE functional
 exchange:    LDA + PBE
 correlation: LDA (PW) + PBE
 A DFT calculation using the RI-J approximation will be carried out.
 Allocatable memory for RI due to $ricore (MB):       30000


              +--------------------------------------------------+
              | Atomic coordinate, charge and isotop information |
              +--------------------------------------------------+

                    atomic coordinates            atom    charge  isotop
         -0.14230526   -2.44974723    7.80850844    c      6.000     0
          0.95815540   -2.13047120    5.46128660    c      6.000     0
         -0.36350885   -0.96463565    3.44779494    c      6.000     0
         -2.88283920   -0.12582590    3.92118513    c      6.000     0
         -3.97078987   -0.47298862    6.33968441    c      6.000     0
         -2.62880237   -1.61595886    8.26016433    c      6.000     0
         -4.26306550    1.05453880    1.93502230    c      6.000     0
         -3.22146886    1.39511696   -0.40392046    c      6.000     0
         -0.71045879    0.58842047   -0.96794343    c      6.000     0
          0.72718192   -0.59534367    0.96240898    c      6.000     0
          3.23900703   -1.39998773    0.39899148    c      6.000     0
          4.28133027   -1.05767008   -1.93938511    c      6.000     0
          2.90039173    0.12095192   -3.92611731    c      6.000     0
          0.37994928    0.95696506   -3.45358184    c      6.000     0
         -0.94326077    2.11915400   -5.46816691    c      6.000     0
          0.15712430    2.43844100   -7.81540330    c      6.000     0
          2.64537338    1.60916133   -8.26573807    c      6.000     0
          3.98861793    0.46905251   -6.34440589    c      6.000     0
          5.39238511    5.86136298   -3.05655019    c      6.000     0
          3.79569333    7.40629460   -4.51205468    c      6.000     0
          1.62785412    8.41360253   -3.34714926    c      6.000     0
          1.08064461    7.88579994   -0.84253629    c      6.000     0
          2.66178357    6.31416555    0.60750273    c      6.000     0
          4.83471653    5.32426275   -0.55534138    c      6.000     0
          2.05034265    5.70687277    3.25380038    c      6.000     0
         -0.44162616    5.88247632    4.15551268    c      6.000     0
         -1.02774456    5.27455218    6.63375981    c      6.000     0
          0.85174700    4.45430068    8.32178527    c      6.000     0
          3.35107630    4.29303769    7.42818424    c      6.000     0
          3.93570030    4.91410563    4.95358881    c      6.000     0
          0.21044179    3.73291700   10.91767711    c      6.000     0
         -2.06698263    4.50392716   12.06330166    c      6.000     0
         -2.67972576    3.70616434   14.46121427    c      6.000     0
         -1.09657085    2.18890946   15.78011877    n      7.000     0
          1.14563607    1.45739497   14.77932963    c      6.000     0
          1.82406439    2.20475236   12.38148392    c      6.000     0
         -1.92203554    1.06278273   18.24361867    c      6.000     0
         -3.04301692   -1.50991235   17.71740761    c      6.000     0
         -5.56313812   -1.75047826   16.95089349    c      6.000     0
         -6.49549743   -4.09269799   16.19371084    c      6.000     0
         -4.91588046   -6.21428899   16.19751240    c      6.000     0
         -2.42440581   -5.99125708   17.05136834    c      6.000     0
         -1.49138169   -3.64773269   17.80817739    c      6.000     0
         -5.80666410   -8.69278840   15.09525178    c      6.000     0
         -5.38962176   -8.61919320   12.29539953    n      7.000     0
         -3.04008066   -9.08606894   11.38658563    c      6.000     0
         -2.50996297   -8.73629651    8.86393390    c      6.000     0
         -4.38403102   -7.88358159    7.17796579    c      6.000     0
         -6.81379950   -7.48949111    8.19488015    c      6.000     0
         -7.26299912   -7.85109701   10.73067756    c      6.000     0
         -3.82398215   -7.39631061    4.50974449    c      6.000     0
         -5.41179543   -5.85031356    3.04545183    c      6.000     0
         -4.84469448   -5.32057684    0.54481296    c      6.000     0
         -2.67001144   -6.31795124   -0.60825409    c      6.000     0
         -1.09766783   -7.89045830    0.85016983    c      6.000     0
         -1.65517654   -8.41209717    3.35382075    c      6.000     0
         -2.04766377   -5.71599051   -3.25314067    c      6.000     0
          0.44871037   -5.88847450   -4.14282808    c      6.000     0
          1.04542144   -5.28195802   -6.61900559    c      6.000     0
         -0.82774710   -4.46778388   -8.31708703    c      6.000     0
         -3.33184380   -4.31221142   -7.43562957    c      6.000     0
         -3.92691024   -4.93035387   -4.96286963    c      6.000     0
          4.34637445    7.90118363   -7.18064674    c      6.000     0
          2.46198831    8.74024245   -8.86177754    c      6.000     0
          2.98422168    9.09671755  -11.38525167    c      6.000     0
          5.33597263    8.65074161  -12.29865137    n      7.000     0
          7.21896831    7.89740702  -10.73821341    c      6.000     0
          6.77758649    7.52875830   -8.20211458    c      6.000     0
          5.74752210    8.72826744  -15.09914896    c      6.000     0
          4.88494035    6.23838092  -16.19841909    c      6.000     0
          6.48664860    4.13340572  -16.18676723    c      6.000     0
          5.57990358    1.77962861  -16.93915073    c      6.000     0
          3.06393203    1.51101859  -17.70994338    c      6.000     0
          1.49047878    3.63245633  -17.80947771    c      6.000     0
          2.39749498    5.98731342  -17.05609058    c      6.000     0
          1.97095752   -1.07432178  -18.23259986    c      6.000     0
          1.14347026   -2.20021702  -15.76957107    n      7.000     0
          2.73189184   -3.70172859  -14.43903096    c      6.000     0
          2.11324766   -4.49969455  -12.04259726    c      6.000     0
         -0.17672964   -3.74592210  -10.91055512    c      6.000     0
         -1.79418479   -2.23273070  -12.38572617    c      6.000     0
         -1.10924675   -1.48435663  -14.78127038    c      6.000     0
          1.95830864   -6.41883446   -2.86427018    h      1.000     0
          3.00739502   -5.36019873   -7.20447052    h      1.000     0
         -4.84256929   -3.75083633   -8.70256433    h      1.000     0
         -5.88505013   -4.83649703   -4.36334117    h      1.000     0
          3.43204993   -5.72699476  -11.07323710    h      1.000     0
          4.48130487   -4.22194222  -15.36364618    h      1.000     0
         -2.30040009   -0.33419542  -16.00909669    h      1.000     0
         -3.58860712   -1.57176799  -11.65875476    h      1.000     0
          0.28513492   -0.95454716  -19.42078236    h      1.000     0
          3.34808864   -2.36988419  -19.05076662    h      1.000     0
          6.82899460    0.14921788  -16.90210227    h      1.000     0
          8.43639470    4.32190307  -15.56814195    h      1.000     0
          1.17683791    7.64404085  -17.09668265    h      1.000     0
         -0.45257939    3.41268949  -18.45168545    h      1.000     0
          7.75543057    9.07778741  -15.40000017    h      1.000     0
          4.61712855   10.30161298  -15.81663168    h      1.000     0
          1.60122712    9.76466506  -12.76026308    h      1.000     0
          0.54457731    9.07169247   -8.22988222    h      1.000     0
          8.35437190    6.96173898   -7.02847315    h      1.000     0
          9.05394303    7.61236092  -11.59702629    h      1.000     0
          0.37939143    9.66320718   -4.38778062    h      1.000     0
         -0.57909524    8.73693372    0.00783480    h      1.000     0
          6.06077293    4.04982162    0.47799149    h      1.000     0
          7.04284621    4.99259692   -3.90474470    h      1.000     0
         -1.95673336    6.41716205    2.88534101    h      1.000     0
         -2.98660765    5.35596461    7.22921932    h      1.000     0
          4.86607503    3.72570940    8.68743008    h      1.000     0
          5.89083458    4.81673711    4.34491710    h      1.000     0
         -3.37949249    5.74516259   11.10319247    h      1.000     0
         -4.41918843    4.23998835   15.39676798    h      1.000     0
          2.33299201    0.29502858   15.99980245    h      1.000     0
          3.60944343    1.53150417   11.64344571    h      1.000     0
         -0.23158688    0.92267636   19.42272746    h      1.000     0
         -3.28214419    2.36886374   19.07347470    h      1.000     0
         -6.79553549   -0.10726407   16.92047287    h      1.000     0
         -8.44812915   -4.25947615   15.57796475    h      1.000     0
         -1.22125781   -7.66089343   17.08671302    h      1.000     0
          0.45553077   -3.44933525   18.44564740    h      1.000     0
         -7.81912927   -9.01817373   15.39261984    h      1.000     0
         -4.69650537  -10.28010960   15.81379350    h      1.000     0
         -1.66598010   -9.76539752   12.76469619    h      1.000     0
         -0.59415163   -9.08471004    8.23647056    h      1.000     0
         -8.38367418   -6.90973750    7.01829584    h      1.000     0
         -9.09679559   -7.54800988   11.58588390    h      1.000     0
         -0.41333432   -9.66282923    4.40087850    h      1.000     0
          0.56307848   -8.74684194    0.00691281    h      1.000     0
         -6.06412946   -4.04590441   -0.49611925    h      1.000     0
         -7.06307913   -4.97533351    3.88564883    h      1.000     0
         -2.86223211    2.78009668   -5.18853790    h      1.000     0
          5.91150554   -0.18369329   -6.65805772    h      1.000     0
         -0.91032719    3.33644150   -9.32108965    h      1.000     0
          3.49681500    1.86741433  -10.11650807    h      1.000     0
          6.19979554   -1.68874979   -2.31698679    h      1.000     0
          4.35824949   -2.30705854    1.85577116    h      1.000     0
         -4.34031882    2.30327777   -1.86031897    h      1.000     0
         -6.18061464    1.68786823    2.31349212    h      1.000     0
         -5.89264324    0.18240506    6.65410725    h      1.000     0
         -3.48034981   -1.87400947   10.11092827    h      1.000     0
          2.87573685   -2.79505216    5.18066851    h      1.000     0
          0.92373631   -3.35162469    9.31287746    h      1.000     0
          4.56284957   -0.83689602   19.79105115    cl    17.000     0
         -0.08538217  -12.47792250   16.06084930    cl    17.000     0
         -0.02691329   12.43636629  -16.06243648    cl    17.000     0
         -4.51593353    0.73774549  -19.83306486    cl    17.000     0
 
       center of nuclear mass  :   -0.00143859   -0.00343177   -0.00106416
       center of nuclear charge:   -0.00128954   -0.00306228   -0.00094942

              +--------------------------------------------------+
              |               basis set information              |
              +--------------------------------------------------+

              we will work with the 1s 3p 5d 7f 9g ... basis set
              ...i.e. with spherical basis functions...

   type   atoms  prim   cont   basis
   ---------------------------------------------------------------------------
    c       78     77     55   cc-pVQZ   [5s4p3d2f1g|21s6p3d2f1g]
    n        4     77     55   cc-pVQZ   [5s4p3d2f1g|21s6p3d2f1g]
    h       60     32     30   cc-pVQZ   [4s3p2d1f|6s3p2d1f]
    cl       4    137     59   cc-pVQZ   [6s5p3d2f1g|42s19p3d2f1g]
   ---------------------------------------------------------------------------
   total:  146   8782   6546
   ---------------------------------------------------------------------------

   total number of primitive shells          :  145
   total number of contracted shells         : 1898
   total number of cartesian basis functions : 8136
   total number of SCF-basis functions       : 6546


 integral neglect threshold       :  0.41E-14
 integral storage threshold THIZE :  0.10E-04
 integral storage threshold THIME :         5

 RI-J AUXILIARY BASIS SET information:

              we will work with the 1s 3p 5d 7f 9g ... basis set
              ...i.e. with spherical basis functions...

   type   atoms  prim   cont   basis
   ---------------------------------------------------------------------------
    c       78     70     49   cc-pVQZ   [6s4p3d1f1g|12s5p4d2f1g]
    n        4     70     49   cc-pVQZ   [6s4p3d1f1g|12s5p4d2f1g]
    h       60     16     11   cc-pVQZ   [3s1p1d|5s2p1d]
    cl       4     77     51   cc-pVQZ   [8s4p3d1f1g|14s5p5d2f1g]
   ---------------------------------------------------------------------------
   total:  146   7008   4882
   ---------------------------------------------------------------------------

   total number of primitive shells          :   83
   total number of contracted shells         : 1598
   total number of cartesian basis functions : 5974
   total number of SCF-basis functions       : 4882


 symmetry group of the molecule :   c1 

 the group has the following generators :
   c1(z)

    1 symmetry operations found

 there are 1 real representations :   a   

 maximum number of shells which are related by symmetry :  1


    mo occupation :
   irrep   mo's   occupied
    a     6546      312
 
 number of basis functions   :         6546
 number of occupied orbitals :          312
 
  
           ------------------
           density functional
           ------------------
 PBE functional
 exchange:    LDA + PBE
 correlation: LDA (PW) + PBE
 grinp -> nfun, dfgga, dfhybrid 
           6 T F
 iterations will be done with small grid
  
 spherical integration : Lebedev's spherical grid
 spherical gridsize    :           5
    i.e. gridpoints    :         590
 value for diffuse not defined
 radial integration    : Chebyshev 2nd kind (scaling 3)
 radial gridsize       :           8
 integration cells     :         146
 partition function    : becke
 partition sharpness   :           3
  

 <rddim> : input of entry tasksize
           from data group '$pardft' failed !

               Default values taken

 <rddim> : input of entry memdiv
           from data group '$pardft' failed !

               Default values taken
  RIDFT: memory allocation for DFT gridpoints
  MEMORY is divided by 1 as DEFAULT
 Each node can hold at most  the            1 -th part
 of the gridpoints    

 biggest AO integral is expected to be    10.299525420
  
           ------------------------
               RI-J - INFORMATION
           ------------------------
 
 
 **************************************************
 *      MEMORY ALLOCATION FOR PARALLEL RI-DFT     *
 **************************************************
 
 
MEMORY FOR (MU NU/ ALPHA), SEQUENTIAL RUN              29799 MByte
 
            DIFFERENCE IN MEMORY NEED:       DIAG./SLAVE  
 
      TOTAL DIFFERENCE :                   1939 MByte
 
      difference in xcore:                  202 MByte
      difference in fatmat:                 579 MByte
      getcor calls skipped by slaves:      1160 MByte
 
 
           Integral memory available for diagonal.     29799 MByte
 
           Integral memory available for slave             0 MByte
 
         MEMORY FOR (MU NU/ ALPHA) ON DIAGONALIZER     29799 MByte
 
         MEMORY FOR (MU NU/ ALPHA) ON ONE SLAVE            0 MByte
 
         TOTAL MEMORY FOR (MU NU/ ALPHA),ALL NODES     29799 MByte
 
 Contributions to RI integral batches: 
  neglected integral batches:     1302386
  direct contribution:             371583
  memory contribution:      128182
 Memory core needed for (P|Q) and Cholesky    182 MByte
 Memory core minimum needed except of (P|Q)    24 MByte
 Total minimum memory core needed (sum)       205 MByte
     number of direct tasks:         160
  
 ****************************************
 Memory allocated for RI-J 30004 MByte
 ****************************************
                                            

          ------------------------
          nuclear repulsion energy  :   15654.8618152    
          ------------------------

 
          -----------------
          -S integrals
          -----------------

 1e-integrals will be neglected if expon. factor < 0.410762E-15
 
          -----------------
          -T+V integrals
          -----------------

 1e-integrals will be neglected if expon. factor < 0.410762E-15
 Difference densities >>NOT<< switched on in parallel ridft!

 automatic virtual orbital shift switched on 
      shift if e(lumo)-e(homo) < 0.10000000    


 DIIS switched on: error vector is FDS-SDF
 Max. Iterations for DIIS is     :   4
 DIIS matrix (see manual) 
    Scaling factor of diagonals  :  1.200
    threshold for scaling factor :  0.000

 scf convergence criterion : increment of total energy < .1000000D-08
                  and increment of one-electron energy < .1000000D-05


 <geterg> : there is no data group $energy 

  MOs are in ASCII format !


 reading orbital data $scfmo  from file mos . 

 orbital characterization : expanded
 
 mo provided and orthogonalized by Cholesky decomposition

 DSCF restart information will be dumped onto file mos


 Starting SCF iterations


 ITERATION  ENERGY          1e-ENERGY        2e-ENERGY     RMS[dD(SAO)]   TOL
   1  -5054.2273813656    -37966.757416     17257.668220    0.000D+00 0.410D-14
                            Exc = -570.608599185     Coul =  17828.2768191    
                              N = 623.99583094    
                            current damping = 0.700
 
          max. resid. norm for Fia-block=  3.178D-01 for orbital      5a         
          max. resid. fock norm         =  6.403D+00 for orbital   5985a         

 ITERATION  ENERGY          1e-ENERGY        2e-ENERGY     RMS[dD(SAO)]   TOL
   2  -5062.4800145023    -38063.886301     17346.544472    0.910D-02 0.410D-14
                            Exc = -578.023016999     Coul =  17924.5674886    
                              N = 623.99652337    
                            current damping = 0.650
 
          Norm of current diis error:  10.261    
          max. resid. norm for Fia-block=  1.346D-01 for orbital      5a         
          max. resid. fock norm         =  2.880D-01 for orbital   6475a         

 ITERATION  ENERGY          1e-ENERGY        2e-ENERGY     RMS[dD(SAO)]   TOL
   3  -5064.1566257811    -38081.604537     17362.586096    0.239D-02 0.410D-14
                            Exc = -579.867781921     Coul =  17942.4538783    
                              N = 623.99687640    
                            current damping = 0.550
 
          Norm of current diis error:  4.9189    
          max. resid. norm for Fia-block=  5.714D-02 for orbital    113a         
          max. resid. fock norm         =  8.395D-02 for orbital   4147a         
          irrep a   : virtual orbitals shifted by    0.03702

 ITERATION  ENERGY          1e-ENERGY        2e-ENERGY     RMS[dD(SAO)]   TOL
   4  -5064.6419582064    -38102.366565     17382.862792    0.905D-03 0.410D-14
                            Exc = -581.143872658     Coul =  17964.0066646    
                              N = 623.99704303    
                            current damping = 0.450
 
          Norm of current diis error:  1.9132    
          max. resid. norm for Fia-block=  2.302D-02 for orbital    112a         
          max. resid. fock norm         =  4.609D-02 for orbital   3325a         
          irrep a   : virtual orbitals shifted by    0.10384

 ITERATION  ENERGY          1e-ENERGY        2e-ENERGY     RMS[dD(SAO)]   TOL
   5  -5064.7257893859    -38103.852927     17384.265323    0.507D-03 0.410D-14
                            Exc = -581.515467666     Coul =  17965.7807905    
                              N = 623.99713995    
                            current damping = 0.350
 
          Norm of current diis error: 0.85925    
          max. resid. norm for Fia-block=  9.955D-03 for orbital    106a         
          max. resid. fock norm         =  1.393D-02 for orbital   3317a         
          irrep a   : virtual orbitals shifted by    0.09926
          mo-orthogonalization: Cholesky decomposition

 ITERATION  ENERGY          1e-ENERGY        2e-ENERGY     RMS[dD(SAO)]   TOL
   6  -5064.7447604503    -38110.436430     17390.829854    0.254D-03 0.410D-14
                            Exc = -581.792453078     Coul =  17972.6223076    
                              N = 623.99716454    
                            current damping = 0.250
 
          Norm of current diis error: 0.41285    
          max. resid. norm for Fia-block=  4.940D-03 for orbital    301a         
          max. resid. fock norm         =  9.939D-03 for orbital   3243a         
          irrep a   : virtual orbitals shifted by    0.11098

 ITERATION  ENERGY          1e-ENERGY        2e-ENERGY     RMS[dD(SAO)]   TOL
   7  -5064.7499611816    -38110.595087     17390.983311    0.119D-03 0.410D-14
                            Exc = -581.814889212     Coul =  17972.7982001    
                              N = 623.99718304    
                            current damping = 0.100
 
          Norm of current diis error: 0.14830    
          max. resid. norm for Fia-block=  3.379D-03 for orbital    301a         
          max. resid. fock norm         =  5.249D-03 for orbital   3104a         
          irrep a   : virtual orbitals shifted by    0.09743

 ITERATION  ENERGY          1e-ENERGY        2e-ENERGY     RMS[dD(SAO)]   TOL
   8  -5064.7509926984    -38110.514561     17390.901753    0.506D-04 0.410D-14
                            Exc = -581.829388681     Coul =  17972.7311413    
                              N = 623.99718888    
                            current damping = 0.150
 
          Norm of current diis error: 0.12929    
          max. resid. norm for Fia-block=  2.571D-03 for orbital    301a         
          max. resid. fock norm         =  2.983D-03 for orbital    313a         
          irrep a   : virtual orbitals shifted by    0.10361

 ITERATION  ENERGY          1e-ENERGY        2e-ENERGY     RMS[dD(SAO)]   TOL
   9  -5064.7517072521    -38111.095983     17391.482460    0.224D-04 0.410D-14
                            Exc = -581.833416425     Coul =  17973.3158768    
                              N = 623.99719162    
                            current damping = 0.200
 
          Norm of current diis error: 0.42390E-01
          max. resid. norm for Fia-block=  1.719D-03 for orbital    301a         
          max. resid. fock norm         =  1.822D-03 for orbital    165a         
          irrep a   : virtual orbitals shifted by    0.08363

 ITERATION  ENERGY          1e-ENERGY        2e-ENERGY     RMS[dD(SAO)]   TOL
  10  -5064.7519374027    -38111.363506     17391.749753    0.183D-04 0.410D-14
                            Exc = -581.837666507     Coul =  17973.5874197    
                              N = 623.99719300    
                            current damping = 0.050
 
          Norm of current diis error: 0.29633E-01
          max. resid. norm for Fia-block=  1.162D-03 for orbital    301a         
          max. resid. fock norm         =  1.342D-03 for orbital    313a         
          irrep a   : virtual orbitals shifted by    0.09957
          mo-orthogonalization: Cholesky decomposition

 ITERATION  ENERGY          1e-ENERGY        2e-ENERGY     RMS[dD(SAO)]   TOL
  11  -5064.7520632777    -38111.242372     17391.628494    0.127D-04 0.410D-14
                            Exc = -581.834744196     Coul =  17973.4632379    
                              N = 623.99719432    
                            current damping = 0.100
 
          Norm of current diis error: 0.26664E-01
          max. resid. norm for Fia-block=  8.806D-04 for orbital    301a         
          max. resid. fock norm         =  1.039D-03 for orbital    313a         
          irrep a   : virtual orbitals shifted by    0.09979

 ITERATION  ENERGY          1e-ENERGY        2e-ENERGY     RMS[dD(SAO)]   TOL
  12  -5064.7521463329    -38111.447676     17391.833715    0.837D-05 0.410D-14
                            Exc = -581.836746314     Coul =  17973.6704612    
                              N = 623.99719438    
                            current damping = 0.150
 
          Norm of current diis error: 0.15871E-01
          max. resid. norm for Fia-block=  7.850D-04 for orbital    302a         
          max. resid. fock norm         =  1.051D-03 for orbital   3289a         
          irrep a   : virtual orbitals shifted by    0.09812

 ITERATION  ENERGY          1e-ENERGY        2e-ENERGY     RMS[dD(SAO)]   TOL
  13  -5064.7521903707    -38111.335669     17391.721663    0.969D-05 0.410D-14
                            Exc = -581.837985286     Coul =  17973.5596482    
                              N = 623.99719500    
                            current damping = 0.200
 
          Norm of current diis error: 0.13392E-01
          max. resid. norm for Fia-block=  6.250D-04 for orbital    301a         
          max. resid. fock norm         =  7.897D-04 for orbital    313a         
          irrep a   : virtual orbitals shifted by    0.09902

 ITERATION  ENERGY          1e-ENERGY        2e-ENERGY     RMS[dD(SAO)]   TOL
  14  -5064.7522320770    -38111.499945     17391.885897    0.586D-05 0.410D-14
                            Exc = -581.837034797     Coul =  17973.7229321    
                              N = 623.99719466    
                            current damping = 0.250
 
          Norm of current diis error: 0.99074E-02
          max. resid. norm for Fia-block=  5.072D-04 for orbital    311a         
          max. resid. fock norm         =  5.693D-04 for orbital    314a         
          irrep a   : virtual orbitals shifted by    0.09847

 ITERATION  ENERGY          1e-ENERGY        2e-ENERGY     RMS[dD(SAO)]   TOL
  15  -5064.7522586724    -38111.524506     17391.910432    0.423D-05 0.410D-14
                            Exc = -581.837383257     Coul =  17973.7478156    
                              N = 623.99719470    
                            current damping = 0.100
 
          Norm of current diis error: 0.88415E-02
          max. resid. norm for Fia-block=  4.470D-04 for orbital    311a         
          max. resid. fock norm         =  4.539D-04 for orbital    314a         
          irrep a   : virtual orbitals shifted by    0.09815
          mo-orthogonalization: Cholesky decomposition

 ITERATION  ENERGY          1e-ENERGY        2e-ENERGY     RMS[dD(SAO)]   TOL
  16  -5064.7522807129    -38111.523246     17391.909150    0.408D-05 0.410D-14
                            Exc = -581.837834613     Coul =  17973.7469842    
                              N = 623.99719480    
                            current damping = 0.150
 
          Norm of current diis error: 0.54249E-02
          max. resid. norm for Fia-block=  4.038D-04 for orbital    311a         
          max. resid. fock norm         =  4.169D-04 for orbital    314a         
          irrep a   : virtual orbitals shifted by    0.09791

 ITERATION  ENERGY          1e-ENERGY        2e-ENERGY     RMS[dD(SAO)]   TOL
  17  -5064.7522960662    -38111.510846     17391.896734    0.308D-05 0.410D-14
                            Exc = -581.837898520     Coul =  17973.7346328    
                              N = 623.99719479    
                            current damping = 0.050
 
          Norm of current diis error: 0.54831E-02
          max. resid. norm for Fia-block=  3.699D-04 for orbital    311a         
          max. resid. fock norm         =  3.736D-04 for orbital    314a         
          irrep a   : virtual orbitals shifted by    0.09794

 ITERATION  ENERGY          1e-ENERGY        2e-ENERGY     RMS[dD(SAO)]   TOL
  18  -5064.7523085861    -38111.517531     17391.903407    0.273D-05 0.410D-14
                            Exc = -581.838237420     Coul =  17973.7416449    
                              N = 623.99719474    
                            current damping = 0.100
 
          Norm of current diis error: 0.35829E-02
          max. resid. norm for Fia-block=  3.557D-04 for orbital    311a         
          max. resid. fock norm         =  3.649D-04 for orbital    314a         
          irrep a   : virtual orbitals shifted by    0.09789

 ITERATION  ENERGY          1e-ENERGY        2e-ENERGY     RMS[dD(SAO)]   TOL
  19  -5064.7523184367    -38111.533756     17391.919622    0.235D-05 0.410D-14
                            Exc = -581.838071189     Coul =  17973.7576932    
                              N = 623.99719463    
                            current damping = 0.050
 
          Norm of current diis error: 0.35113E-02
          max. resid. norm for Fia-block=  3.220D-04 for orbital    311a         
          max. resid. fock norm         =  3.246D-04 for orbital    314a         
          irrep a   : virtual orbitals shifted by    0.09784

 ITERATION  ENERGY          1e-ENERGY        2e-ENERGY     RMS[dD(SAO)]   TOL
  20  -5064.7523265853    -38111.532928     17391.918787    0.210D-05 0.410D-14
                            Exc = -581.838256962     Coul =  17973.7570436    
                              N = 623.99719457    
                            current damping = 0.100
 
          Norm of current diis error: 0.27860E-02
          max. resid. norm for Fia-block=  2.948D-04 for orbital    311a         
          max. resid. fock norm         =  2.992D-04 for orbital    314a         
          irrep a   : virtual orbitals shifted by    0.09764
          mo-orthogonalization: Cholesky decomposition

 ITERATION  ENERGY          1e-ENERGY        2e-ENERGY     RMS[dD(SAO)]   TOL
  21  -5064.7523331854    -38111.531001     17391.916852    0.190D-05 0.410D-14
                            Exc = -581.838490687     Coul =  17973.7553431    
                              N = 623.99719455    
                            current damping = 0.050
 
          Norm of current diis error: 0.28132E-02
          max. resid. norm for Fia-block=  2.921D-04 for orbital    311a         
          max. resid. fock norm         =  2.969D-04 for orbital    314a         
          irrep a   : virtual orbitals shifted by    0.09782

 ITERATION  ENERGY          1e-ENERGY        2e-ENERGY     RMS[dD(SAO)]   TOL
  22  -5064.7523389640    -38111.550109     17391.935955    0.181D-05 0.410D-14
                            Exc = -581.838327710     Coul =  17973.7742822    
                              N = 623.99719441    
                            current damping = 0.100
 
          Norm of current diis error: 0.26335E-02
          max. resid. norm for Fia-block=  2.659D-04 for orbital    311a         
          max. resid. fock norm         =  2.686D-04 for orbital    314a         
          irrep a   : virtual orbitals shifted by    0.09762

 ITERATION  ENERGY          1e-ENERGY        2e-ENERGY     RMS[dD(SAO)]   TOL
  23  -5064.7523438122    -38111.548504     17391.934345    0.158D-05 0.410D-14
                            Exc = -581.838304072     Coul =  17973.7726494    
                              N = 623.99719438    
                            current damping = 0.150
 
          Norm of current diis error: 0.22479E-02
          max. resid. norm for Fia-block=  2.462D-04 for orbital    311a         
          max. resid. fock norm         =  2.509D-04 for orbital    314a         
          irrep a   : virtual orbitals shifted by    0.09745

 ITERATION  ENERGY          1e-ENERGY        2e-ENERGY     RMS[dD(SAO)]   TOL
  24  -5064.7523479578    -38111.553517     17391.939353    0.148D-05 0.410D-14
                            Exc = -581.838596835     Coul =  17973.7779503    
                              N = 623.99719433    
                            current damping = 0.200
 
          Norm of current diis error: 0.21445E-02
          max. resid. norm for Fia-block=  2.313D-04 for orbital    311a         
          max. resid. fock norm         =  2.348D-04 for orbital    314a         
          irrep a   : virtual orbitals shifted by    0.09731

 ITERATION  ENERGY          1e-ENERGY        2e-ENERGY     RMS[dD(SAO)]   TOL
  25  -5064.7523514989    -38111.556876     17391.942709    0.133D-05 0.410D-14
                            Exc = -581.838528471     Coul =  17973.7812378    
                              N = 623.99719428    
                            current damping = 0.050
 
          Norm of current diis error: 0.18233E-02
          max. resid. norm for Fia-block=  2.144D-04 for orbital    311a         
          max. resid. fock norm         =  2.172D-04 for orbital    314a         
          irrep a   : virtual orbitals shifted by    0.09761
          mo-orthogonalization: Cholesky decomposition

 ITERATION  ENERGY          1e-ENERGY        2e-ENERGY     RMS[dD(SAO)]   TOL
  26  -5064.7523545082    -38111.556425     17391.942255    0.124D-05 0.410D-14
                            Exc = -581.838477464     Coul =  17973.7807323    
                              N = 623.99719422    
                            current damping = 0.100
 
          Norm of current diis error: 0.18248E-02
          max. resid. norm for Fia-block=  1.993D-04 for orbital    311a         
          max. resid. fock norm         =  2.043D-04 for orbital    314a         
          irrep a   : virtual orbitals shifted by    0.09746

 ITERATION  ENERGY          1e-ENERGY        2e-ENERGY     RMS[dD(SAO)]   TOL
  27  -5064.7523571461    -38111.559399     17391.945227    0.114D-05 0.410D-14
                            Exc = -581.838628866     Coul =  17973.7838555    
                              N = 623.99719420    
                            current damping = 0.150
 
          Norm of current diis error: 0.16141E-02
          max. resid. norm for Fia-block=  1.894D-04 for orbital    311a         
          max. resid. fock norm         =  1.933D-04 for orbital    314a         
          irrep a   : virtual orbitals shifted by    0.09734

 ITERATION  ENERGY          1e-ENERGY        2e-ENERGY     RMS[dD(SAO)]   TOL
  28  -5064.7523594344    -38111.565650     17391.951475    0.107D-05 0.410D-14
                            Exc = -581.838630539     Coul =  17973.7901056    
                              N = 623.99719414    
                            current damping = 0.050
 
          Norm of current diis error: 0.15406E-02
          max. resid. norm for Fia-block=  1.749D-04 for orbital    311a         
          max. resid. fock norm         =  1.794D-04 for orbital    314a         
          irrep a   : virtual orbitals shifted by    0.09753

 ITERATION  ENERGY          1e-ENERGY        2e-ENERGY     RMS[dD(SAO)]   TOL
  29  -5064.7523614203    -38111.562315     17391.948138    0.990D-06 0.410D-14
                            Exc = -581.838597546     Coul =  17973.7867355    
                              N = 623.99719411    
                            current damping = 0.100
 
          Norm of current diis error: 0.14570E-02
          max. resid. norm for Fia-block=  1.639D-04 for orbital    311a         
          max. resid. fock norm         =  1.686D-04 for orbital    314a         
          irrep a   : virtual orbitals shifted by    0.09740

 ITERATION  ENERGY          1e-ENERGY        2e-ENERGY     RMS[dD(SAO)]   TOL
  30  -5064.7523631566    -38111.567023     17391.952845    0.923D-06 0.410D-14
                            Exc = -581.838695016     Coul =  17973.7915400    
                              N = 623.99719407    
                            current damping = 0.150
 
          Norm of current diis error: 0.13298E-02
          max. resid. norm for Fia-block=  1.549D-04 for orbital    311a         
          max. resid. fock norm         =  1.587D-04 for orbital    314a         
          irrep a   : virtual orbitals shifted by    0.09727
          mo-orthogonalization: Cholesky decomposition

 ITERATION  ENERGY          1e-ENERGY        2e-ENERGY     RMS[dD(SAO)]   TOL
  31  -5064.7523646667    -38111.569704     17391.955524    0.861D-06 0.410D-14
                            Exc = -581.838681838     Coul =  17973.7942057    
                              N = 623.99719404    
                            current damping = 0.050
 
          Norm of current diis error: 0.12360E-02
          max. resid. norm for Fia-block=  1.430D-04 for orbital    311a         
          max. resid. fock norm         =  1.476D-04 for orbital    314a         
          irrep a   : virtual orbitals shifted by    0.09748

 ITERATION  ENERGY          1e-ENERGY        2e-ENERGY     RMS[dD(SAO)]   TOL
  32  -5064.7523659850    -38111.568775     17391.954594    0.803D-06 0.410D-14
                            Exc = -581.838695287     Coul =  17973.7932896    
                              N = 623.99719400    
                            current damping = 0.100
 
          Norm of current diis error: 0.11742E-02
          max. resid. norm for Fia-block=  1.347D-04 for orbital    311a         
          max. resid. fock norm         =  1.392D-04 for orbital    314a         
          irrep a   : virtual orbitals shifted by    0.09735

 ITERATION  ENERGY          1e-ENERGY        2e-ENERGY     RMS[dD(SAO)]   TOL
  33  -5064.7523671420    -38111.571208     17391.957025    0.748D-06 0.410D-14
                            Exc = -581.838731332     Coul =  17973.7957567    
                              N = 623.99719398    
                            current damping = 0.150
 
          Norm of current diis error: 0.10858E-02
          max. resid. norm for Fia-block=  1.270D-04 for orbital    311a         
          max. resid. fock norm         =  1.307D-04 for orbital    314a         
          irrep a   : virtual orbitals shifted by    0.09722

 ITERATION  ENERGY          1e-ENERGY        2e-ENERGY     RMS[dD(SAO)]   TOL
  34  -5064.7523681509    -38111.574048     17391.959865    0.702D-06 0.410D-14
                            Exc = -581.838745409     Coul =  17973.7986100    
                              N = 623.99719394    
                            current damping = 0.050
 
          Norm of current diis error: 0.10098E-02
          max. resid. norm for Fia-block=  1.173D-04 for orbital    311a         
          max. resid. fock norm         =  1.216D-04 for orbital    314a         
          irrep a   : virtual orbitals shifted by    0.09743

 ITERATION  ENERGY          1e-ENERGY        2e-ENERGY     RMS[dD(SAO)]   TOL
  35  -5064.7523690311    -38111.572009     17391.957825    0.654D-06 0.410D-14
                            Exc = -581.838735924     Coul =  17973.7965606    
                              N = 623.99719393    
                            current damping = 0.100
 
          Norm of current diis error: 0.97671E-03
          max. resid. norm for Fia-block=  1.112D-04 for orbital    311a         
          max. resid. fock norm         =  1.152D-04 for orbital    314a         
          irrep a   : virtual orbitals shifted by    0.09731
          mo-orthogonalization: Cholesky decomposition

 ITERATION  ENERGY          1e-ENERGY        2e-ENERGY     RMS[dD(SAO)]   TOL
  36  -5064.7523698085    -38111.575931     17391.961746    0.615D-06 0.410D-14
                            Exc = -581.838783914     Coul =  17973.8005303    
                              N = 623.99719390    
                            current damping = 0.150
 
          Norm of current diis error: 0.91556E-03
          max. resid. norm for Fia-block=  1.040D-04 for orbital    311a         
          max. resid. fock norm         =  1.075D-04 for orbital    314a         
          irrep a   : virtual orbitals shifted by    0.09717

 ITERATION  ENERGY          1e-ENERGY        2e-ENERGY     RMS[dD(SAO)]   TOL
  37  -5064.7523704858    -38111.576315     17391.962130    0.573D-06 0.410D-14
                            Exc = -581.838781581     Coul =  17973.8009112    
                              N = 623.99719388    
                            current damping = 0.050
 
          Norm of current diis error: 0.81159E-03
          max. resid. norm for Fia-block=  9.580D-05 for orbital    311a         
          max. resid. fock norm         =  9.975D-05 for orbital    314a         
          irrep a   : virtual orbitals shifted by    0.09740

 ITERATION  ENERGY          1e-ENERGY        2e-ENERGY     RMS[dD(SAO)]   TOL
  38  -5064.7523710742    -38111.575705     17391.961519    0.536D-06 0.410D-14
                            Exc = -581.838788737     Coul =  17973.8003079    
                              N = 623.99719386    
                            current damping = 0.100
 
          Norm of current diis error: 0.80481E-03
          max. resid. norm for Fia-block=  9.179D-05 for orbital    311a         
          max. resid. fock norm         =  9.520D-05 for orbital    314a         
          irrep a   : virtual orbitals shifted by    0.09728

 ITERATION  ENERGY          1e-ENERGY        2e-ENERGY     RMS[dD(SAO)]   TOL
  39  -5064.7523715963    -38111.578260     17391.964073    0.504D-06 0.410D-14
                            Exc = -581.838804511     Coul =  17973.8028773    
                              N = 623.99719384    
                            current damping = 0.150
 
          Norm of current diis error: 0.73401E-03
          max. resid. norm for Fia-block=  8.495D-05 for orbital    311a         
          max. resid. fock norm         =  8.836D-05 for orbital    314a         
          irrep a   : virtual orbitals shifted by    0.09714

 ITERATION  ENERGY          1e-ENERGY        2e-ENERGY     RMS[dD(SAO)]   TOL
  40  -5064.7523720507    -38111.578837     17391.964650    0.469D-06 0.410D-14
                            Exc = -581.838822797     Coul =  17973.8034730    
                              N = 623.99719382    
                            current damping = 0.050
 
          Norm of current diis error: 0.67150E-03
          max. resid. norm for Fia-block=  7.890D-05 for orbital    311a         
          max. resid. fock norm         =  8.258D-05 for orbital    314a         
          irrep a   : virtual orbitals shifted by    0.09737
          mo-orthogonalization: Cholesky decomposition

 ITERATION  ENERGY          1e-ENERGY        2e-ENERGY     RMS[dD(SAO)]   TOL
  41  -5064.7523724463    -38111.577820     17391.963632    0.438D-06 0.410D-14
                            Exc = -581.838812157     Coul =  17973.8024442    
                              N = 623.99719381    
                            current damping = 0.100
 
          Norm of current diis error: 0.66881E-03
          max. resid. norm for Fia-block=  7.552D-05 for orbital    311a         
          max. resid. fock norm         =  7.856D-05 for orbital    314a         
          irrep a   : virtual orbitals shifted by    0.09725

 ITERATION  ENERGY          1e-ENERGY        2e-ENERGY     RMS[dD(SAO)]   TOL
  42  -5064.7523727986    -38111.580817     17391.966629    0.416D-06 0.410D-14
                            Exc = -581.838837355     Coul =  17973.8054661    
                              N = 623.99719379    
                            current damping = 0.150
 
          Norm of current diis error: 0.61204E-03
          max. resid. norm for Fia-block=  6.973D-05 for orbital    311a         
          max. resid. fock norm         =  7.277D-05 for orbital    314a         
          irrep a   : virtual orbitals shifted by    0.09711

 ITERATION  ENERGY          1e-ENERGY        2e-ENERGY     RMS[dD(SAO)]   TOL
  43  -5064.7523731044    -38111.580289     17391.966101    0.385D-06 0.410D-14
                            Exc = -581.838843090     Coul =  17973.8049438    
                              N = 623.99719378    
                            current damping = 0.200
 
          Norm of current diis error: 0.54709E-03
          max. resid. norm for Fia-block=  6.447D-05 for orbital    311a         
          max. resid. fock norm         =  6.780D-05 for orbital    314a         
          irrep a   : virtual orbitals shifted by    0.09698

 ITERATION  ENERGY          1e-ENERGY        2e-ENERGY     RMS[dD(SAO)]   TOL
  44  -5064.7523733705    -38111.580321     17391.966133    0.358D-06 0.410D-14
                            Exc = -581.838848642     Coul =  17973.8049813    
                              N = 623.99719377    
                            current damping = 0.250
 
          Norm of current diis error: 0.52433E-03
          max. resid. norm for Fia-block=  6.213D-05 for orbital    311a         
          max. resid. fock norm         =  6.466D-05 for orbital    314a         
          irrep a   : virtual orbitals shifted by    0.09685

 ITERATION  ENERGY          1e-ENERGY        2e-ENERGY     RMS[dD(SAO)]   TOL
  45  -5064.7523736058    -38111.582056     17391.967867    0.340D-06 0.410D-14
                            Exc = -581.838850939     Coul =  17973.8067178    
                              N = 623.99719375    
                            current damping = 0.100
 
          Norm of current diis error: 0.48676E-03
          max. resid. norm for Fia-block=  5.688D-05 for orbital    311a         
          max. resid. fock norm         =  5.990D-05 for orbital    314a         
          irrep a   : virtual orbitals shifted by    0.09722
          mo-orthogonalization: Cholesky decomposition

 ITERATION  ENERGY          1e-ENERGY        2e-ENERGY     RMS[dD(SAO)]   TOL
  46  -5064.7523738121    -38111.581827     17391.967638    0.317D-06 0.410D-14
                            Exc = -581.838869018     Coul =  17973.8065071    
                              N = 623.99719374    
                            current damping = 0.150
 
          Norm of current diis error: 0.45787E-03
          max. resid. norm for Fia-block=  5.329D-05 for orbital    311a         
          max. resid. fock norm         =  5.634D-05 for orbital    314a         
          irrep a   : virtual orbitals shifted by    0.09709

 ITERATION  ENERGY          1e-ENERGY        2e-ENERGY     RMS[dD(SAO)]   TOL
  47  -5064.7523739923    -38111.581604     17391.967415    0.294D-06 0.410D-14
                            Exc = -581.838863409     Coul =  17973.8062786    
                              N = 623.99719373    
                            current damping = 0.050
 
          Norm of current diis error: 0.43717E-03
          max. resid. norm for Fia-block=  5.101D-05 for orbital    311a         
          max. resid. fock norm         =  5.336D-05 for orbital    314a         
          irrep a   : virtual orbitals shifted by    0.09734

 ITERATION  ENERGY          1e-ENERGY        2e-ENERGY     RMS[dD(SAO)]   TOL
  48  -5064.7523741512    -38111.583574     17391.969385    0.282D-06 0.410D-14
                            Exc = -581.838873316     Coul =  17973.8082580    
                              N = 623.99719372    
                            current damping = 0.100
 
          Norm of current diis error: 0.42232E-03
          max. resid. norm for Fia-block=  4.702D-05 for orbital    311a         
          max. resid. fock norm         =  4.963D-05 for orbital    314a         
          irrep a   : virtual orbitals shifted by    0.09720

 ITERATION  ENERGY          1e-ENERGY        2e-ENERGY     RMS[dD(SAO)]   TOL
  49  -5064.7523742917    -38111.582953     17391.968764    0.260D-06 0.410D-14
                            Exc = -581.838878106     Coul =  17973.8076417    
                              N = 623.99719372    
                            current damping = 0.150
 
          Norm of current diis error: 0.37021E-03
          max. resid. norm for Fia-block=  4.347D-05 for orbital    311a         
          max. resid. fock norm         =  4.632D-05 for orbital    314a         
          irrep a   : virtual orbitals shifted by    0.09707

 ITERATION  ENERGY          1e-ENERGY        2e-ENERGY     RMS[dD(SAO)]   TOL
  50  -5064.7523744128    -38111.582992     17391.968803    0.243D-06 0.410D-14
                            Exc = -581.838887680     Coul =  17973.8076905    
                              N = 623.99719371    
                            current damping = 0.200
 
          Norm of current diis error: 0.36015E-03
          max. resid. norm for Fia-block=  4.207D-05 for orbital    311a         
          max. resid. fock norm         =  4.407D-05 for orbital    314a         
          irrep a   : virtual orbitals shifted by    0.09695
          mo-orthogonalization: Cholesky decomposition

 ITERATION  ENERGY          1e-ENERGY        2e-ENERGY     RMS[dD(SAO)]   TOL
  51  -5064.7523745208    -38111.584170     17391.969980    0.232D-06 0.410D-14
                            Exc = -581.838884283     Coul =  17973.8088644    
                              N = 623.99719370    
                            current damping = 0.050
 
          Norm of current diis error: 0.32754E-03
          max. resid. norm for Fia-block=  3.838D-05 for orbital    311a         
          max. resid. fock norm         =  4.083D-05 for orbital    314a         
          irrep a   : virtual orbitals shifted by    0.09732

 ITERATION  ENERGY          1e-ENERGY        2e-ENERGY     RMS[dD(SAO)]   TOL
  52  -5064.7523746148    -38111.583949     17391.969759    0.215D-06 0.410D-14
                            Exc = -581.838893863     Coul =  17973.8086527    
                              N = 623.99719369    
                            current damping = 0.100
 
          Norm of current diis error: 0.31558E-03
          max. resid. norm for Fia-block=  3.612D-05 for orbital    311a         
          max. resid. fock norm         =  3.862D-05 for orbital    314a         
          irrep a   : virtual orbitals shifted by    0.09719

 ITERATION  ENERGY          1e-ENERGY        2e-ENERGY     RMS[dD(SAO)]   TOL
  53  -5064.7523746976    -38111.583934     17391.969744    0.200D-06 0.410D-14
                            Exc = -581.838895972     Coul =  17973.8086401    
                              N = 623.99719369    
                            current damping = 0.050
 
          Norm of current diis error: 0.29800E-03
          max. resid. norm for Fia-block=  3.433D-05 for orbital    311a         
          max. resid. fock norm         =  3.629D-05 for orbital    314a         
          irrep a   : virtual orbitals shifted by    0.09731

 ITERATION  ENERGY          1e-ENERGY        2e-ENERGY     RMS[dD(SAO)]   TOL
  54  -5064.7523747704    -38111.585062     17391.970872    0.191D-06 0.410D-14
                            Exc = -581.838900177     Coul =  17973.8097719    
                              N = 623.99719368    
                            current damping = 0.100
 
          Norm of current diis error: 0.28036E-03
          max. resid. norm for Fia-block=  3.174D-05 for orbital    311a         
          max. resid. fock norm         =  3.388D-05 for orbital    314a         
          irrep a   : virtual orbitals shifted by    0.09718

 ITERATION  ENERGY          1e-ENERGY        2e-ENERGY     RMS[dD(SAO)]   TOL
  55  -5064.7523748345    -38111.584655     17391.970465    0.176D-06 0.410D-14
                            Exc = -581.838900194     Coul =  17973.8093647    
                              N = 623.99719367    
                            current damping = 0.150
 
          Norm of current diis error: 0.25571E-03
          max. resid. norm for Fia-block=  2.943D-05 for orbital    311a         
          max. resid. fock norm         =  3.173D-05 for orbital    314a         
          irrep a   : virtual orbitals shifted by    0.09705
          mo-orthogonalization: Cholesky decomposition

 ITERATION  ENERGY          1e-ENERGY        2e-ENERGY     RMS[dD(SAO)]   TOL
  56  -5064.7523748904    -38111.584791     17391.970601    0.165D-06 0.410D-14
                            Exc = -581.838909707     Coul =  17973.8095102    
                              N = 623.99719367    
                            current damping = 0.200
 
          Norm of current diis error: 0.24017E-03
          max. resid. norm for Fia-block=  2.830D-05 for orbital    311a         
          max. resid. fock norm         =  2.999D-05 for orbital    314a         
          irrep a   : virtual orbitals shifted by    0.09692

 ITERATION  ENERGY          1e-ENERGY        2e-ENERGY     RMS[dD(SAO)]   TOL
  57  -5064.7523749398    -38111.585461     17391.971271    0.157D-06 0.410D-14
                            Exc = -581.838907888     Coul =  17973.8101786    
                              N = 623.99719366    
                            current damping = 0.050
 
          Norm of current diis error: 0.22132E-03
          max. resid. norm for Fia-block=  2.590D-05 for orbital    311a         
          max. resid. fock norm         =  2.793D-05 for orbital    314a         
          irrep a   : virtual orbitals shifted by    0.09730

 ITERATION  ENERGY          1e-ENERGY        2e-ENERGY     RMS[dD(SAO)]   TOL
  58  -5064.7523749830    -38111.585322     17391.971132    0.146D-06 0.410D-14
                            Exc = -581.838910827     Coul =  17973.8100429    
                              N = 623.99719366    
                            current damping = 0.100
 
          Norm of current diis error: 0.21559E-03
          max. resid. norm for Fia-block=  2.443D-05 for orbital    311a         
          max. resid. fock norm         =  2.643D-05 for orbital    314a         
          irrep a   : virtual orbitals shifted by    0.09717

 ITERATION  ENERGY          1e-ENERGY        2e-ENERGY     RMS[dD(SAO)]   TOL
  59  -5064.7523750213    -38111.585362     17391.971172    0.136D-06 0.410D-14
                            Exc = -581.838914945     Coul =  17973.8100869    
                              N = 623.99719366    
                            current damping = 0.150
 
          Norm of current diis error: 0.19990E-03
          max. resid. norm for Fia-block=  2.309D-05 for orbital    311a         
          max. resid. fock norm         =  2.475D-05 for orbital    314a         
          irrep a   : virtual orbitals shifted by    0.09704

 ITERATION  ENERGY          1e-ENERGY        2e-ENERGY     RMS[dD(SAO)]   TOL
  60  -5064.7523750546    -38111.586002     17391.971812    0.129D-06 0.410D-14
                            Exc = -581.838918107     Coul =  17973.8107303    
                              N = 623.99719365    
                            current damping = 0.050
 
          Norm of current diis error: 0.18527E-03
          max. resid. norm for Fia-block=  2.142D-05 for orbital    311a         
          max. resid. fock norm         =  2.316D-05 for orbital    314a         
          irrep a   : virtual orbitals shifted by    0.09730
          mo-orthogonalization: Cholesky decomposition

 ITERATION  ENERGY          1e-ENERGY        2e-ENERGY     RMS[dD(SAO)]   TOL
  61  -5064.7523750839    -38111.585726     17391.971536    0.120D-06 0.410D-14
                            Exc = -581.838915782     Coul =  17973.8104517    
                              N = 623.99719365    
                            current damping = 0.100
 
          Norm of current diis error: 0.17861E-03
          max. resid. norm for Fia-block=  1.999D-05 for orbital    311a         
          max. resid. fock norm         =  2.181D-05 for orbital    314a         
          irrep a   : virtual orbitals shifted by    0.09716

 ITERATION  ENERGY          1e-ENERGY        2e-ENERGY     RMS[dD(SAO)]   TOL
  62  -5064.7523751096    -38111.585956     17391.971765    0.112D-06 0.410D-14
                            Exc = -581.838922903     Coul =  17973.8106883    
                              N = 623.99719364    
                            current damping = 0.150
 
          Norm of current diis error: 0.16231E-03
          max. resid. norm for Fia-block=  1.901D-05 for orbital    311a         
          max. resid. fock norm         =  2.048D-05 for orbital    314a         
          irrep a   : virtual orbitals shifted by    0.09703

 ITERATION  ENERGY          1e-ENERGY        2e-ENERGY     RMS[dD(SAO)]   TOL
  63  -5064.7523751326    -38111.586260     17391.972070    0.106D-06 0.410D-14
                            Exc = -581.838923108     Coul =  17973.8109931    
                              N = 623.99719364    
                            current damping = 0.050
 
          Norm of current diis error: 0.15075E-03
          max. resid. norm for Fia-block=  1.750D-05 for orbital    311a         
          max. resid. fock norm         =  1.915D-05 for orbital    314a         
          irrep a   : virtual orbitals shifted by    0.09729

 DENSITY CONVERGED !


 ITERATION  ENERGY          1e-ENERGY        2e-ENERGY     RMS[dD(SAO)]   TOL
  64  -5064.7523751523    -38111.586220     17391.972029    0.991D-07 0.410D-14
                            Exc = -581.838922985     Coul =  17973.8109523    
                              N = 623.99719364    
                            current damping = 0.100
 
          Norm of current diis error: 0.14658E-03
          max. resid. norm for Fia-block=  1.654D-05 for orbital    311a         
          max. resid. fock norm         =  1.813D-05 for orbital    314a         
          irrep a   : virtual orbitals shifted by    0.09716

 DENSITY CONVERGED !


 ITERATION  ENERGY          1e-ENERGY        2e-ENERGY     RMS[dD(SAO)]   TOL
  65  -5064.7523751705    -38111.586274     17391.972083    0.927D-07 0.410D-14
                            Exc = -581.838926732     Coul =  17973.8110102    
                              N = 623.99719364    
                            current damping = 0.150
 
          Norm of current diis error: 0.13460E-03
          max. resid. norm for Fia-block=  1.556D-05 for orbital    311a         
          max. resid. fock norm         =  1.695D-05 for orbital    314a         
          irrep a   : virtual orbitals shifted by    0.09703
          mo-orthogonalization: Cholesky decomposition

 DENSITY CONVERGED !


 ITERATION  ENERGY          1e-ENERGY        2e-ENERGY     RMS[dD(SAO)]   TOL
  66  -5064.7523751858    -38111.586627     17391.972437    0.876D-07 0.410D-14
                            Exc = -581.838929293     Coul =  17973.8113659    
                              N = 623.99719363    
                            current damping = 0.050
 
          Norm of current diis error: 0.12569E-03
          max. resid. norm for Fia-block=  1.447D-05 for orbital    311a         
          max. resid. fock norm         =  1.589D-05 for orbital    314a         
          irrep a   : virtual orbitals shifted by    0.09729

 DENSITY CONVERGED !


 ITERATION  ENERGY          1e-ENERGY        2e-ENERGY     RMS[dD(SAO)]   TOL
  67  -5064.7523751995    -38111.586462     17391.972271    0.820D-07 0.410D-14
                            Exc = -581.838926690     Coul =  17973.8111981    
                              N = 623.99719363    
                            current damping = 0.100
 
          Norm of current diis error: 0.12161E-03
          max. resid. norm for Fia-block=  1.357D-05 for orbital    311a         
          max. resid. fock norm         =  1.499D-05 for orbital    314a         
          irrep a   : virtual orbitals shifted by    0.09716

 DENSITY CONVERGED !


 ITERATION  ENERGY          1e-ENERGY        2e-ENERGY     RMS[dD(SAO)]   TOL
  68  -5064.7523752113    -38111.586676     17391.972485    0.768D-07 0.410D-14
                            Exc = -581.838931782     Coul =  17973.8114171    
                              N = 623.99719363    
                            current damping = 0.150
 
          Norm of current diis error: 0.11024E-03
          max. resid. norm for Fia-block=  1.279D-05 for orbital    311a         
          max. resid. fock norm         =  1.404D-05 for orbital    314a         
          irrep a   : virtual orbitals shifted by    0.09703

 DENSITY CONVERGED !


 ITERATION  ENERGY          1e-ENERGY        2e-ENERGY     RMS[dD(SAO)]   TOL
  69  -5064.7523752217    -38111.586773     17391.972582    0.724D-07 0.410D-14
                            Exc = -581.838932457     Coul =  17973.8115146    
                              N = 623.99719363    
                            current damping = 0.050
 
          Norm of current diis error: 0.10234E-03
          max. resid. norm for Fia-block=  1.185D-05 for orbital    311a         
          max. resid. fock norm         =  1.317D-05 for orbital    314a         
          irrep a   : virtual orbitals shifted by    0.09728

 DENSITY CONVERGED !


 ITERATION  ENERGY          1e-ENERGY        2e-ENERGY     RMS[dD(SAO)]   TOL
  70  -5064.7523752313    -38111.586814     17391.972623    0.677D-07 0.410D-14
                            Exc = -581.838931419     Coul =  17973.8115547    
                              N = 623.99719362    
                            current damping = 0.050
 
          Norm of current diis error: 0.10012E-03
          max. resid. norm for Fia-block=  1.121D-05 for orbital    311a         
          max. resid. fock norm         =  1.247D-05 for orbital    314a         
          irrep a   : virtual orbitals shifted by    0.09728
          mo-orthogonalization: Cholesky decomposition

 DENSITY CONVERGED !


 ITERATION  ENERGY          1e-ENERGY        2e-ENERGY     RMS[dD(SAO)]   TOL
  71  -5064.7523752394    -38111.586858     17391.972667    0.635D-07 0.410D-14
                            Exc = -581.838934537     Coul =  17973.8116018    
                              N = 623.99719362    
                            current damping = 0.050
 
          Norm of current diis error: 0.92254E-04
          max. resid. norm for Fia-block=  1.050D-05 for orbital    311a         
          max. resid. fock norm         =  1.166D-05 for orbital    314a         
          irrep a   : virtual orbitals shifted by    0.09728

 DENSITY CONVERGED !


 ITERATION  ENERGY          1e-ENERGY        2e-ENERGY     RMS[dD(SAO)]   TOL
  72  -5064.7523752465    -38111.587032     17391.972842    0.600D-07 0.410D-14
                            Exc = -581.838936278     Coul =  17973.8117781    
                              N = 623.99719362    
                            current damping = 0.050
 
          Norm of current diis error: 0.87507E-04
          max. resid. norm for Fia-block=  9.821D-06 for orbital    311a         
          max. resid. fock norm         =  1.096D-05 for orbital    314a         
          irrep a   : virtual orbitals shifted by    0.09728

 DENSITY CONVERGED !


 ITERATION  ENERGY          1e-ENERGY        2e-ENERGY     RMS[dD(SAO)]   TOL
  73  -5064.7523752531    -38111.586971     17391.972781    0.562D-07 0.410D-14
                            Exc = -581.838934155     Coul =  17973.8117151    
                              N = 623.99719362    
                            current damping = 0.100
 
          Norm of current diis error: 0.82193E-04
          max. resid. norm for Fia-block=  9.187D-06 for orbital    311a         
          max. resid. fock norm         =  1.031D-05 for orbital    314a         
          irrep a   : virtual orbitals shifted by    0.09715

 DENSITY CONVERGED !


 ITERATION  ENERGY          1e-ENERGY        2e-ENERGY     RMS[dD(SAO)]   TOL
  74  -5064.7523752589    -38111.587114     17391.972924    0.526D-07 0.410D-14
                            Exc = -581.838937893     Coul =  17973.8118616    
                              N = 623.99719362    
                            current damping = 0.150
 
          Norm of current diis error: 0.75288E-04
          max. resid. norm for Fia-block=  8.643D-06 for orbital    311a         
          max. resid. fock norm         =  9.674D-06 for orbital    314a         
          irrep a   : virtual orbitals shifted by    0.09702

 DENSITY CONVERGED !


 ITERATION  ENERGY          1e-ENERGY        2e-ENERGY     RMS[dD(SAO)]   TOL
  75  -5064.7523752638    -38111.587129     17391.972938    0.495D-07 0.410D-14
                            Exc = -581.838938108     Coul =  17973.8118763    
                              N = 623.99719362    
                            current damping = 0.050
 
          Norm of current diis error: 0.70350E-04
          max. resid. norm for Fia-block=  8.051D-06 for orbital    311a         
          max. resid. fock norm         =  9.091D-06 for orbital    314a         
          irrep a   : virtual orbitals shifted by    0.09728
          mo-orthogonalization: Cholesky decomposition

 DENSITY CONVERGED !


 ITERATION  ENERGY          1e-ENERGY        2e-ENERGY     RMS[dD(SAO)]   TOL
  76  -5064.7523752681    -38111.587207     17391.973017    0.465D-07 0.410D-14
                            Exc = -581.838937377     Coul =  17973.8119542    
                              N = 623.99719362    
                            current damping = 0.050
 
          Norm of current diis error: 0.68128E-04
          max. resid. norm for Fia-block=  7.592D-06 for orbital    311a         
          max. resid. fock norm         =  8.588D-06 for orbital    314a         
          irrep a   : virtual orbitals shifted by    0.09728

 DENSITY CONVERGED !


 ITERATION  ENERGY          1e-ENERGY        2e-ENERGY     RMS[dD(SAO)]   TOL
  77  -5064.7523752718    -38111.587221     17391.973030    0.436D-07 0.410D-14
                            Exc = -581.838939740     Coul =  17973.8119702    
                              N = 623.99719361    
                            current damping = 0.050
 
          Norm of current diis error: 0.63050E-04
          max. resid. norm for Fia-block=  7.098D-06 for orbital    311a         
          max. resid. fock norm         =  8.040D-06 for orbital    314a         
          irrep a   : virtual orbitals shifted by    0.09728

 DENSITY CONVERGED !


 ITERATION  ENERGY          1e-ENERGY        2e-ENERGY     RMS[dD(SAO)]   TOL
  78  -5064.7523752756    -38111.587308     17391.973118    0.411D-07 0.410D-14
                            Exc = -581.838940536     Coul =  17973.8120581    
                              N = 623.99719361    
                            current damping = 0.050
 
          Norm of current diis error: 0.59960E-04
          max. resid. norm for Fia-block=  6.668D-06 for orbital    311a         
          max. resid. fock norm         =  7.573D-06 for orbital    314a         
          irrep a   : virtual orbitals shifted by    0.09728

 ENERGY & DENSITY CONVERGED !


 ITERATION  ENERGY          1e-ENERGY        2e-ENERGY     RMS[dD(SAO)]   TOL
  79  -5064.7527579652    -38111.587301     17391.972728    0.386D-07 0.410D-14
                            Exc = -581.839321930     Coul =  17973.8120502    
                              N = 623.99997151    
                            current damping = 0.100
 
          Norm of current diis error: 0.56500E-04
          max. resid. norm for Fia-block=  6.232D-06 for orbital    311a         
          max. resid. fock norm         =  7.116D-06 for orbital    314a         

 End of SCF iterations

   convergence criteria satisfied after   79 iterations


                  ------------------------------------------ 
                 |  total energy      =  -5064.75275796516  |
                  ------------------------------------------ 
                 :  kinetic energy    =   5044.67500053990  :
                 :  potential energy  = -10109.42775850506  :
                 :  virial theorem    =      1.99603578726  :
                 :  wavefunction norm =      1.00000000000  :
                  .......................................... 


 <geterg> : there is no data group $energy 


 <skperg> : $end is missing 


 orbitals $scfmo  will be written to file mos

    irrep                308a        309a        310a        311a        312a   
 eigenvalues H         -0.16545    -0.16475    -0.16475    -0.16397    -0.16391
            eV          -4.5020     -4.4832     -4.4832     -4.4618     -4.4602
 occupation              2.0000      2.0000      2.0000      2.0000      2.0000 

    irrep                313a        314a        315a        316a        317a   
 eigenvalues H         -0.16131    -0.15983    -0.14529    -0.14516    -0.12823
            eV          -4.3896     -4.3493     -3.9536     -3.9500     -3.4893
 
 
 ! grave: sending quit signal to master process
 
 
 
 
 ==============================================================================
                           electrostatic moments
 ==============================================================================

 reference point for electrostatic moments:    0.00000   0.00000   0.00000

 
              nuc           elec       ->  total
 ------------------------------------------------------------------------------
                          charge      
 ------------------------------------------------------------------------------
         624.000000    -624.000000      -0.000000
 
 ------------------------------------------------------------------------------
                       dipole moment  
 ------------------------------------------------------------------------------
   x      -0.804671       0.837658       0.032987
   y      -1.910862       1.995580       0.084718
   z      -0.592437       0.622336       0.029899
 
   | dipole moment | =     0.0957 a.u. =     0.2433 debye 
 
 ------------------------------------------------------------------------------
                     quadrupole moment
 ------------------------------------------------------------------------------
  xx    8178.205505   -8527.367900    -349.162395
  yy   20917.872607  -21408.752747    -490.880140
  zz   84652.177196  -85399.351043    -747.173847
  xy    6907.113698   -6875.745652      31.368046
  xz   -9545.774909    9359.010755    -186.764154
  yz  -17564.214430   17741.394825     177.180395
 
     1/3  trace=    -529.072127
     anisotropy=     569.091238
 
 ==============================================================================
 

    ridft profiling
  --------------------------------------------------------------------
             module   cpu total (s)       %  wall total (s)       %

               RIDFT         80089.2  100.00         80789.9  100.00
         Ridft_b_scf           680.6    0.85           681.3    0.84
        b_scf_prelim             0.0    0.00             0.0    0.00
        b_scf_molinp             0.0    0.00             0.0    0.00
         b_scf_init0             0.0    0.00             0.0    0.00
        b_scf_auxbas             0.0    0.00             0.0    0.00
      b_scf_symmetry             0.0    0.00             0.0    0.00
         b_scf_cosmo             0.0    0.00             0.0    0.00
        b_scf_params            60.4    0.08            60.4    0.07
          b_scf_ri-j           225.9    0.28           226.0    0.28
    b_scf_ri-j_auxpq           225.6    0.28           225.8    0.28
     ri-j_auxpq_chol             9.0    0.01             9.0    0.01
         b_scf_1elec            26.8    0.03            26.8    0.03
       b_scf_moinput           367.5    0.46           368.0    0.46
     moinput_orthmos           364.9    0.46           365.4    0.45
    b_scf_dft-dstmax             0.0    0.00             0.0    0.00
           Ridft_scf         79399.8   99.14         80099.5   99.15
          Scf_b_loop             0.0    0.00             0.0    0.00
                noga             0.0    0.00             0.0    0.00
            Scf_loop         79370.8   99.10         80065.3   99.10
     scf_loop_mkdmat           570.9    0.71           571.7    0.71
       scf_loop_ri-j         23957.5   29.91         23971.5   29.67
      parlp1.bc.dens            52.0    0.06            52.1    0.06
        parlp1.gs.gp           443.8    0.55           444.0    0.55
        parlp2.bc.gq             0.0    0.00             0.0    0.00
        scf_loop_dft         31184.9   38.94         31249.1   38.68
      pardft.bc.dens             0.0    0.00             0.0    0.00
        dft_grid_con            18.4    0.02            18.4    0.02
           dft_xcrhf         30636.0   38.25         30685.6   37.98
          dft_getval           752.6    0.94           753.6    0.93
          funct2 dst            11.8    0.01            12.1    0.01
      funct2 f2loop1           105.4    0.13           105.2    0.13
      funct2 f2loop2           293.1    0.37           294.5    0.36
          funct2 s+c           332.4    0.42           332.3    0.41
        funct2 cmf_2           299.1    0.37           299.8    0.37
          dft_mkdens         11056.7   13.81         11075.7   13.71
         dft_gga-fun             7.1    0.01             7.6    0.01
          dft_mkfock         18809.8   23.49         18839.4   23.32
     pardft.red.fock           944.1    1.18           959.7    1.19
     scf_loop_energy             7.6    0.01             8.1    0.01
     scf_loop_mkfock             7.2    0.01             7.2    0.01
       scf_loop_diis          7232.2    9.03          7241.5    8.96
       scf_loop_diag         11952.3   14.92         11976.2   14.82
         diag_tritrn          4432.5    5.53          4438.9    5.49
          diag_rdiag          7492.0    9.35          7509.4    9.30
     scf_loop_modump          2068.2    2.58          2646.5    3.28
      scf_loop_ortho          2289.7    2.86          2293.1    2.84
          Scf_a_loop            29.0    0.04            34.2    0.04
         Ridft_a_scf             8.8    0.01             9.1    0.01
         a_scf_fanal             8.6    0.01             8.9    0.01
 


    ------------------------------------------------------------------------
         total  cpu-time : 22 hours 15 minutes and 39 seconds
         total wall-time : 22 hours 27 minutes and 20 seconds
    ------------------------------------------------------------------------


   ****  ridft : all done  ****


    2017-11-10 09:03:24.658 

