
 eiger (gplogin2.gp.local) : TURBOMOLE V7.3 ( 22118 ) 1 Jul 2018 at 20:38:15
 Copyright (C) 2018 TURBOMOLE GmbH, Karlsruhe


    2019-02-15 15:23:52.697 

                                                                                
  
Total energy =  -2289.2637213240 H =    -62294.0708264 eV
 
 HOMO-LUMO Separation
   HOMO:   194.   194 a     -0.27616871 H =     -7.51494 eV
   LUMO:   195.   195 a     +0.04426676 H =     +1.20456 eV
   Gap :                    +0.32043547 H =     +8.71950 eV
 
Number of MOs=   4140, Electrons=    388.00, Symmetry: c1   
 
   Nr.   Orbital    Occupation       Energy
  211.   211 a                     +0.123761 H =        +3.368 eV
  210.   210 a                     +0.123042 H =        +3.348 eV
  209.   209 a                     +0.122674 H =        +3.338 eV
  208.   208 a                     +0.119071 H =        +3.240 eV
  207.   207 a                     +0.117862 H =        +3.207 eV
  206.   206 a                     +0.116640 H =        +3.174 eV
  205.   205 a                     +0.113579 H =        +3.091 eV
  204.   204 a                     +0.112908 H =        +3.072 eV
  203.   203 a                     +0.111804 H =        +3.042 eV
  202.   202 a                     +0.104519 H =        +2.844 eV
  201.   201 a                     +0.103795 H =        +2.824 eV
  200.   200 a                     +0.080319 H =        +2.186 eV
  199.   199 a                     +0.079291 H =        +2.158 eV
  198.   198 a                     +0.050930 H =        +1.386 eV
  197.   197 a                     +0.050081 H =        +1.363 eV
  196.   196 a                     +0.044623 H =        +1.214 eV
  195.   195 a                     +0.044267 H =        +1.205 eV
  194.   194 a        2.000        -0.276169 H =        -7.515 eV
  193.   193 a        2.000        -0.278862 H =        -7.588 eV
  192.   192 a        2.000        -0.288051 H =        -7.838 eV
  191.   191 a        2.000        -0.290836 H =        -7.914 eV
  190.   190 a        2.000        -0.296991 H =        -8.082 eV
  189.   189 a        2.000        -0.297053 H =        -8.083 eV
  188.   188 a        2.000        -0.299259 H =        -8.143 eV
  187.   187 a        2.000        -0.299264 H =        -8.143 eV
  186.   186 a        2.000        -0.327954 H =        -8.924 eV
  185.   185 a        2.000        -0.337438 H =        -9.182 eV
  184.   184 a        2.000        -0.340139 H =        -9.256 eV
  183.   183 a        2.000        -0.340276 H =        -9.259 eV
  182.   182 a        2.000        -0.353619 H =        -9.622 eV
  181.   181 a        2.000        -0.361316 H =        -9.832 eV
  180.   180 a        2.000        -0.385552 H =       -10.491 eV
  179.   179 a        2.000        -0.394039 H =       -10.722 eV


    ------------------------------------------------------------------------
         total  cpu-time :   7.75 seconds
         total wall-time :   8.57 seconds
    ------------------------------------------------------------------------

   ****  eiger : all done  ****


    2019-02-15 15:24:01.212 

