Using Slurm to start processes with PMI2
STARTING ridft ON 8 PROCESSORS!
RUNNING PROGRAM /beegfs/modfac/apps/TURBOMOLE/7.0_intel_GA/bin/em64t-unknown-linux-gnu_mpi/ridft_mpi.
PLEASE WAIT UNTIL ridft HAS FINISHED.
Look for the output in slave1.output.
  this is node-proc. number 1 running on node c-3-343.local
  the total number of node-proc. spawned is            8
  parallel platform: MPP, or cluster with fast interconnect

 ridft (c-3-343.local) : TURBOMOLE V7.0.2( ) 15 Jan 2016 at 17:47:42
 Copyright (C) 2016 TURBOMOLE GmbH, Karlsruhe


    2017-11-07 22:40:04.372 



                                  r i d f t

                        DFT program with RI approximation 
                                for coulomb part 




                                                 
                                 References:     
                                                 
          TURBOMOLE:                             
              R. Ahlrichs, M. Baer, M. Haeser, H. Horn, and
              C. Koelmel
              Electronic structure calculations on workstation
              computers: the program system TURBOMOLE
              Chem. Phys. Lett. 162: 165 (1989)
          Density Functional:                              
              O. Treutler and R. Ahlrichs                      
              Efficient Molecular Numerical Integration Schemes
              J. Chem. Phys. 102: 346 (1995)                   
          Parallel Version:                                
              Performance of parallel TURBOMOLE for Density    
              Functional Calculations                          
              M. v. Arnim and R. Ahlrichs                      
              J. Comp. Chem. 19: 1746 (1998)                   
          RI-J Method:                                     
              Auxiliary Basis Sets to approximate Coulomb      
              Potentials                                       
              Chem. Phys. Lett. 240: 283 (1995)                
              K. Eichkorn, O. Treutler, H. Oehm, M. Haeser     
              and R. Ahlrichs                                  
              Chem. Phys. Lett. 242: 652 (1995)                
                                                           
              Auxiliary Basis Sets for Main Row Atoms and their
              Use to approximate Coulomb Potentials            
              K. Eichkorn, F. Weigend, O. Treutler and         
              R. Ahlrichs                                      
              Theo. Chem. Acc. 97: 119 (1997)                   
                                                           
              Accurate Coulomb-fitting basis sets for H to Rn 
              F. Weigend                                        
              Phys. Chem. Chem. Phys. 8: 1057 (2006)            
                                                           
          Multipole accelerated RI-J (MARI-J):             
              Fast evaluation of the Coulomb potential for     
              electron densities using multipole accelerated   
              resolution of identity approximation             
              M. Sierka, A. Hogekamp and R. Ahlrichs           
              J. Chem. Phys. 118: 9136 (2003)                  
          RI-JK Method:                                     
              A fully direct RI-HF algorithm: Implementation,
              optimised auxiliary basis sets, demonstration of
              accuracy and efficiency                         
              F. Weigend                                      
              Phys. Chem. Chem. Phys. 4: 4285 (2002)           
          Two-component HF and DFT with spin-orbit coupling:  
              Self-consistent treatment of spin-orbit         
              interactions with efficient Hartree-Fock and    
              density functional methods                      
              M. K. Armbruster, F. Weigend, C. van Wüllen and 
              W. Klopper                                      
              Phys. Chem. Chem. Phys. 10: 1748 (2008)         
          Relativistic all-electron 2c calculations           
              An efficient implementation of two-component    
              relativistic exact-decoupling methods for large 
              molecules                                       
              D. Peng, N. Middendorf, F. Weigend, M. Reiher   
              J. Chem. Phys. 138, 184105 (2013)               
                                         


 


              +--------------------------------------------------+
              |      general information about current run       |
              +--------------------------------------------------+

 

 SCF run will be profiled !


 DENSITY CONVERGENCE CHECK SWITCHED ON !
 SCF CONVERGENCE IF RMS(delta[D]) <     0.1000000000E-06

 TPSS meta-GGA functional
 exchange:    LDA + TPSS
 correlation: LDA (PW) + TPSS
 A DFT calculation using the RI-J approximation will be carried out.
 Allocatable memory for RI due to $ricore (MB):       14000


              +--------------------------------------------------+
              | Atomic coordinate, charge and isotop information |
              +--------------------------------------------------+

                    atomic coordinates            atom    charge  isotop
          5.39238511    5.86136298   -3.05655019    c      6.000     0
          3.79569333    7.40629460   -4.51205468    c      6.000     0
          1.62785412    8.41360253   -3.34714926    c      6.000     0
          1.08064461    7.88579994   -0.84253629    c      6.000     0
          2.66178357    6.31416555    0.60750273    c      6.000     0
          4.83471653    5.32426275   -0.55534138    c      6.000     0
          2.05034265    5.70687277    3.25380038    c      6.000     0
         -0.44162616    5.88247632    4.15551268    c      6.000     0
         -1.02774456    5.27455218    6.63375981    c      6.000     0
          0.85174700    4.45430068    8.32178527    c      6.000     0
          3.35107630    4.29303769    7.42818424    c      6.000     0
          3.93570030    4.91410563    4.95358881    c      6.000     0
          0.21044179    3.73291700   10.91767711    c      6.000     0
         -2.06698263    4.50392716   12.06330166    c      6.000     0
         -2.67972576    3.70616434   14.46121427    c      6.000     0
         -1.09657085    2.18890946   15.78011877    n      7.000     0
          1.14563607    1.45739497   14.77932963    c      6.000     0
          1.82406439    2.20475236   12.38148392    c      6.000     0
         -1.92203554    1.06278273   18.24361867    c      6.000     0
         -3.04301692   -1.50991235   17.71740761    c      6.000     0
         -5.56313812   -1.75047826   16.95089349    c      6.000     0
         -6.49549743   -4.09269799   16.19371084    c      6.000     0
         -4.91588046   -6.21428899   16.19751240    c      6.000     0
         -2.42440581   -5.99125708   17.05136834    c      6.000     0
         -1.49138169   -3.64773269   17.80817739    c      6.000     0
         -5.80666410   -8.69278840   15.09525178    c      6.000     0
         -5.38962176   -8.61919320   12.29539953    n      7.000     0
         -3.04008066   -9.08606894   11.38658563    c      6.000     0
         -2.50996297   -8.73629651    8.86393390    c      6.000     0
         -4.38403102   -7.88358159    7.17796579    c      6.000     0
         -6.81379950   -7.48949111    8.19488015    c      6.000     0
         -7.26299912   -7.85109701   10.73067756    c      6.000     0
         -3.82398215   -7.39631061    4.50974449    c      6.000     0
         -5.41179543   -5.85031356    3.04545183    c      6.000     0
         -4.84469448   -5.32057684    0.54481296    c      6.000     0
         -2.67001144   -6.31795124   -0.60825409    c      6.000     0
         -1.09766783   -7.89045830    0.85016983    c      6.000     0
         -1.65517654   -8.41209717    3.35382075    c      6.000     0
         -2.04766377   -5.71599051   -3.25314067    c      6.000     0
          0.44871037   -5.88847450   -4.14282808    c      6.000     0
          1.04542144   -5.28195802   -6.61900559    c      6.000     0
         -0.82774710   -4.46778388   -8.31708703    c      6.000     0
         -3.33184380   -4.31221142   -7.43562957    c      6.000     0
         -3.92691024   -4.93035387   -4.96286963    c      6.000     0
          4.34637445    7.90118363   -7.18064674    c      6.000     0
          2.46198831    8.74024245   -8.86177754    c      6.000     0
          2.98422168    9.09671755  -11.38525167    c      6.000     0
          5.33597263    8.65074161  -12.29865137    n      7.000     0
          7.21896831    7.89740702  -10.73821341    c      6.000     0
          6.77758649    7.52875830   -8.20211458    c      6.000     0
          5.74752210    8.72826744  -15.09914896    c      6.000     0
          4.88494035    6.23838092  -16.19841909    c      6.000     0
          6.48664860    4.13340572  -16.18676723    c      6.000     0
          5.57990358    1.77962861  -16.93915073    c      6.000     0
          3.06393203    1.51101859  -17.70994338    c      6.000     0
          1.49047878    3.63245633  -17.80947771    c      6.000     0
          2.39749498    5.98731342  -17.05609058    c      6.000     0
          1.97095752   -1.07432178  -18.23259986    c      6.000     0
          1.14347026   -2.20021702  -15.76957107    n      7.000     0
          2.73189184   -3.70172859  -14.43903096    c      6.000     0
          2.11324766   -4.49969455  -12.04259726    c      6.000     0
         -0.17672964   -3.74592210  -10.91055512    c      6.000     0
         -1.79418479   -2.23273070  -12.38572617    c      6.000     0
         -1.10924675   -1.48435663  -14.78127038    c      6.000     0
          1.95830864   -6.41883446   -2.86427018    h      1.000     0
          3.00739502   -5.36019873   -7.20447052    h      1.000     0
         -4.84256929   -3.75083633   -8.70256433    h      1.000     0
         -5.88505013   -4.83649703   -4.36334117    h      1.000     0
          3.43204993   -5.72699476  -11.07323710    h      1.000     0
          4.48130487   -4.22194222  -15.36364618    h      1.000     0
         -2.30040009   -0.33419542  -16.00909669    h      1.000     0
         -3.58860712   -1.57176799  -11.65875476    h      1.000     0
          0.28513492   -0.95454716  -19.42078236    h      1.000     0
          3.34808864   -2.36988419  -19.05076662    h      1.000     0
          6.82899460    0.14921788  -16.90210227    h      1.000     0
          8.43639470    4.32190307  -15.56814195    h      1.000     0
          1.17683791    7.64404085  -17.09668265    h      1.000     0
         -0.45257939    3.41268949  -18.45168545    h      1.000     0
          7.75543057    9.07778741  -15.40000017    h      1.000     0
          4.61712855   10.30161298  -15.81663168    h      1.000     0
          1.60122712    9.76466506  -12.76026308    h      1.000     0
          0.54457731    9.07169247   -8.22988222    h      1.000     0
          8.35437190    6.96173898   -7.02847315    h      1.000     0
          9.05394303    7.61236092  -11.59702629    h      1.000     0
          0.37939143    9.66320718   -4.38778062    h      1.000     0
         -0.57909524    8.73693372    0.00783480    h      1.000     0
          6.06077293    4.04982162    0.47799149    h      1.000     0
          7.04284621    4.99259692   -3.90474470    h      1.000     0
         -1.95673336    6.41716205    2.88534101    h      1.000     0
         -2.98660765    5.35596461    7.22921932    h      1.000     0
          4.86607503    3.72570940    8.68743008    h      1.000     0
          5.89083458    4.81673711    4.34491710    h      1.000     0
         -3.37949249    5.74516259   11.10319247    h      1.000     0
         -4.41918843    4.23998835   15.39676798    h      1.000     0
          2.33299201    0.29502858   15.99980245    h      1.000     0
          3.60944343    1.53150417   11.64344571    h      1.000     0
         -0.23158688    0.92267636   19.42272746    h      1.000     0
         -3.28214419    2.36886374   19.07347470    h      1.000     0
         -6.79553549   -0.10726407   16.92047287    h      1.000     0
         -8.44812915   -4.25947615   15.57796475    h      1.000     0
         -1.22125781   -7.66089343   17.08671302    h      1.000     0
          0.45553077   -3.44933525   18.44564740    h      1.000     0
         -7.81912927   -9.01817373   15.39261984    h      1.000     0
         -4.69650537  -10.28010960   15.81379350    h      1.000     0
         -1.66598010   -9.76539752   12.76469619    h      1.000     0
         -0.59415163   -9.08471004    8.23647056    h      1.000     0
         -8.38367418   -6.90973750    7.01829584    h      1.000     0
         -9.09679559   -7.54800988   11.58588390    h      1.000     0
         -0.41333432   -9.66282923    4.40087850    h      1.000     0
          0.56307848   -8.74684194    0.00691281    h      1.000     0
         -6.06412946   -4.04590441   -0.49611925    h      1.000     0
         -7.06307913   -4.97533351    3.88564883    h      1.000     0
          4.56284957   -0.83689602   19.79105115    cl    17.000     0
         -0.08538217  -12.47792250   16.06084930    cl    17.000     0
         -0.02691329   12.43636629  -16.06243648    cl    17.000     0
         -4.51593353    0.73774549  -19.83306486    cl    17.000     0
 
       center of nuclear mass  :   -0.00375305   -0.00344194   -0.00066399
       center of nuclear charge:   -0.00358693   -0.00298257   -0.00051803

              +--------------------------------------------------+
              |               basis set information              |
              +--------------------------------------------------+

              we will work with the 1s 3p 5d 7f 9g ... basis set
              ...i.e. with spherical basis functions...

   type   atoms  prim   cont   basis
   ---------------------------------------------------------------------------
    c       60     50     30   cc-pVTZ   [4s3p2d1f|18s5p2d1f]
    n        4     50     30   cc-pVTZ   [4s3p2d1f|18s5p2d1f]
    h       48     16     14   cc-pVTZ   [3s2p1d|5s2p1d]
    cl       4    106     34   cc-pVTZ   [5s4p2d1f|41s16p2d1f]
   ---------------------------------------------------------------------------
   total:  116   4392   2728
   ---------------------------------------------------------------------------

   total number of primitive shells          :  120
   total number of contracted shells         :  976
   total number of cartesian basis functions : 3116
   total number of SCF-basis functions       : 2728


 integral neglect threshold       :  0.11E-13
 integral storage threshold THIZE :  0.10E-04
 integral storage threshold THIME :         5

 RI-J AUXILIARY BASIS SET information:

              we will work with the 1s 3p 5d 7f 9g ... basis set
              ...i.e. with spherical basis functions...

   type   atoms  prim   cont   basis
   ---------------------------------------------------------------------------
    c       60     70     49   cc-pVTZ   [6s4p3d1f1g|12s5p4d2f1g]
    n        4     70     49   cc-pVTZ   [6s4p3d1f1g|12s5p4d2f1g]
    h       48     16     11   cc-pVTZ   [3s1p1d|5s2p1d]
    cl       4     77     51   cc-pVTZ   [8s4p3d1f1g|14s5p5d2f1g]
   ---------------------------------------------------------------------------
   total:  116   5556   3868
   ---------------------------------------------------------------------------

   total number of primitive shells          :   83
   total number of contracted shells         : 1268
   total number of cartesian basis functions : 4732
   total number of SCF-basis functions       : 3868


 symmetry group of the molecule :   c1 

 the group has the following generators :
   c1(z)

    1 symmetry operations found

 there are 1 real representations :   a   

 maximum number of shells which are related by symmetry :  1


    mo occupation :
   irrep   mo's   occupied
    a     2728      252
 
 number of basis functions   :         2728
 number of occupied orbitals :          252
 
  
           ------------------
           density functional
           ------------------
 TPSS meta-GGA functional
 exchange:    LDA + TPSS
 correlation: LDA (PW) + TPSS
 grinp -> nfun, dfgga, dfhybrid 
           5 F F
 iterations will be done with small grid
  
 spherical integration : Lebedev's spherical grid
 spherical gridsize    :           5
    i.e. gridpoints    :         590
 value for diffuse not defined
 radial integration    : Chebyshev 2nd kind (scaling 3)
 radial gridsize       :           8
 integration cells     :         116
 partition function    : becke
 partition sharpness   :           3
  

 <rddim> : input of entry tasksize
           from data group '$pardft' failed !

               Default values taken

 <rddim> : input of entry memdiv
           from data group '$pardft' failed !

               Default values taken
  RIDFT: memory allocation for DFT gridpoints
  MEMORY is divided by 1 as DEFAULT
 Each node can hold at most  the            1 -th part
 of the gridpoints    

 biggest AO integral is expected to be    10.299856942
  
           ------------------------
               RI-J - INFORMATION
           ------------------------
 
 
 **************************************************
 *      MEMORY ALLOCATION FOR PARALLEL RI-DFT     *
 **************************************************
 
 
MEMORY FOR (MU NU/ ALPHA), SEQUENTIAL RUN              13880 MByte
 
            DIFFERENCE IN MEMORY NEED:       DIAG./SLAVE  
 
      TOTAL DIFFERENCE :                    417 MByte
 
      difference in xcore:                  121 MByte
      difference in fatmat:                 109 MByte
      getcor calls skipped by slaves:       188 MByte
 
 
           Integral memory available for diagonal.     13880 MByte
 
           Integral memory available for slave             0 MByte
 
         MEMORY FOR (MU NU/ ALPHA) ON DIAGONALIZER     13880 MByte
 
         MEMORY FOR (MU NU/ ALPHA) ON ONE SLAVE            0 MByte
 
         TOTAL MEMORY FOR (MU NU/ ALPHA),ALL NODES     13880 MByte
 
 Contributions to RI integral batches: 
  neglected integral batches:      342603
  direct contribution:              66039
  memory contribution:       68134
 Memory core needed for (P|Q) and Cholesky    115 MByte
 Memory core minimum needed except of (P|Q)     9 MByte
 Total minimum memory core needed (sum)       123 MByte
     number of direct tasks:         160
  
 ****************************************
 Memory allocated for RI-J 14003 MByte
 ****************************************
                                            

          ------------------------
          nuclear repulsion energy  :   9734.15431775    
          ------------------------

 
          -----------------
          -S integrals
          -----------------

 1e-integrals will be neglected if expon. factor < 0.107252E-14
 
          -----------------
          -T+V integrals
          -----------------

 1e-integrals will be neglected if expon. factor < 0.107252E-14
 Difference densities >>NOT<< switched on in parallel ridft!

 automatic virtual orbital shift switched on 
      shift if e(lumo)-e(homo) < 0.10000000    


 DIIS switched on: error vector is FDS-SDF
 Max. Iterations for DIIS is     :   4
 DIIS matrix (see manual) 
    Scaling factor of diagonals  :  1.200
    threshold for scaling factor :  0.000

 scf convergence criterion : increment of total energy < .1000000D-08
                  and increment of one-electron energy < .1000000D-05


 <geterg> : there is no data group $energy 

  MOs are in ASCII format !


 reading orbital data $scfmo  from file mos . 

 orbital characterization : expanded
 
 mo provided and orthogonalized by Cholesky decomposition

 DSCF restart information will be dumped onto file mos


 Starting SCF iterations


 ITERATION  ENERGY          1e-ENERGY        2e-ENERGY     RMS[dD(SAO)]   TOL
   1  -4368.0623291003    -25247.322064     11145.105417    0.000D+00 0.107D-13
                            Exc = -476.439758507     Coul =  11621.5451754    
                              N = 503.99898552    
                            current damping = 0.700
 
          max. resid. norm for Fia-block=  2.935D-01 for orbital      5a         
          max. resid. fock norm         =  4.479D+00 for orbital   2583a         

 ITERATION  ENERGY          1e-ENERGY        2e-ENERGY     RMS[dD(SAO)]   TOL
   2  -4374.6290547236    -25317.562770     11208.779398    0.163D-02 0.107D-13
                            Exc = -481.902512064     Coul =  11690.6819097    
                              N = 503.99908102    
                            current damping = 0.650
 
          Norm of current diis error:  6.7790    
          max. resid. norm for Fia-block=  1.311D-01 for orbital      5a         
          max. resid. fock norm         =  1.850D-01 for orbital   2529a         

 ITERATION  ENERGY          1e-ENERGY        2e-ENERGY     RMS[dD(SAO)]   TOL
   3  -4376.0239555547    -25333.115393     11222.937119    0.918D-03 0.107D-13
                            Exc = -483.527433986     Coul =  11706.4645534    
                              N = 503.99911116    
                            current damping = 0.550
 
          Norm of current diis error:  3.2907    
          max. resid. norm for Fia-block=  5.575D-02 for orbital     87a         
          max. resid. fock norm         =  7.548D-02 for orbital   1439a         
          irrep a   : virtual orbitals shifted by    0.02933

 ITERATION  ENERGY          1e-ENERGY        2e-ENERGY     RMS[dD(SAO)]   TOL
   4  -4376.4314837217    -25347.580404     11236.994603    0.589D-03 0.107D-13
                            Exc = -484.618241990     Coul =  11721.6128447    
                              N = 503.99912302    
                            current damping = 0.450
 
          Norm of current diis error:  1.2882    
          max. resid. norm for Fia-block=  2.317D-02 for orbital     87a         
          max. resid. fock norm         =  3.926D-02 for orbital   1415a         
          irrep a   : virtual orbitals shifted by    0.10589

 ITERATION  ENERGY          1e-ENERGY        2e-ENERGY     RMS[dD(SAO)]   TOL
   5  -4376.5034134787    -25350.849064     11240.191332    0.313D-03 0.107D-13
                            Exc = -484.979463761     Coul =  11725.1707961    
                              N = 503.99913553    
                            current damping = 0.350
 
          Norm of current diis error: 0.56447    
          max. resid. norm for Fia-block=  1.090D-02 for orbital     88a         
          max. resid. fock norm         =  1.718D-02 for orbital   2688a         
          irrep a   : virtual orbitals shifted by    0.09896
          mo-orthogonalization: Cholesky decomposition

 ITERATION  ENERGY          1e-ENERGY        2e-ENERGY     RMS[dD(SAO)]   TOL
   6  -4376.5184064858    -25354.718343     11244.045619    0.165D-03 0.107D-13
                            Exc = -485.220915055     Coul =  11729.2665338    
                              N = 503.99914294    
                            current damping = 0.250
 
          Norm of current diis error: 0.30842    
          max. resid. norm for Fia-block=  5.082D-03 for orbital    241a         
          max. resid. fock norm         =  1.006D-02 for orbital   2451a         
          irrep a   : virtual orbitals shifted by    0.11325

 ITERATION  ENERGY          1e-ENERGY        2e-ENERGY     RMS[dD(SAO)]   TOL
   7  -4376.5237846837    -25355.241194     11244.563092    0.832D-04 0.107D-13
                            Exc = -485.243756252     Coul =  11729.8068482    
                              N = 503.99914985    
                            current damping = 0.150
 
          Norm of current diis error: 0.83434E-01
          max. resid. norm for Fia-block=  3.448D-03 for orbital    241a         
          max. resid. fock norm         =  6.133D-03 for orbital   1268a         
          irrep a   : virtual orbitals shifted by    0.09350

 ITERATION  ENERGY          1e-ENERGY        2e-ENERGY     RMS[dD(SAO)]   TOL
   8  -4376.5248368138    -25355.278072     11244.598917    0.469D-04 0.107D-13
                            Exc = -485.258223029     Coul =  11729.8571401    
                              N = 503.99915553    
                            current damping = 0.050
 
          Norm of current diis error: 0.59400E-01
          max. resid. norm for Fia-block=  2.655D-03 for orbital    241a         
          max. resid. fock norm         =  3.053D-03 for orbital    253a         
          irrep a   : virtual orbitals shifted by    0.10453

 ITERATION  ENERGY          1e-ENERGY        2e-ENERGY     RMS[dD(SAO)]   TOL
   9  -4376.5254165451    -25355.688760     11245.009026    0.290D-04 0.107D-13
                            Exc = -485.261975649     Coul =  11730.2710017    
                              N = 503.99915816    
                            current damping = 0.050
 
          Norm of current diis error: 0.34381E-01
          max. resid. norm for Fia-block=  1.764D-03 for orbital    241a         
          max. resid. fock norm         =  1.854D-03 for orbital    253a         
          irrep a   : virtual orbitals shifted by    0.09690

 ITERATION  ENERGY          1e-ENERGY        2e-ENERGY     RMS[dD(SAO)]   TOL
  10  -4376.5256981395    -25355.804444     11245.124428    0.223D-04 0.107D-13
                            Exc = -485.263703398     Coul =  11730.3881317    
                              N = 503.99916046    
                            current damping = 0.050
 
          Norm of current diis error: 0.19397E-01
          max. resid. norm for Fia-block=  1.094D-03 for orbital    241a         
          max. resid. fock norm         =  1.240D-03 for orbital    254a         
          irrep a   : virtual orbitals shifted by    0.09988
          mo-orthogonalization: Cholesky decomposition

 ITERATION  ENERGY          1e-ENERGY        2e-ENERGY     RMS[dD(SAO)]   TOL
  11  -4376.5258380733    -25355.767219     11245.087063    0.162D-04 0.107D-13
                            Exc = -485.263048336     Coul =  11730.3501112    
                              N = 503.99916175    
                            current damping = 0.100
 
          Norm of current diis error: 0.16877E-01
          max. resid. norm for Fia-block=  8.789D-04 for orbital    241a         
          max. resid. fock norm         =  1.187D-03 for orbital    254a         
          irrep a   : virtual orbitals shifted by    0.10010

 ITERATION  ENERGY          1e-ENERGY        2e-ENERGY     RMS[dD(SAO)]   TOL
  12  -4376.5259267202    -25355.909030     11245.228786    0.109D-04 0.107D-13
                            Exc = -485.264833188     Coul =  11730.4936190    
                              N = 503.99916194    
                            current damping = 0.150
 
          Norm of current diis error: 0.15751E-01
          max. resid. norm for Fia-block=  6.946D-04 for orbital    251a         
          max. resid. fock norm         =  8.708D-04 for orbital   1275a         
          irrep a   : virtual orbitals shifted by    0.08507

 ITERATION  ENERGY          1e-ENERGY        2e-ENERGY     RMS[dD(SAO)]   TOL
  13  -4376.5259937695    -25355.900035     11245.219723    0.993D-05 0.107D-13
                            Exc = -485.265301229     Coul =  11730.4850243    
                              N = 503.99916264    
                            current damping = 0.200
 
          Norm of current diis error: 0.63393E-02
          max. resid. norm for Fia-block=  5.996D-04 for orbital    251a         
          max. resid. fock norm         =  6.655D-04 for orbital    254a         
          irrep a   : virtual orbitals shifted by    0.09592

 ITERATION  ENERGY          1e-ENERGY        2e-ENERGY     RMS[dD(SAO)]   TOL
  14  -4376.5260343075    -25355.900532     11245.220180    0.716D-05 0.107D-13
                            Exc = -485.264987141     Coul =  11730.4851673    
                              N = 503.99916277    
                            current damping = 0.250
 
          Norm of current diis error: 0.51706E-02
          max. resid. norm for Fia-block=  5.668D-04 for orbital    251a         
          max. resid. fock norm         =  6.447D-04 for orbital    254a         
          irrep a   : virtual orbitals shifted by    0.09768

 ITERATION  ENERGY          1e-ENERGY        2e-ENERGY     RMS[dD(SAO)]   TOL
  15  -4376.5260650507    -25355.933585     11245.253202    0.585D-05 0.107D-13
                            Exc = -485.265320891     Coul =  11730.5185228    
                              N = 503.99916275    
                            current damping = 0.100
 
          Norm of current diis error: 0.52495E-02
          max. resid. norm for Fia-block=  5.134D-04 for orbital    251a         
          max. resid. fock norm         =  5.493D-04 for orbital    254a         
          irrep a   : virtual orbitals shifted by    0.09800
          mo-orthogonalization: Cholesky decomposition

 ITERATION  ENERGY          1e-ENERGY        2e-ENERGY     RMS[dD(SAO)]   TOL
  16  -4376.5260891643    -25355.944209     11245.263802    0.530D-05 0.107D-13
                            Exc = -485.265719915     Coul =  11730.5295221    
                              N = 503.99916281    
                            current damping = 0.050
 
          Norm of current diis error: 0.47100E-02
          max. resid. norm for Fia-block=  4.656D-04 for orbital    251a         
          max. resid. fock norm         =  4.888D-04 for orbital    254a         
          irrep a   : virtual orbitals shifted by    0.09789

 ITERATION  ENERGY          1e-ENERGY        2e-ENERGY     RMS[dD(SAO)]   TOL
  17  -4376.5261078358    -25355.943373     11245.262947    0.470D-05 0.107D-13
                            Exc = -485.265741345     Coul =  11730.5286884    
                              N = 503.99916285    
                            current damping = 0.100
 
          Norm of current diis error: 0.43295E-02
          max. resid. norm for Fia-block=  4.505D-04 for orbital    251a         
          max. resid. fock norm         =  4.766D-04 for orbital    254a         
          irrep a   : virtual orbitals shifted by    0.09782

 ITERATION  ENERGY          1e-ENERGY        2e-ENERGY     RMS[dD(SAO)]   TOL
  18  -4376.5261232312    -25355.957869     11245.277428    0.407D-05 0.107D-13
                            Exc = -485.265693905     Coul =  11730.5431219    
                              N = 503.99916271    
                            current damping = 0.150
 
          Norm of current diis error: 0.33655E-02
          max. resid. norm for Fia-block=  4.061D-04 for orbital    251a         
          max. resid. fock norm         =  4.156D-04 for orbital    254a         
          irrep a   : virtual orbitals shifted by    0.09751

 ITERATION  ENERGY          1e-ENERGY        2e-ENERGY     RMS[dD(SAO)]   TOL
  19  -4376.5261355987    -25355.963317     11245.282864    0.371D-05 0.107D-13
                            Exc = -485.265909353     Coul =  11730.5487734    
                              N = 503.99916271    
                            current damping = 0.050
 
          Norm of current diis error: 0.28008E-02
          max. resid. norm for Fia-block=  3.724D-04 for orbital    251a         
          max. resid. fock norm         =  3.809D-04 for orbital    254a         
          irrep a   : virtual orbitals shifted by    0.09759

 ITERATION  ENERGY          1e-ENERGY        2e-ENERGY     RMS[dD(SAO)]   TOL
  20  -4376.5261456569    -25355.959788     11245.279324    0.336D-05 0.107D-13
                            Exc = -485.266000011     Coul =  11730.5453244    
                              N = 503.99916268    
                            current damping = 0.100
 
          Norm of current diis error: 0.28565E-02
          max. resid. norm for Fia-block=  3.730D-04 for orbital    251a         
          max. resid. fock norm         =  3.883D-04 for orbital    254a         
          irrep a   : virtual orbitals shifted by    0.09758
          mo-orthogonalization: Cholesky decomposition

 ITERATION  ENERGY          1e-ENERGY        2e-ENERGY     RMS[dD(SAO)]   TOL
  21  -4376.5261544613    -25355.977895     11245.297423    0.310D-05 0.107D-13
                            Exc = -485.265936340     Coul =  11730.5633590    
                              N = 503.99916254    
                            current damping = 0.150
 
          Norm of current diis error: 0.27128E-02
          max. resid. norm for Fia-block=  3.348D-04 for orbital    251a         
          max. resid. fock norm         =  3.420D-04 for orbital    254a         
          irrep a   : virtual orbitals shifted by    0.09729

 ITERATION  ENERGY          1e-ENERGY        2e-ENERGY     RMS[dD(SAO)]   TOL
  22  -4376.5261619465    -25355.978639     11245.298160    0.286D-05 0.107D-13
                            Exc = -485.266088609     Coul =  11730.5642482    
                              N = 503.99916252    
                            current damping = 0.050
 
          Norm of current diis error: 0.22251E-02
          max. resid. norm for Fia-block=  3.097D-04 for orbital    251a         
          max. resid. fock norm         =  3.187D-04 for orbital    254a         
          irrep a   : virtual orbitals shifted by    0.09744

 ITERATION  ENERGY          1e-ENERGY        2e-ENERGY     RMS[dD(SAO)]   TOL
  23  -4376.5261682567    -25355.979118     11245.298632    0.265D-05 0.107D-13
                            Exc = -485.266109756     Coul =  11730.5647416    
                              N = 503.99916249    
                            current damping = 0.050
 
          Norm of current diis error: 0.22505E-02
          max. resid. norm for Fia-block=  2.977D-04 for orbital    251a         
          max. resid. fock norm         =  3.067D-04 for orbital    254a         
          irrep a   : virtual orbitals shifted by    0.09745

 ITERATION  ENERGY          1e-ENERGY        2e-ENERGY     RMS[dD(SAO)]   TOL
  24  -4376.5261737903    -25355.984749     11245.304258    0.243D-05 0.107D-13
                            Exc = -485.266188536     Coul =  11730.5704460    
                              N = 503.99916240    
                            current damping = 0.050
 
          Norm of current diis error: 0.18934E-02
          max. resid. norm for Fia-block=  2.724D-04 for orbital    251a         
          max. resid. fock norm         =  2.770D-04 for orbital    254a         
          irrep a   : virtual orbitals shifted by    0.09735

 ITERATION  ENERGY          1e-ENERGY        2e-ENERGY     RMS[dD(SAO)]   TOL
  25  -4376.5261784740    -25355.985477     11245.304981    0.227D-05 0.107D-13
                            Exc = -485.266181738     Coul =  11730.5711630    
                              N = 503.99916237    
                            current damping = 0.050
 
          Norm of current diis error: 0.16923E-02
          max. resid. norm for Fia-block=  2.523D-04 for orbital    251a         
          max. resid. fock norm         =  2.601D-04 for orbital    254a         
          irrep a   : virtual orbitals shifted by    0.09731
          mo-orthogonalization: Cholesky decomposition

 ITERATION  ENERGY          1e-ENERGY        2e-ENERGY     RMS[dD(SAO)]   TOL
  26  -4376.5261825241    -25355.985033     11245.304533    0.208D-05 0.107D-13
                            Exc = -485.266278901     Coul =  11730.5708116    
                              N = 503.99916233    
                            current damping = 0.100
 
          Norm of current diis error: 0.16163E-02
          max. resid. norm for Fia-block=  2.483D-04 for orbital    251a         
          max. resid. fock norm         =  2.553D-04 for orbital    254a         
          irrep a   : virtual orbitals shifted by    0.09722

 ITERATION  ENERGY          1e-ENERGY        2e-ENERGY     RMS[dD(SAO)]   TOL
  27  -4376.5261861351    -25355.993059     11245.312556    0.196D-05 0.107D-13
                            Exc = -485.266243178     Coul =  11730.5787987    
                              N = 503.99916224    
                            current damping = 0.150
 
          Norm of current diis error: 0.15467E-02
          max. resid. norm for Fia-block=  2.242D-04 for orbital    251a         
          max. resid. fock norm         =  2.311D-04 for orbital    254a         
          irrep a   : virtual orbitals shifted by    0.09699

 ITERATION  ENERGY          1e-ENERGY        2e-ENERGY     RMS[dD(SAO)]   TOL
  28  -4376.5261892688    -25355.991254     11245.310747    0.184D-05 0.107D-13
                            Exc = -485.266344422     Coul =  11730.5770915    
                              N = 503.99916222    
                            current damping = 0.200
 
          Norm of current diis error: 0.13997E-02
          max. resid. norm for Fia-block=  2.133D-04 for orbital    251a         
          max. resid. fock norm         =  2.205D-04 for orbital    254a         
          irrep a   : virtual orbitals shifted by    0.09685

 ITERATION  ENERGY          1e-ENERGY        2e-ENERGY     RMS[dD(SAO)]   TOL
  29  -4376.5261920060    -25355.993543     11245.313033    0.171D-05 0.107D-13
                            Exc = -485.266314843     Coul =  11730.5793482    
                              N = 503.99916218    
                            current damping = 0.250
 
          Norm of current diis error: 0.13576E-02
          max. resid. norm for Fia-block=  2.022D-04 for orbital    251a         
          max. resid. fock norm         =  2.082D-04 for orbital    254a         
          irrep a   : virtual orbitals shifted by    0.09670

 ITERATION  ENERGY          1e-ENERGY        2e-ENERGY     RMS[dD(SAO)]   TOL
  30  -4376.5261944128    -25355.996811     11245.316299    0.159D-05 0.107D-13
                            Exc = -485.266372513     Coul =  11730.5826716    
                              N = 503.99916213    
                            current damping = 0.100
 
          Norm of current diis error: 0.12166E-02
          max. resid. norm for Fia-block=  1.844D-04 for orbital    251a         
          max. resid. fock norm         =  1.900D-04 for orbital    254a         
          irrep a   : virtual orbitals shifted by    0.09703
          mo-orthogonalization: Cholesky decomposition

 ITERATION  ENERGY          1e-ENERGY        2e-ENERGY     RMS[dD(SAO)]   TOL
  31  -4376.5261964884    -25355.995260     11245.314746    0.151D-05 0.107D-13
                            Exc = -485.266374518     Coul =  11730.5811203    
                              N = 503.99916211    
                            current damping = 0.150
 
          Norm of current diis error: 0.11692E-02
          max. resid. norm for Fia-block=  1.778D-04 for orbital    251a         
          max. resid. fock norm         =  1.838D-04 for orbital    254a         
          irrep a   : virtual orbitals shifted by    0.09691

 ITERATION  ENERGY          1e-ENERGY        2e-ENERGY     RMS[dD(SAO)]   TOL
  32  -4376.5261983498    -25355.998033     11245.317516    0.139D-05 0.107D-13
                            Exc = -485.266421002     Coul =  11730.5839374    
                              N = 503.99916206    
                            current damping = 0.200
 
          Norm of current diis error: 0.10572E-02
          max. resid. norm for Fia-block=  1.668D-04 for orbital    251a         
          max. resid. fock norm         =  1.717D-04 for orbital    254a         
          irrep a   : virtual orbitals shifted by    0.09675

 ITERATION  ENERGY          1e-ENERGY        2e-ENERGY     RMS[dD(SAO)]   TOL
  33  -4376.5261999690    -25356.000326     11245.319808    0.131D-05 0.107D-13
                            Exc = -485.266398308     Coul =  11730.5862065    
                              N = 503.99916203    
                            current damping = 0.050
 
          Norm of current diis error: 0.98274E-03
          max. resid. norm for Fia-block=  1.526D-04 for orbital    251a         
          max. resid. fock norm         =  1.593D-04 for orbital    254a         
          irrep a   : virtual orbitals shifted by    0.09711

 ITERATION  ENERGY          1e-ENERGY        2e-ENERGY     RMS[dD(SAO)]   TOL
  34  -4376.5262013831    -25355.998514     11245.317995    0.124D-05 0.107D-13
                            Exc = -485.266491599     Coul =  11730.5844861    
                              N = 503.99916202    
                            current damping = 0.100
 
          Norm of current diis error: 0.99627E-03
          max. resid. norm for Fia-block=  1.503D-04 for orbital    251a         
          max. resid. fock norm         =  1.550D-04 for orbital    254a         
          irrep a   : virtual orbitals shifted by    0.09699

 ITERATION  ENERGY          1e-ENERGY        2e-ENERGY     RMS[dD(SAO)]   TOL
  35  -4376.5262026616    -25356.002033     11245.321513    0.116D-05 0.107D-13
                            Exc = -485.266437246     Coul =  11730.5879502    
                              N = 503.99916197    
                            current damping = 0.150
 
          Norm of current diis error: 0.89721E-03
          max. resid. norm for Fia-block=  1.383D-04 for orbital    251a         
          max. resid. fock norm         =  1.426D-04 for orbital    254a         
          irrep a   : virtual orbitals shifted by    0.09682
          mo-orthogonalization: Cholesky decomposition

 ITERATION  ENERGY          1e-ENERGY        2e-ENERGY     RMS[dD(SAO)]   TOL
  36  -4376.5262037650    -25356.002966     11245.322444    0.108D-05 0.107D-13
                            Exc = -485.266480968     Coul =  11730.5889252    
                              N = 503.99916195    
                            current damping = 0.050
 
          Norm of current diis error: 0.83249E-03
          max. resid. norm for Fia-block=  1.279D-04 for orbital    251a         
          max. resid. fock norm         =  1.336D-04 for orbital    254a         
          irrep a   : virtual orbitals shifted by    0.09707

 ITERATION  ENERGY          1e-ENERGY        2e-ENERGY     RMS[dD(SAO)]   TOL
  37  -4376.5262047339    -25356.002022     11245.321499    0.102D-05 0.107D-13
                            Exc = -485.266488512     Coul =  11730.5879876    
                              N = 503.99916193    
                            current damping = 0.100
 
          Norm of current diis error: 0.82171E-03
          max. resid. norm for Fia-block=  1.243D-04 for orbital    251a         
          max. resid. fock norm         =  1.284D-04 for orbital    254a         
          irrep a   : virtual orbitals shifted by    0.09694

 ITERATION  ENERGY          1e-ENERGY        2e-ENERGY     RMS[dD(SAO)]   TOL
  38  -4376.5262056007    -25356.004764     11245.324240    0.955D-06 0.107D-13
                            Exc = -485.266514043     Coul =  11730.5907544    
                              N = 503.99916190    
                            current damping = 0.150
 
          Norm of current diis error: 0.73444E-03
          max. resid. norm for Fia-block=  1.144D-04 for orbital    251a         
          max. resid. fock norm         =  1.185D-04 for orbital    254a         
          irrep a   : virtual orbitals shifted by    0.09677

 ITERATION  ENERGY          1e-ENERGY        2e-ENERGY     RMS[dD(SAO)]   TOL
  39  -4376.5262063525    -25356.004817     11245.324292    0.896D-06 0.107D-13
                            Exc = -485.266491475     Coul =  11730.5907840    
                              N = 503.99916188    
                            current damping = 0.050
 
          Norm of current diis error: 0.67967E-03
          max. resid. norm for Fia-block=  1.067D-04 for orbital    251a         
          max. resid. fock norm         =  1.115D-04 for orbital    254a         
          irrep a   : virtual orbitals shifted by    0.09703

 ITERATION  ENERGY          1e-ENERGY        2e-ENERGY     RMS[dD(SAO)]   TOL
  40  -4376.5262070140    -25356.004815     11245.324290    0.841D-06 0.107D-13
                            Exc = -485.266563052     Coul =  11730.5908530    
                              N = 503.99916187    
                            current damping = 0.100
 
          Norm of current diis error: 0.66592E-03
          max. resid. norm for Fia-block=  1.036D-04 for orbital    251a         
          max. resid. fock norm         =  1.070D-04 for orbital    254a         
          irrep a   : virtual orbitals shifted by    0.09690
          mo-orthogonalization: Cholesky decomposition

 ITERATION  ENERGY          1e-ENERGY        2e-ENERGY     RMS[dD(SAO)]   TOL
  41  -4376.5262076041    -25356.006751     11245.326225    0.790D-06 0.107D-13
                            Exc = -485.266516027     Coul =  11730.5927412    
                              N = 503.99916184    
                            current damping = 0.150
 
          Norm of current diis error: 0.60223E-03
          max. resid. norm for Fia-block=  9.464D-05 for orbital    251a         
          max. resid. fock norm         =  9.881D-05 for orbital    254a         
          irrep a   : virtual orbitals shifted by    0.09673

 ITERATION  ENERGY          1e-ENERGY        2e-ENERGY     RMS[dD(SAO)]   TOL
  42  -4376.5262081180    -25356.006457     11245.325931    0.741D-06 0.107D-13
                            Exc = -485.266558548     Coul =  11730.5924893    
                              N = 503.99916183    
                            current damping = 0.200
 
          Norm of current diis error: 0.58138E-03
          max. resid. norm for Fia-block=  9.009D-05 for orbital    251a         
          max. resid. fock norm         =  9.401D-05 for orbital    254a         
          irrep a   : virtual orbitals shifted by    0.09659

 ITERATION  ENERGY          1e-ENERGY        2e-ENERGY     RMS[dD(SAO)]   TOL
  43  -4376.5262085737    -25356.007010     11245.326483    0.694D-06 0.107D-13
                            Exc = -485.266554101     Coul =  11730.5930374    
                              N = 503.99916182    
                            current damping = 0.250
 
          Norm of current diis error: 0.53821E-03
          max. resid. norm for Fia-block=  8.529D-05 for orbital    251a         
          max. resid. fock norm         =  8.829D-05 for orbital    254a         
          irrep a   : virtual orbitals shifted by    0.09644

 ITERATION  ENERGY          1e-ENERGY        2e-ENERGY     RMS[dD(SAO)]   TOL
  44  -4376.5262089736    -25356.008255     11245.327728    0.649D-06 0.107D-13
                            Exc = -485.266569925     Coul =  11730.5942984    
                              N = 503.99916180    
                            current damping = 0.100
 
          Norm of current diis error: 0.49305E-03
          max. resid. norm for Fia-block=  7.848D-05 for orbital    251a         
          max. resid. fock norm         =  8.220D-05 for orbital    254a         
          irrep a   : virtual orbitals shifted by    0.09684

 ITERATION  ENERGY          1e-ENERGY        2e-ENERGY     RMS[dD(SAO)]   TOL
  45  -4376.5262093239    -25356.007593     11245.327066    0.614D-06 0.107D-13
                            Exc = -485.266559800     Coul =  11730.5936262    
                              N = 503.99916179    
                            current damping = 0.150
 
          Norm of current diis error: 0.48453E-03
          max. resid. norm for Fia-block=  7.559D-05 for orbital    251a         
          max. resid. fock norm         =  7.874D-05 for orbital    254a         
          irrep a   : virtual orbitals shifted by    0.09670
          mo-orthogonalization: Cholesky decomposition

 ITERATION  ENERGY          1e-ENERGY        2e-ENERGY     RMS[dD(SAO)]   TOL
  46  -4376.5262096376    -25356.008746     11245.328218    0.574D-06 0.107D-13
                            Exc = -485.266594406     Coul =  11730.5948127    
                              N = 503.99916177    
                            current damping = 0.200
 
          Norm of current diis error: 0.44129E-03
          max. resid. norm for Fia-block=  7.065D-05 for orbital    251a         
          max. resid. fock norm         =  7.333D-05 for orbital    254a         
          irrep a   : virtual orbitals shifted by    0.09655

 ITERATION  ENERGY          1e-ENERGY        2e-ENERGY     RMS[dD(SAO)]   TOL
  47  -4376.5262099110    -25356.009226     11245.328698    0.539D-06 0.107D-13
                            Exc = -485.266574675     Coul =  11730.5952732    
                              N = 503.99916176    
                            current damping = 0.050
 
          Norm of current diis error: 0.40416E-03
          max. resid. norm for Fia-block=  6.529D-05 for orbital    251a         
          max. resid. fock norm         =  6.875D-05 for orbital    254a         
          irrep a   : virtual orbitals shifted by    0.09697

 ITERATION  ENERGY          1e-ENERGY        2e-ENERGY     RMS[dD(SAO)]   TOL
  48  -4376.5262101512    -25356.008889     11245.328361    0.508D-06 0.107D-13
                            Exc = -485.266608817     Coul =  11730.5949702    
                              N = 503.99916176    
                            current damping = 0.100
 
          Norm of current diis error: 0.41105E-03
          max. resid. norm for Fia-block=  6.364D-05 for orbital    251a         
          max. resid. fock norm         =  6.624D-05 for orbital    254a         
          irrep a   : virtual orbitals shifted by    0.09683

 ITERATION  ENERGY          1e-ENERGY        2e-ENERGY     RMS[dD(SAO)]   TOL
  49  -4376.5262103683    -25356.009880     11245.329352    0.478D-06 0.107D-13
                            Exc = -485.266592193     Coul =  11730.5959441    
                              N = 503.99916174    
                            current damping = 0.150
 
          Norm of current diis error: 0.36807E-03
          max. resid. norm for Fia-block=  5.868D-05 for orbital    251a         
          max. resid. fock norm         =  6.123D-05 for orbital    254a         
          irrep a   : virtual orbitals shifted by    0.09667

 ITERATION  ENERGY          1e-ENERGY        2e-ENERGY     RMS[dD(SAO)]   TOL
  50  -4376.5262105565    -25356.010177     11245.329649    0.448D-06 0.107D-13
                            Exc = -485.266609224     Coul =  11730.5962584    
                              N = 503.99916173    
                            current damping = 0.050
 
          Norm of current diis error: 0.34366E-03
          max. resid. norm for Fia-block=  5.489D-05 for orbital    251a         
          max. resid. fock norm         =  5.778D-05 for orbital    254a         
          irrep a   : virtual orbitals shifted by    0.09695
          mo-orthogonalization: Cholesky decomposition

 ITERATION  ENERGY          1e-ENERGY        2e-ENERGY     RMS[dD(SAO)]   TOL
  51  -4376.5262107229    -25356.009941     11245.329413    0.422D-06 0.107D-13
                            Exc = -485.266605264     Coul =  11730.5960178    
                              N = 503.99916173    
                            current damping = 0.100
 
          Norm of current diis error: 0.33819E-03
          max. resid. norm for Fia-block=  5.287D-05 for orbital    251a         
          max. resid. fock norm         =  5.514D-05 for orbital    254a         
          irrep a   : virtual orbitals shifted by    0.09681

 ITERATION  ENERGY          1e-ENERGY        2e-ENERGY     RMS[dD(SAO)]   TOL
  52  -4376.5262108714    -25356.010881     11245.330352    0.396D-06 0.107D-13
                            Exc = -485.266619050     Coul =  11730.5969710    
                              N = 503.99916172    
                            current damping = 0.150
 
          Norm of current diis error: 0.30373E-03
          max. resid. norm for Fia-block=  4.863D-05 for orbital    251a         
          max. resid. fock norm         =  5.111D-05 for orbital    254a         
          irrep a   : virtual orbitals shifted by    0.09665

 ITERATION  ENERGY          1e-ENERGY        2e-ENERGY     RMS[dD(SAO)]   TOL
  53  -4376.5262110011    -25356.010720     11245.330191    0.372D-06 0.107D-13
                            Exc = -485.266612402     Coul =  11730.5968035    
                              N = 503.99916171    
                            current damping = 0.200
 
          Norm of current diis error: 0.28434E-03
          max. resid. norm for Fia-block=  4.614D-05 for orbital    251a         
          max. resid. fock norm         =  4.850D-05 for orbital    254a         
          irrep a   : virtual orbitals shifted by    0.09650

 ITERATION  ENERGY          1e-ENERGY        2e-ENERGY     RMS[dD(SAO)]   TOL
  54  -4376.5262111159    -25356.011036     11245.330507    0.348D-06 0.107D-13
                            Exc = -485.266631176     Coul =  11730.5971384    
                              N = 503.99916171    
                            current damping = 0.250
 
          Norm of current diis error: 0.26861E-03
          max. resid. norm for Fia-block=  4.375D-05 for orbital    251a         
          max. resid. fock norm         =  4.579D-05 for orbital    254a         
          irrep a   : virtual orbitals shifted by    0.09635

 ITERATION  ENERGY          1e-ENERGY        2e-ENERGY     RMS[dD(SAO)]   TOL
  55  -4376.5262112176    -25356.011439     11245.330911    0.328D-06 0.107D-13
                            Exc = -485.266620475     Coul =  11730.5975310    
                              N = 503.99916170    
                            current damping = 0.100
 
          Norm of current diis error: 0.24556E-03
          max. resid. norm for Fia-block=  4.035D-05 for orbital    251a         
          max. resid. fock norm         =  4.281D-05 for orbital    254a         
          irrep a   : virtual orbitals shifted by    0.09678
          mo-orthogonalization: Cholesky decomposition

 ITERATION  ENERGY          1e-ENERGY        2e-ENERGY     RMS[dD(SAO)]   TOL
  56  -4376.5262113066    -25356.011338     11245.330809    0.309D-06 0.107D-13
                            Exc = -485.266638659     Coul =  11730.5974481    
                              N = 503.99916170    
                            current damping = 0.150
 
          Norm of current diis error: 0.24957E-03
          max. resid. norm for Fia-block=  3.911D-05 for orbital    251a         
          max. resid. fock norm         =  4.110D-05 for orbital    254a         
          irrep a   : virtual orbitals shifted by    0.09664

 ITERATION  ENERGY          1e-ENERGY        2e-ENERGY     RMS[dD(SAO)]   TOL
  57  -4376.5262113872    -25356.011696     11245.331166    0.292D-06 0.107D-13
                            Exc = -485.266630348     Coul =  11730.5977967    
                              N = 503.99916169    
                            current damping = 0.200
 
          Norm of current diis error: 0.22288E-03
          max. resid. norm for Fia-block=  3.634D-05 for orbital    251a         
          max. resid. fock norm         =  3.813D-05 for orbital    254a         
          irrep a   : virtual orbitals shifted by    0.09648

 ITERATION  ENERGY          1e-ENERGY        2e-ENERGY     RMS[dD(SAO)]   TOL
  58  -4376.5262114575    -25356.011975     11245.331446    0.273D-06 0.107D-13
                            Exc = -485.266638929     Coul =  11730.5980851    
                              N = 503.99916168    
                            current damping = 0.050
 
          Norm of current diis error: 0.20473E-03
          max. resid. norm for Fia-block=  3.370D-05 for orbital    251a         
          max. resid. fock norm         =  3.588D-05 for orbital    254a         
          irrep a   : virtual orbitals shifted by    0.09692

 ITERATION  ENERGY          1e-ENERGY        2e-ENERGY     RMS[dD(SAO)]   TOL
  59  -4376.5262115191    -25356.011778     11245.331248    0.258D-06 0.107D-13
                            Exc = -485.266637607     Coul =  11730.5978858    
                              N = 503.99916168    
                            current damping = 0.100
 
          Norm of current diis error: 0.20973E-03
          max. resid. norm for Fia-block=  3.289D-05 for orbital    251a         
          max. resid. fock norm         =  3.457D-05 for orbital    254a         
          irrep a   : virtual orbitals shifted by    0.09677

 ITERATION  ENERGY          1e-ENERGY        2e-ENERGY     RMS[dD(SAO)]   TOL
  60  -4376.5262115753    -25356.012303     11245.331773    0.244D-06 0.107D-13
                            Exc = -485.266644369     Coul =  11730.5984175    
                              N = 503.99916167    
                            current damping = 0.150
 
          Norm of current diis error: 0.18574E-03
          max. resid. norm for Fia-block=  3.022D-05 for orbital    251a         
          max. resid. fock norm         =  3.191D-05 for orbital    254a         
          irrep a   : virtual orbitals shifted by    0.09662
          mo-orthogonalization: Cholesky decomposition

 ITERATION  ENERGY          1e-ENERGY        2e-ENERGY     RMS[dD(SAO)]   TOL
  61  -4376.5262116240    -25356.012289     11245.331759    0.229D-06 0.107D-13
                            Exc = -485.266642022     Coul =  11730.5984012    
                              N = 503.99916167    
                            current damping = 0.200
 
          Norm of current diis error: 0.17106E-03
          max. resid. norm for Fia-block=  2.849D-05 for orbital    251a         
          max. resid. fock norm         =  3.034D-05 for orbital    254a         
          irrep a   : virtual orbitals shifted by    0.09647

 ITERATION  ENERGY          1e-ENERGY        2e-ENERGY     RMS[dD(SAO)]   TOL
  62  -4376.5262116671    -25356.012434     11245.331905    0.214D-06 0.107D-13
                            Exc = -485.266652764     Coul =  11730.5985576    
                              N = 503.99916167    
                            current damping = 0.250
 
          Norm of current diis error: 0.16911E-03
          max. resid. norm for Fia-block=  2.725D-05 for orbital    251a         
          max. resid. fock norm         =  2.886D-05 for orbital    254a         
          irrep a   : virtual orbitals shifted by    0.09632

 ITERATION  ENERGY          1e-ENERGY        2e-ENERGY     RMS[dD(SAO)]   TOL
  63  -4376.5262117059    -25356.012622     11245.332093    0.202D-06 0.107D-13
                            Exc = -485.266645656     Coul =  11730.5987384    
                              N = 503.99916166    
                            current damping = 0.100
 
          Norm of current diis error: 0.15051E-03
          max. resid. norm for Fia-block=  2.506D-05 for orbital    251a         
          max. resid. fock norm         =  2.673D-05 for orbital    254a         
          irrep a   : virtual orbitals shifted by    0.09676

 ITERATION  ENERGY          1e-ENERGY        2e-ENERGY     RMS[dD(SAO)]   TOL
  64  -4376.5262117394    -25356.012640     11245.332110    0.191D-06 0.107D-13
                            Exc = -485.266657095     Coul =  11730.5987673    
                              N = 503.99916166    
                            current damping = 0.050
 
          Norm of current diis error: 0.15071E-03
          max. resid. norm for Fia-block=  2.428D-05 for orbital    251a         
          max. resid. fock norm         =  2.576D-05 for orbital    254a         
          irrep a   : virtual orbitals shifted by    0.09691

 ITERATION  ENERGY          1e-ENERGY        2e-ENERGY     RMS[dD(SAO)]   TOL
  65  -4376.5262117700    -25356.012811     11245.332281    0.180D-06 0.107D-13
                            Exc = -485.266650783     Coul =  11730.5989319    
                              N = 503.99916166    
                            current damping = 0.050
 
          Norm of current diis error: 0.14286E-03
          max. resid. norm for Fia-block=  2.271D-05 for orbital    251a         
          max. resid. fock norm         =  2.415D-05 for orbital    254a         
          irrep a   : virtual orbitals shifted by    0.09690
          mo-orthogonalization: Cholesky decomposition

 ITERATION  ENERGY          1e-ENERGY        2e-ENERGY     RMS[dD(SAO)]   TOL
  66  -4376.5262117969    -25356.012943     11245.332414    0.170D-06 0.107D-13
                            Exc = -485.266655009     Coul =  11730.5990687    
                              N = 503.99916166    
                            current damping = 0.050
 
          Norm of current diis error: 0.12871E-03
          max. resid. norm for Fia-block=  2.097D-05 for orbital    251a         
          max. resid. fock norm         =  2.258D-05 for orbital    254a         
          irrep a   : virtual orbitals shifted by    0.09690

 ITERATION  ENERGY          1e-ENERGY        2e-ENERGY     RMS[dD(SAO)]   TOL
  67  -4376.5262118206    -25356.012909     11245.332379    0.160D-06 0.107D-13
                            Exc = -485.266658418     Coul =  11730.5990377    
                              N = 503.99916165    
                            current damping = 0.100
 
          Norm of current diis error: 0.12688E-03
          max. resid. norm for Fia-block=  2.038D-05 for orbital    251a         
          max. resid. fock norm         =  2.165D-05 for orbital    254a         
          irrep a   : virtual orbitals shifted by    0.09675

 ITERATION  ENERGY          1e-ENERGY        2e-ENERGY     RMS[dD(SAO)]   TOL
  68  -4376.5262118418    -25356.013149     11245.332619    0.151D-06 0.107D-13
                            Exc = -485.266659945     Coul =  11730.5992794    
                              N = 503.99916165    
                            current damping = 0.150
 
          Norm of current diis error: 0.11516E-03
          max. resid. norm for Fia-block=  1.889D-05 for orbital    251a         
          max. resid. fock norm         =  2.020D-05 for orbital    254a         
          irrep a   : virtual orbitals shifted by    0.09660

 ITERATION  ENERGY          1e-ENERGY        2e-ENERGY     RMS[dD(SAO)]   TOL
  69  -4376.5262118604    -25356.013130     11245.332600    0.142D-06 0.107D-13
                            Exc = -485.266655317     Coul =  11730.5992555    
                              N = 503.99916165    
                            current damping = 0.200
 
          Norm of current diis error: 0.10712E-03
          max. resid. norm for Fia-block=  1.769D-05 for orbital    251a         
          max. resid. fock norm         =  1.914D-05 for orbital    254a         
          irrep a   : virtual orbitals shifted by    0.09645

 ITERATION  ENERGY          1e-ENERGY        2e-ENERGY     RMS[dD(SAO)]   TOL
  70  -4376.5262118772    -25356.013251     11245.332721    0.133D-06 0.107D-13
                            Exc = -485.266666794     Coul =  11730.5993882    
                              N = 503.99916165    
                            current damping = 0.250
 
          Norm of current diis error: 0.10416E-03
          max. resid. norm for Fia-block=  1.698D-05 for orbital    251a         
          max. resid. fock norm         =  1.816D-05 for orbital    254a         
          irrep a   : virtual orbitals shifted by    0.09630
          mo-orthogonalization: Cholesky decomposition

 ITERATION  ENERGY          1e-ENERGY        2e-ENERGY     RMS[dD(SAO)]   TOL
  71  -4376.5262118920    -25356.013338     11245.332808    0.126D-06 0.107D-13
                            Exc = -485.266661440     Coul =  11730.5994696    
                              N = 503.99916165    
                            current damping = 0.100
 
          Norm of current diis error: 0.93931E-04
          max. resid. norm for Fia-block=  1.577D-05 for orbital    251a         
          max. resid. fock norm         =  1.697D-05 for orbital    254a         
          irrep a   : virtual orbitals shifted by    0.09674

 ITERATION  ENERGY          1e-ENERGY        2e-ENERGY     RMS[dD(SAO)]   TOL
  72  -4376.5262119050    -25356.013351     11245.332822    0.119D-06 0.107D-13
                            Exc = -485.266663380     Coul =  11730.5994852    
                              N = 503.99916164    
                            current damping = 0.050
 
          Norm of current diis error: 0.94094E-04
          max. resid. norm for Fia-block=  1.500D-05 for orbital    251a         
          max. resid. fock norm         =  1.622D-05 for orbital    254a         
          irrep a   : virtual orbitals shifted by    0.09689

 ITERATION  ENERGY          1e-ENERGY        2e-ENERGY     RMS[dD(SAO)]   TOL
  73  -4376.5262119167    -25356.013446     11245.332917    0.112D-06 0.107D-13
                            Exc = -485.266665661     Coul =  11730.5995825    
                              N = 503.99916164    
                            current damping = 0.050
 
          Norm of current diis error: 0.87496E-04
          max. resid. norm for Fia-block=  1.416D-05 for orbital    251a         
          max. resid. fock norm         =  1.524D-05 for orbital    254a         
          irrep a   : virtual orbitals shifted by    0.09689

 ITERATION  ENERGY          1e-ENERGY        2e-ENERGY     RMS[dD(SAO)]   TOL
  74  -4376.5262119272    -25356.013518     11245.332988    0.106D-06 0.107D-13
                            Exc = -485.266667372     Coul =  11730.5996555    
                              N = 503.99916164    
                            current damping = 0.050
 
          Norm of current diis error: 0.79794E-04
          max. resid. norm for Fia-block=  1.322D-05 for orbital    251a         
          max. resid. fock norm         =  1.433D-05 for orbital    254a         
          irrep a   : virtual orbitals shifted by    0.09689

 DENSITY CONVERGED !


 ITERATION  ENERGY          1e-ENERGY        2e-ENERGY     RMS[dD(SAO)]   TOL
  75  -4376.5262119362    -25356.013505     11245.332975    0.993D-07 0.107D-13
                            Exc = -485.266663714     Coul =  11730.5996388    
                              N = 503.99916164    
                            current damping = 0.100
 
          Norm of current diis error: 0.78645E-04
          max. resid. norm for Fia-block=  1.263D-05 for orbital    251a         
          max. resid. fock norm         =  1.369D-05 for orbital    254a         
          irrep a   : virtual orbitals shifted by    0.09674
          mo-orthogonalization: Cholesky decomposition

 DENSITY CONVERGED !


 ITERATION  ENERGY          1e-ENERGY        2e-ENERGY     RMS[dD(SAO)]   TOL
  76  -4376.5262119446    -25356.013642     11245.333113    0.938D-07 0.107D-13
                            Exc = -485.266670642     Coul =  11730.5997833    
                              N = 503.99916164    
                            current damping = 0.150
 
          Norm of current diis error: 0.71981E-04
          max. resid. norm for Fia-block=  1.181D-05 for orbital    251a         
          max. resid. fock norm         =  1.281D-05 for orbital    254a         
          irrep a   : virtual orbitals shifted by    0.09659

 DENSITY CONVERGED !


 ITERATION  ENERGY          1e-ENERGY        2e-ENERGY     RMS[dD(SAO)]   TOL
  77  -4376.5262119519    -25356.013623     11245.333094    0.885D-07 0.107D-13
                            Exc = -485.266667520     Coul =  11730.5997613    
                              N = 503.99916164    
                            current damping = 0.200
 
          Norm of current diis error: 0.66317E-04
          max. resid. norm for Fia-block=  1.114D-05 for orbital    251a         
          max. resid. fock norm         =  1.213D-05 for orbital    254a         
          irrep a   : virtual orbitals shifted by    0.09644

 DENSITY CONVERGED !


 ITERATION  ENERGY          1e-ENERGY        2e-ENERGY     RMS[dD(SAO)]   TOL
  78  -4376.5262119583    -25356.013708     11245.333178    0.829D-07 0.107D-13
                            Exc = -485.266670198     Coul =  11730.5998487    
                              N = 503.99916164    
                            current damping = 0.250
 
          Norm of current diis error: 0.64669E-04
          max. resid. norm for Fia-block=  1.059D-05 for orbital    251a         
          max. resid. fock norm         =  1.152D-05 for orbital    254a         
          irrep a   : virtual orbitals shifted by    0.09629

 DENSITY CONVERGED !


 ITERATION  ENERGY          1e-ENERGY        2e-ENERGY     RMS[dD(SAO)]   TOL
  79  -4376.5262119641    -25356.013747     11245.333217    0.787D-07 0.107D-13
                            Exc = -485.266670138     Coul =  11730.5998876    
                              N = 503.99916163    
                            current damping = 0.100
 
          Norm of current diis error: 0.58880E-04
          max. resid. norm for Fia-block=  9.859D-06 for orbital    251a         
          max. resid. fock norm         =  1.078D-05 for orbital    254a         
          irrep a   : virtual orbitals shifted by    0.09674

 DENSITY CONVERGED !


 ITERATION  ENERGY          1e-ENERGY        2e-ENERGY     RMS[dD(SAO)]   TOL
  80  -4376.5262119692    -25356.013746     11245.333216    0.744D-07 0.107D-13
                            Exc = -485.266672007     Coul =  11730.5998881    
                              N = 503.99916163    
                            current damping = 0.150
 
          Norm of current diis error: 0.57759E-04
          max. resid. norm for Fia-block=  9.450D-06 for orbital    251a         
          max. resid. fock norm         =  1.030D-05 for orbital    254a         
          irrep a   : virtual orbitals shifted by    0.09659
          mo-orthogonalization: Cholesky decomposition

 DENSITY CONVERGED !


 ITERATION  ENERGY          1e-ENERGY        2e-ENERGY     RMS[dD(SAO)]   TOL
  81  -4376.5262119738    -25356.013830     11245.333300    0.700D-07 0.107D-13
                            Exc = -485.266670500     Coul =  11730.5999706    
                              N = 503.99916163    
                            current damping = 0.200
 
          Norm of current diis error: 0.53127E-04
          max. resid. norm for Fia-block=  8.828D-06 for orbital    251a         
          max. resid. fock norm         =  9.663D-06 for orbital    254a         
          irrep a   : virtual orbitals shifted by    0.09644

 DENSITY CONVERGED !


 ITERATION  ENERGY          1e-ENERGY        2e-ENERGY     RMS[dD(SAO)]   TOL
  82  -4376.5262119778    -25356.013843     11245.333313    0.660D-07 0.107D-13
                            Exc = -485.266673488     Coul =  11730.5999864    
                              N = 503.99916163    
                            current damping = 0.050
 
          Norm of current diis error: 0.48973E-04
          max. resid. norm for Fia-block=  8.284D-06 for orbital    251a         
          max. resid. fock norm         =  9.113D-06 for orbital    254a         
          irrep a   : virtual orbitals shifted by    0.09688

 DENSITY CONVERGED !


 ITERATION  ENERGY          1e-ENERGY        2e-ENERGY     RMS[dD(SAO)]   TOL
  83  -4376.5262119814    -25356.013838     11245.333308    0.624D-07 0.107D-13
                            Exc = -485.266671228     Coul =  11730.5999794    
                              N = 503.99916163    
                            current damping = 0.100
 
          Norm of current diis error: 0.49932E-04
          max. resid. norm for Fia-block=  8.009D-06 for orbital    251a         
          max. resid. fock norm         =  8.763D-06 for orbital    254a         
          irrep a   : virtual orbitals shifted by    0.09673

 DENSITY CONVERGED !


 ITERATION  ENERGY          1e-ENERGY        2e-ENERGY     RMS[dD(SAO)]   TOL
  84  -4376.5262119846    -25356.013947     11245.333418    0.591D-07 0.107D-13
                            Exc = -485.266674203     Coul =  11730.6000918    
                              N = 503.99916163    
                            current damping = 0.150
 
          Norm of current diis error: 0.45162E-04
          max. resid. norm for Fia-block=  7.399D-06 for orbital    251a         
          max. resid. fock norm         =  8.149D-06 for orbital    254a         
          irrep a   : virtual orbitals shifted by    0.09658

 DENSITY CONVERGED !


 ITERATION  ENERGY          1e-ENERGY        2e-ENERGY     RMS[dD(SAO)]   TOL
  85  -4376.5262119876    -25356.013898     11245.333368    0.559D-07 0.107D-13
                            Exc = -485.266673560     Coul =  11730.6000420    
                              N = 503.99916163    
                            current damping = 0.200
 
          Norm of current diis error: 0.40858E-04
          max. resid. norm for Fia-block=  7.009D-06 for orbital    251a         
          max. resid. fock norm         =  7.719D-06 for orbital    254a         
          irrep a   : virtual orbitals shifted by    0.09643
          mo-orthogonalization: Cholesky decomposition

 DENSITY CONVERGED !


 ITERATION  ENERGY          1e-ENERGY        2e-ENERGY     RMS[dD(SAO)]   TOL
  86  -4376.5262119901    -25356.013973     11245.333443    0.522D-07 0.107D-13
                            Exc = -485.266674648     Coul =  11730.6001177    
                              N = 503.99916163    
                            current damping = 0.250
 
          Norm of current diis error: 0.40933E-04
          max. resid. norm for Fia-block=  6.713D-06 for orbital    251a         
          max. resid. fock norm         =  7.390D-06 for orbital    254a         
          irrep a   : virtual orbitals shifted by    0.09629

 DENSITY CONVERGED !


 ITERATION  ENERGY          1e-ENERGY        2e-ENERGY     RMS[dD(SAO)]   TOL
  87  -4376.5262119924    -25356.014006     11245.333476    0.497D-07 0.107D-13
                            Exc = -485.266674346     Coul =  11730.6001507    
                              N = 503.99916163    
                            current damping = 0.100
 
          Norm of current diis error: 0.37061E-04
          max. resid. norm for Fia-block=  6.179D-06 for orbital    251a         
          max. resid. fock norm         =  6.878D-06 for orbital    254a         
          irrep a   : virtual orbitals shifted by    0.09673

 DENSITY CONVERGED !


 ITERATION  ENERGY          1e-ENERGY        2e-ENERGY     RMS[dD(SAO)]   TOL
  88  -4376.5262119943    -25356.013963     11245.333433    0.471D-07 0.107D-13
                            Exc = -485.266676203     Coul =  11730.6001091    
                              N = 503.99916163    
                            current damping = 0.150
 
          Norm of current diis error: 0.35611E-04
          max. resid. norm for Fia-block=  6.004D-06 for orbital    251a         
          max. resid. fock norm         =  6.594D-06 for orbital    254a         
          irrep a   : virtual orbitals shifted by    0.09658

 DENSITY CONVERGED !


 ITERATION  ENERGY          1e-ENERGY        2e-ENERGY     RMS[dD(SAO)]   TOL
  89  -4376.5262119959    -25356.014057     11245.333527    0.443D-07 0.107D-13
                            Exc = -485.266674447     Coul =  11730.6002013    
                              N = 503.99916163    
                            current damping = 0.200
 
          Norm of current diis error: 0.33831E-04
          max. resid. norm for Fia-block=  5.594D-06 for orbital    251a         
          max. resid. fock norm         =  6.220D-06 for orbital    254a         
          irrep a   : virtual orbitals shifted by    0.09643

 ENERGY & DENSITY CONVERGED !


 ITERATION  ENERGY          1e-ENERGY        2e-ENERGY     RMS[dD(SAO)]   TOL
  90  -4376.5244904365    -25356.014060     11245.335252    0.418D-07 0.107D-13
                            Exc = -485.264954925     Coul =  11730.6002065    
                              N = 504.00002606    
                            current damping = 0.050
 
          Norm of current diis error: 0.31167E-04
          max. resid. norm for Fia-block=  5.293D-06 for orbital    251a         
          max. resid. fock norm         =  5.902D-06 for orbital    254a         

 End of SCF iterations

   convergence criteria satisfied after   90 iterations


                  ------------------------------------------ 
                 |  total energy      =  -4376.52449043647  |
                  ------------------------------------------ 
                 :  kinetic energy    =   4356.81562546665  :
                 :  potential energy  =  -8733.34011590313  :
                 :  virial theorem    =      1.99549668578  :
                 :  wavefunction norm =      1.00000000000  :
                  .......................................... 


 <geterg> : there is no data group $energy 


 <skperg> : $end is missing 


 orbitals $scfmo  will be written to file mos

    irrep                248a        249a        250a        251a        252a   
 eigenvalues H         -0.16377    -0.16316    -0.16315    -0.16248    -0.16240
            eV          -4.4564     -4.4397     -4.4397     -4.4213     -4.4192
 occupation              2.0000      2.0000      2.0000      2.0000      2.0000 

    irrep                253a        254a        255a        256a        257a   
 eigenvalues H         -0.15943    -0.15887    -0.14199    -0.14070    -0.11199
            eV          -4.3382     -4.3230     -3.8638     -3.8287     -3.0474
 
 
 ! grave: sending quit signal to master process
 
 
 
 
 ==============================================================================
                           electrostatic moments
 ==============================================================================

 reference point for electrostatic moments:    0.00000   0.00000   0.00000

 
              nuc           elec       ->  total
 ------------------------------------------------------------------------------
                          charge      
 ------------------------------------------------------------------------------
         504.000000    -504.000000      -0.000000
 
 ------------------------------------------------------------------------------
                       dipole moment  
 ------------------------------------------------------------------------------
   x      -1.807814       1.840681       0.032866
   y      -1.503216       1.589749       0.086533
   z      -0.261089       0.291430       0.030342
 
   | dipole moment | =     0.0974 a.u. =     0.2476 debye 
 
 ------------------------------------------------------------------------------
                     quadrupole moment
 ------------------------------------------------------------------------------
  xx    7214.522149   -7489.256726    -274.734577
  yy   20644.556164  -21050.725918    -406.169754
  zz   81335.570017  -82006.219528    -670.649512
  xy    7010.487189   -6972.665071      37.822118
  xz   -8687.960602    8498.679036    -189.281566
  yz  -16838.017747   17020.124283     182.106536
 
     1/3  trace=    -450.517948
     anisotropy=     577.277346
 
 ==============================================================================
 

    ridft profiling
  --------------------------------------------------------------------
             module   cpu total (s)       %  wall total (s)       %

               RIDFT         13127.8  100.00         13211.2  100.00
         Ridft_b_scf           144.9    1.10           145.0    1.10
        b_scf_prelim             0.0    0.00             0.0    0.00
        b_scf_molinp             0.0    0.00             0.0    0.00
         b_scf_init0             0.0    0.00             0.0    0.00
        b_scf_auxbas             0.0    0.00             0.0    0.00
      b_scf_symmetry             0.0    0.00             0.0    0.00
         b_scf_cosmo             0.0    0.00             0.0    0.00
        b_scf_params             3.1    0.02             3.1    0.02
          b_scf_ri-j            92.5    0.70            92.5    0.70
    b_scf_ri-j_auxpq            92.4    0.70            92.5    0.70
     ri-j_auxpq_chol             8.1    0.06             8.1    0.06
         b_scf_1elec             2.5    0.02             2.5    0.02
       b_scf_moinput            46.8    0.36            46.8    0.35
     moinput_orthmos            46.0    0.35            46.0    0.35
    b_scf_dft-dstmax             0.0    0.00             0.0    0.00
           Ridft_scf         12981.6   98.89         13064.9   98.89
          Scf_b_loop             0.0    0.00             0.0    0.00
                noga             0.0    0.00             0.0    0.00
            Scf_loop         12976.7   98.85         13059.1   98.85
     scf_loop_mkdmat            83.0    0.63            83.2    0.63
       scf_loop_ri-j          1809.2   13.78          1809.2   13.69
      parlp1.bc.dens             7.1    0.05             7.1    0.05
        parlp1.gs.gp            32.5    0.25            32.5    0.25
        parlp2.bc.gq             0.0    0.00             0.0    0.00
        scf_loop_dft          8364.0   63.71          8367.9   63.34
      pardft.bc.dens             0.0    0.00             0.0    0.00
        dft_grid_con             7.7    0.06             7.7    0.06
          dft_xcmrhf          8221.0   62.62          8225.0   62.26
          dft_getval           189.0    1.44           189.1    1.43
          funct2 dst             5.8    0.04             6.0    0.05
      funct2 f2loop1            37.3    0.28            37.2    0.28
      funct2 f2loop2            99.8    0.76           100.5    0.76
          funct2 s+c            41.4    0.32            40.8    0.31
        funct2 cmf_2            35.3    0.27            34.7    0.26
          dft_mkdens          3792.6   28.89          3794.8   28.72
        dft_mgga-fun             9.8    0.07             9.8    0.07
          dft_mkfock          4224.4   32.18          4226.4   31.99
     pardft.red.fock           272.4    2.07           272.5    2.06
     scf_loop_energy             0.6    0.00             0.6    0.00
     scf_loop_mkfock             0.8    0.01             0.8    0.01
       scf_loop_diis          1358.7   10.35          1358.6   10.28
       scf_loop_diag           708.8    5.40           709.2    5.37
         diag_tritrn           230.6    1.76           230.9    1.75
          diag_rdiag           474.8    3.62           475.0    3.60
     scf_loop_modump           404.4    3.08           482.4    3.65
      scf_loop_ortho           233.7    1.78           233.7    1.77
          Scf_a_loop             4.9    0.04             5.7    0.04
         Ridft_a_scf             1.3    0.01             1.3    0.01
         a_scf_fanal             1.2    0.01             1.3    0.01
 


    ------------------------------------------------------------------------
         total  cpu-time :  3 hours 38 minutes and 54 seconds
         total wall-time :  3 hours 40 minutes and 17 seconds
    ------------------------------------------------------------------------


   ****  ridft : all done  ****


    2017-11-08 02:20:21.625 

