Using OpenMPI from /sopt/mpi/openmpi-1.8.6/intel_15.0.3/bin/mpiexec
STARTING ridft ON 8 PROCESSORS!
RUNNING PROGRAM /beegfs/modfac/apps/TURBOMOLE/7.0_intel/bin/em64t-unknown-linux-gnu_mpi/ridft_mpi.
PLEASE WAIT UNTIL ridft HAS FINISHED.
Look for the output in slave1.output.
  this is node-proc. number 1 running on node c-7-15.local
  the total number of node-proc. spawned is            7
  parallel platform: MPP, or cluster with fast interconnect

 ridft (c-7-15.local) : TURBOMOLE V7.0( ) 6 Jul 2015 at 19:34:44
 Copyright (C) 2015 TURBOMOLE GmbH, Karlsruhe


    2017-11-09 10:35:57.054 



                                  r i d f t

                        DFT program with RI approximation 
                                for coulomb part 




                                                 
                                 References:     
                                                 
          TURBOMOLE:                             
              R. Ahlrichs, M. Baer, M. Haeser, H. Horn, and
              C. Koelmel
              Electronic structure calculations on workstation
              computers: the program system TURBOMOLE
              Chem. Phys. Lett. 162: 165 (1989)
          Density Functional:                              
              O. Treutler and R. Ahlrichs                      
              Efficient Molecular Numerical Integration Schemes
              J. Chem. Phys. 102: 346 (1995)                   
          Parallel Version:                                
              Performance of parallel TURBOMOLE for Density    
              Functional Calculations                          
              M. v. Arnim and R. Ahlrichs                      
              J. Comp. Chem. 19: 1746 (1998)                   
          RI-J Method:                                     
              Auxiliary Basis Sets to approximate Coulomb      
              Potentials                                       
              Chem. Phys. Lett. 240: 283 (1995)                
              K. Eichkorn, O. Treutler, H. Oehm, M. Haeser     
              and R. Ahlrichs                                  
              Chem. Phys. Lett. 242: 652 (1995)                
                                                           
              Auxiliary Basis Sets for Main Row Atoms and their
              Use to approximate Coulomb Potentials            
              K. Eichkorn, F. Weigend, O. Treutler and         
              R. Ahlrichs                                      
              Theo. Chem. Acc. 97: 119 (1997)                   
                                                           
              Accurate Coulomb-fitting basis sets for H to Rn 
              F. Weigend                                        
              Phys. Chem. Chem. Phys. 8: 1057 (2006)            
                                                           
          Multipole accelerated RI-J (MARI-J):             
              Fast evaluation of the Coulomb potential for     
              electron densities using multipole accelerated   
              resolution of identity approximation             
              M. Sierka, A. Hogekamp and R. Ahlrichs           
              J. Chem. Phys. 118: 9136 (2003)                  
          RI-JK Method:                                     
              A fully direct RI-HF algorithm: Implementation,
              optimised auxiliary basis sets, demonstration of
              accuracy and efficiency                         
              F. Weigend                                      
              Phys. Chem. Chem. Phys. 4: 4285 (2002)           
          Two-component HF and DFT with spin-orbit coupling:  
              Self-consistent treatment of spin-orbit         
              interactions with efficient Hartree-Fock and    
              density functional methods                      
              M. K. Armbruster, F. Weigend, C. van Wüllen and 
              W. Klopper                                      
              Phys. Chem. Chem. Phys. 10: 1748 (2008)         
          Relativistic all-electron 2c calculations           
              An efficient implementation of two-component    
              relativistic exact-decoupling methods for large 
              molecules                                       
              D. Peng, N. Middendorf, F. Weigend, M. Reiher   
              J. Chem. Phys. 138, 184105 (2013)               
                                         


 


              +--------------------------------------------------+
              |      general information about current run       |
              +--------------------------------------------------+

 

 SCF run will be profiled !


 DENSITY CONVERGENCE CHECK SWITCHED ON !
 SCF CONVERGENCE IF RMS(delta[D]) <     0.1000000000E-06

 PBE functional
 exchange:    LDA + PBE
 correlation: LDA (PW) + PBE
 A DFT calculation using the RI-J approximation will be carried out.
 Allocatable memory for RI due to $ricore (MB):       13000


              +--------------------------------------------------+
              | Atomic coordinate, charge and isotop information |
              +--------------------------------------------------+

                    atomic coordinates            atom    charge  isotop
          5.86996452   -0.78810254   -4.59530630    c      6.000     0
          7.20248184   -2.16823901   -6.37688640    c      6.000     0
          5.98856741   -4.55049025   -6.64348742    c      6.000     0
          3.94112508   -4.59330807   -5.01176180    c      6.000     0
          6.29749316    1.89636702   -3.66209586    c      6.000     0
          8.96057847    2.74243961   -4.56337073    c      6.000     0
          4.36827642    3.72189068   -4.75217594    c      6.000     0
          4.57209075    5.31103057   -6.82226676    c      6.000     0
          2.02585290   -6.66679486   -4.49609735    c      6.000     0
          2.15946136   -7.49993502   -1.68763425    c      6.000     0
          2.70692670   -8.97332811   -6.13283275    c      6.000     0
         -0.63200152   -5.82595866   -5.17165721    c      6.000     0
         -2.18946355   -6.59098894   -7.13295899    c      6.000     0
          3.89372151   -2.29167674   -3.78596449    n      7.000     0
          1.99611798    4.08040386   -3.73881470    n      7.000     0
         -1.95752617   -4.04736186   -3.79724206    n      7.000     0
         -3.88934083    4.63851548   -5.00129268    c      6.000     0
         -5.91655277    4.61016526   -6.65855596    c      6.000     0
         -7.13296347    2.22544997   -6.42853201    c      6.000     0
         -5.82189329    0.82984778   -4.64304708    c      6.000     0
         -1.98006398    6.70752328   -4.44654614    c      6.000     0
         -2.13941314    7.51253059   -1.63126705    c      6.000     0
         -2.64664291    9.03046599   -6.06599175    c      6.000     0
          0.68406046    5.87410079   -5.10627890    c      6.000     0
          2.26012976    6.65977074   -7.04443431    c      6.000     0
         -6.25980184   -1.86341403   -3.74009524    c      6.000     0
         -8.91395134   -2.69986271   -4.67609995    c      6.000     0
         -4.32008849   -3.67836241   -4.82929909    c      6.000     0
         -4.50374297   -5.24516385   -6.91821726    c      6.000     0
         -3.85582792    2.32586336   -3.79585483    n      7.000     0
          6.35509136    2.00987676   -0.79159774    c      6.000     0
          6.38393198    4.08213529    0.86217415    c      6.000     0
          6.84371750   -0.10058737    0.59846547    n      7.000     0
          6.93232982    3.14682126    3.31610643    c      6.000     0
          7.19371221    0.51967002    3.11306771    c      6.000     0
         -6.34652617   -2.00485465   -0.87169613    c      6.000     0
         -6.38973230   -4.09282910    0.76212349    c      6.000     0
         -6.85265460    0.09156322    0.53309720    n      7.000     0
         -6.96503741   -3.18148679    3.21880792    c      6.000     0
         -7.22828846   -0.55280643    3.03790760    c      6.000     0
          7.68599877   -1.36851565    5.01392803    c      6.000     0
         -7.74236889    1.31659318    4.95135086    c      6.000     0
          8.11603216   -1.00663997    7.25803698    o      8.000     0
         -8.19529203    0.93272071    7.18737116    o      8.000     0
          7.60789561   -3.76714504    3.97962708    o      8.000     0
         -7.65577469    3.72515327    3.94087855    o      8.000     0
         -8.03113817    5.75204028    5.73199356    c      6.000     0
          7.96242576   -5.81101951    5.75563576    c      6.000     0
         -7.30477860    8.19128579    4.41152112    c      6.000     0
          7.26184325   -8.23856142    4.40014961    c      6.000     0
         -7.19025594   -4.74458232    5.57157871    c      6.000     0
          7.13650369    4.68787794    5.68523712    c      6.000     0
          4.58600594    4.96070010    7.05613622    c      6.000     0
         -4.65394389   -5.02033524    6.96816596    c      6.000     0
         -5.92955308   -6.80699185    0.07893159    c      6.000     0
          5.93519977    6.80349282    0.20035783    c      6.000     0
          8.85164949   -1.53068757   -7.39867582    h      1.000     0
          6.55187314   -6.06026124   -7.89841260    h      1.000     0
          9.33024400    4.66681301   -3.91575986    h      1.000     0
          9.08001401    2.69659664   -6.62586834    h      1.000     0
         10.38969694    1.47242859   -3.78198419    h      1.000     0
          6.19978605    5.48822786   -8.04280279    h      1.000     0
          0.81560353   -9.04169106   -1.35719599    h      1.000     0
          1.71346587   -5.94894509   -0.40214217    h      1.000     0
          4.07120818   -8.17551841   -1.26458685    h      1.000     0
          2.67645418   -8.50587216   -8.14630039    h      1.000     0
          1.35288832  -10.49750305   -5.78774845    h      1.000     0
          4.60183273   -9.64301516   -5.64361998    h      1.000     0
         -1.71878451   -7.96606601   -8.56799749    h      1.000     0
          2.63838462   -1.84919387   -2.35954216    h      1.000     0
          1.29777653    3.19725815   -2.15368887    h      1.000     0
         -1.27563756   -3.18166148   -2.19525633    h      1.000     0
         -6.46427657    6.13091228   -7.90711540    h      1.000     0
         -8.76909980    1.59680151   -7.47645653    h      1.000     0
         -0.79918711    9.05132970   -1.27338991    h      1.000     0
         -1.70456878    5.94891166   -0.35731597    h      1.000     0
         -4.05515665    8.18337265   -1.21885510    h      1.000     0
         -2.59640498    8.58385089   -8.08380624    h      1.000     0
         -1.29680225   10.55162429   -5.69223925    h      1.000     0
         -4.54656696    9.69416258   -5.58824271    h      1.000     0
          1.80334213    8.05048751   -8.46884668    h      1.000     0
         -9.01288940   -2.63374126   -6.73913336    h      1.000     0
        -10.35040755   -1.43702280   -3.89654904    h      1.000     0
         -9.29055764   -4.63039482   -4.05120677    h      1.000     0
         -6.11969780   -5.40935952   -8.15603778    h      1.000     0
         -2.62015145    1.87042764   -2.35441224    h      1.000     0
          6.84377010   -1.88219370   -0.09515548    h      1.000     0
         -6.84897285    1.87950696   -0.14406925    h      1.000     0
         -6.86521845    5.38824141    7.40049927    h      1.000     0
        -10.01364555    5.75205802    6.33445922    h      1.000     0
          6.77101750   -5.46722414    7.41039772    h      1.000     0
          9.93573669   -5.81206673    6.38738499    h      1.000     0
         -5.31972216    8.14749809    3.83698402    h      1.000     0
         -7.58507625    9.79281031    5.69432847    h      1.000     0
         -8.46300115    8.49183526    2.72446370    h      1.000     0
          5.28546094   -8.19369293    3.79660748    h      1.000     0
          7.52704132   -9.85219789    5.67092503    h      1.000     0
          8.44584728   -8.51936469    2.72766080    h      1.000     0
         -7.90263773   -6.62539870    5.06055604    h      1.000     0
         -8.56688742   -3.87197527    6.84321450    h      1.000     0
          7.86134460    6.57057591    5.19899115    h      1.000     0
          8.49578883    3.79896247    6.96424046    h      1.000     0
          3.16091814    5.80012632    5.81408160    h      1.000     0
          4.77992924    6.15874131    8.73649835    h      1.000     0
          3.89335542    3.10974255    7.65139193    h      1.000     0
         -3.21203059   -5.84250685    5.73399798    h      1.000     0
         -4.86155366   -6.23481190    8.63502603    h      1.000     0
         -3.97505580   -3.17238356    7.58817529    h      1.000     0
         -6.03297554   -7.10472402   -1.96163377    h      1.000     0
         -7.31650740   -8.04446925    0.99699119    h      1.000     0
         -4.04745501   -7.42383875    0.69182890    h      1.000     0
          6.05165976    7.11906884   -1.83677978    h      1.000     0
          7.32003978    8.02906108    1.13752323    h      1.000     0
          4.05123182    7.41991947    0.80779657    h      1.000     0
          1.35323061   -1.83487764    8.35180463    c      0.000     0
          1.33432773   -1.84971329    5.72023982    c      0.000     0
         -0.05038535   -0.03022455    9.66981846    c      0.000     0
         -0.02339181   -0.01634270    4.38825803    c      0.000     0
         -1.44026825    1.78151055    8.34706624    c      0.000     0
         -1.39448303    1.81020133    5.71590596    c      0.000     0
         -0.01002541   -0.00957737    1.54688684    c      0.000     0
         -0.71244440    1.99678102    0.43861828    o      0.000     0
          0.70197594   -2.01005326    0.43554592    o      0.000     0
          2.45749504   -3.22647612    9.38068689    h      0.000     0
          2.37404005   -3.25582621    4.65113501    h      0.000     0
         -0.06095465   -0.03560796   11.72386454    h      0.000     0
         -2.55457623    3.16809886    9.37191360    h      0.000     0
         -2.42389050    3.22158305    4.64376839    h      0.000     0
 
       center of nuclear mass  :    0.00004784    0.00010488   -0.08608047
       center of nuclear charge:    0.00411081    0.00282273   -0.83473908

              +--------------------------------------------------+
              |               basis set information              |
              +--------------------------------------------------+

              we will work with the 1s 3p 5d 7f 9g ... basis set
              ...i.e. with spherical basis functions...

   type   atoms  prim   cont   basis
   ---------------------------------------------------------------------------
    c       53     50     30   cc-pVTZ   [4s3p2d1f|18s5p2d1f]
    n        6     50     30   cc-pVTZ   [4s3p2d1f|18s5p2d1f]
    o        6     50     30   cc-pVTZ   [4s3p2d1f|18s5p2d1f]
    h       63     16     14   cc-pVTZ   [3s2p1d|5s2p1d]
   ---------------------------------------------------------------------------
   total:  128   4258   2832
   ---------------------------------------------------------------------------

   total number of primitive shells          :   86
   total number of contracted shells         : 1028
   total number of cartesian basis functions : 3220
   total number of SCF-basis functions       : 2832


 integral neglect threshold       :  0.10E-13
 integral storage threshold THIZE :  0.10E-04
 integral storage threshold THIME :         5

 RI-J AUXILIARY BASIS SET information:

              we will work with the 1s 3p 5d 7f 9g ... basis set
              ...i.e. with spherical basis functions...

   type   atoms  prim   cont   basis
   ---------------------------------------------------------------------------
    c       53     70     49   cc-pVTZ   [6s4p3d1f1g|12s5p4d2f1g]
    n        6     70     49   cc-pVTZ   [6s4p3d1f1g|12s5p4d2f1g]
    o        6     70     49   cc-pVTZ   [6s4p3d1f1g|12s5p4d2f1g]
    h       63     16     11   cc-pVTZ   [3s1p1d|5s2p1d]
   ---------------------------------------------------------------------------
   total:  128   5558   3878
   ---------------------------------------------------------------------------

   total number of primitive shells          :   80
   total number of contracted shells         : 1290
   total number of cartesian basis functions : 4721
   total number of SCF-basis functions       : 3878


 symmetry group of the molecule :   c1 

 the group has the following generators :
   c1(z)

    1 symmetry operations found

 there are 1 real representations :   a   

 maximum number of shells which are related by symmetry :  1


    mo occupation :
   irrep   mo's   occupied
    a     2832      204
 
 number of basis functions   :         2832
 number of occupied orbitals :          204
 
  
           ------------------
           density functional
           ------------------
 Dummy atoms with grid-point found.
 DFT quadrature threshold dgrenze tightened by factor 1/10.

 PBE functional
 exchange:    LDA + PBE
 correlation: LDA (PW) + PBE
 Dummy atoms with grid-point found.
 DFT quadrature threshold dgrenze tightened by factor 1/10.

 Dummy atoms with grid-point found.
 DFT quadrature threshold dgrenze tightened by factor 1/10.

 grinp -> nfun, dfgga, dfhybrid 
           6 T F
 iterations will be done with small grid
  
 spherical integration : Lebedev's spherical grid
 spherical gridsize    :           5
    i.e. gridpoints    :         590
 value for diffuse not defined
 radial integration    : Chebyshev 2nd kind (scaling 3)
 radial gridsize       :           8
 integration cells     :         128
 partition function    : becke
 partition sharpness   :           3
  
 found dummy atom(s) with basis: included in dft

 <rddim> : input of entry tasksize
           from data group '$pardft' failed !

               Default values taken

 <rddim> : input of entry memdiv
           from data group '$pardft' failed !

               Default values taken
  RIDFT: memory allocation for DFT gridpoints
  MEMORY is divided by 1 as DEFAULT
 Each node can hold at most  the            1 -th part
 of the gridpoints    

 biggest AO integral is expected to be     4.866064444
  
           ------------------------
               RI-J - INFORMATION
           ------------------------
 
 
 **************************************************
 *      MEMORY ALLOCATION FOR PARALLEL RI-DFT     *
 **************************************************
 
 
MEMORY FOR (MU NU/ ALPHA), SEQUENTIAL RUN              12881 MByte
 
            DIFFERENCE IN MEMORY NEED:       DIAG./SLAVE  
 
      TOTAL DIFFERENCE :                    439 MByte
 
      difference in xcore:                  120 MByte
      difference in fatmat:                 118 MByte
      getcor calls skipped by slaves:       202 MByte
 
 
           Integral memory available for diagonal.     12881 MByte
 
           Integral memory available for slave             0 MByte
 
         MEMORY FOR (MU NU/ ALPHA) ON DIAGONALIZER     12881 MByte
 
         MEMORY FOR (MU NU/ ALPHA) ON ONE SLAVE            0 MByte
 
         TOTAL MEMORY FOR (MU NU/ ALPHA),ALL NODES     12881 MByte
 
 Contributions to RI integral batches: 
  neglected integral batches:      305349
  direct contribution:             133375
  memory contribution:       90182
 Memory core needed for (P|Q) and Cholesky    115 MByte
 Memory core minimum needed except of (P|Q)     8 MByte
 Total minimum memory core needed (sum)       123 MByte
     number of direct tasks:         140
  
 ****************************************
 Memory allocated for RI-J 13003 MByte
 ****************************************
                                            

          ------------------------
          nuclear repulsion energy  :   8459.68653631    
          ------------------------

 
          -----------------
          -S integrals
          -----------------

 1e-integrals will be neglected if expon. factor < 0.103788E-14
 
          -----------------
          -T+V integrals
          -----------------

 1e-integrals will be neglected if expon. factor < 0.103788E-14
 Difference densities >>NOT<< switched on in parallel ridft!

 automatic virtual orbital shift switched on 
      shift if e(lumo)-e(homo) < 0.10000000    


 DIIS switched on: error vector is FDS-SDF
 Max. Iterations for DIIS is     :   4
 DIIS matrix (see manual) 
    Scaling factor of diagonals  :  1.200
    threshold for scaling factor :  0.000

 scf convergence criterion : increment of total energy < .1000000D-08
                  and increment of one-electron energy < .1000000D-05


 <geterg> : there is no data group $energy 

  MOs are in ASCII format !


 reading orbital data $scfmo  from file mos . 

 orbital characterization : expanded
 
 mo provided and orthogonalized by Cholesky decomposition

 DSCF restart information will be dumped onto file mos


 Starting SCF iterations


 ITERATION  ENERGY          1e-ENERGY        2e-ENERGY     RMS[dD(SAO)]   TOL
   1  -2407.1044493559    -20040.127044     9173.3360586    0.000D+00 0.104D-13
                            Exc = -338.243800261     Coul =  9511.57985882    
                              N = 408.00143530    
                            current damping = 0.700
 
          max. resid. norm for Fia-block=  3.344D-01 for orbital      1a         
          max. resid. fock norm         =  8.978D+00 for orbital   2732a         

 ITERATION  ENERGY          1e-ENERGY        2e-ENERGY     RMS[dD(SAO)]   TOL
   2  -2413.4299759328    -20104.118722     9231.0022098    0.154D-02 0.104D-13
                            Exc = -341.708612745     Coul =  9572.71082253    
                              N = 408.00118953    
                            current damping = 0.650
 
          Norm of current diis error:  6.0339    
          max. resid. norm for Fia-block=  1.568D-01 for orbital      3a         
          max. resid. fock norm         =  3.265D-01 for orbital   2767a         

 ITERATION  ENERGY          1e-ENERGY        2e-ENERGY     RMS[dD(SAO)]   TOL
   3  -2414.5914726508    -20119.986667     9245.7086584    0.848D-03 0.104D-13
                            Exc = -343.410386507     Coul =  9589.11904493    
                              N = 408.00104936    
                            current damping = 0.550
 
          Norm of current diis error:  3.0518    
          max. resid. norm for Fia-block=  6.757D-02 for orbital    187a         
          max. resid. fock norm         =  6.957D-02 for orbital    187a         

 ITERATION  ENERGY          1e-ENERGY        2e-ENERGY     RMS[dD(SAO)]   TOL
   4  -2414.9746824750    -20130.270482     9255.6092635    0.638D-03 0.104D-13
                            Exc = -343.700846549     Coul =  9599.31011004    
                              N = 408.00098622    
                            current damping = 0.450
 
          Norm of current diis error:  1.2968    
          max. resid. norm for Fia-block=  5.243D-02 for orbital     66a         
          max. resid. fock norm         =  8.155D-02 for orbital   2707a         

 ITERATION  ENERGY          1e-ENERGY        2e-ENERGY     RMS[dD(SAO)]   TOL
   5  -2415.0240299392    -20132.432442     9257.7218757    0.291D-03 0.104D-13
                            Exc = -344.425737806     Coul =  9602.14761350    
                              N = 408.00093010    
                            current damping = 0.350
 
          Norm of current diis error: 0.87357    
          max. resid. norm for Fia-block=  2.657D-02 for orbital    191a         
          max. resid. fock norm         =  3.175D-02 for orbital    191a         
          mo-orthogonalization: Cholesky decomposition

 ITERATION  ENERGY          1e-ENERGY        2e-ENERGY     RMS[dD(SAO)]   TOL
   6  -2415.0551439871    -20137.419174     9262.6774935    0.229D-03 0.104D-13
                            Exc = -344.399335060     Coul =  9607.07682856    
                              N = 408.00092864    
                            current damping = 0.250
 
          Norm of current diis error: 0.41258    
          max. resid. norm for Fia-block=  1.362D-02 for orbital    189a         
          max. resid. fock norm         =  2.234D-02 for orbital   2702a         

 ITERATION  ENERGY          1e-ENERGY        2e-ENERGY     RMS[dD(SAO)]   TOL
   7  -2415.0591925089    -20133.973060     9259.2273316    0.968D-04 0.104D-13
                            Exc = -344.312968774     Coul =  9603.54030039    
                              N = 408.00091936    
                            current damping = 0.300
 
          Norm of current diis error: 0.29028    
          max. resid. norm for Fia-block=  6.046D-03 for orbital    189a         
          max. resid. fock norm         =  9.677D-03 for orbital   2770a         

 ITERATION  ENERGY          1e-ENERGY        2e-ENERGY     RMS[dD(SAO)]   TOL
   8  -2415.0625017635    -20135.386119     9260.6370810    0.389D-04 0.104D-13
                            Exc = -344.381066874     Coul =  9605.01814788    
                              N = 408.00092015    
                            current damping = 0.350
 
          Norm of current diis error: 0.59005E-01
          max. resid. norm for Fia-block=  1.463D-03 for orbital    201a         
          max. resid. fock norm         =  3.060D-03 for orbital   2785a         

 ITERATION  ENERGY          1e-ENERGY        2e-ENERGY     RMS[dD(SAO)]   TOL
   9  -2415.0624640734    -20135.495065     9260.7460646    0.156D-04 0.104D-13
                            Exc = -344.399707025     Coul =  9605.14577159    
                              N = 408.00091842    
                            current damping = 0.400
 
          Norm of current diis error: 0.66760E-01
          max. resid. norm for Fia-block=  6.726D-04 for orbital    201a         
          max. resid. fock norm         =  1.119D-03 for orbital   2785a         

 ITERATION  ENERGY          1e-ENERGY        2e-ENERGY     RMS[dD(SAO)]   TOL
  10  -2415.0626143516    -20135.604028     9260.8548777    0.748D-05 0.104D-13
                            Exc = -344.393319950     Coul =  9605.24819761    
                              N = 408.00091911    
                            current damping = 0.250
 
          Norm of current diis error: 0.23465E-01
          max. resid. norm for Fia-block=  3.487D-04 for orbital    197a         
          max. resid. fock norm         =  7.150D-04 for orbital   2786a         
          mo-orthogonalization: Cholesky decomposition

 ITERATION  ENERGY          1e-ENERGY        2e-ENERGY     RMS[dD(SAO)]   TOL
  11  -2415.0626326409    -20135.500786     9260.7516170    0.372D-05 0.104D-13
                            Exc = -344.389211976     Coul =  9605.14082901    
                              N = 408.00091925    
                            current damping = 0.300
 
          Norm of current diis error: 0.81599E-02
          max. resid. norm for Fia-block=  1.689D-04 for orbital    193a         
          max. resid. fock norm         =  2.497D-04 for orbital   2702a         

 ITERATION  ENERGY          1e-ENERGY        2e-ENERGY     RMS[dD(SAO)]   TOL
  12  -2415.0626337129    -20135.522507     9260.7733373    0.180D-05 0.104D-13
                            Exc = -344.390009222     Coul =  9605.16334648    
                              N = 408.00091919    
                            current damping = 0.350
 
          Norm of current diis error: 0.62074E-02
          max. resid. norm for Fia-block=  1.007D-04 for orbital    193a         
          max. resid. fock norm         =  1.265D-04 for orbital   2705a         

 ITERATION  ENERGY          1e-ENERGY        2e-ENERGY     RMS[dD(SAO)]   TOL
  13  -2415.0626351702    -20135.526736     9260.7775643    0.791D-06 0.104D-13
                            Exc = -344.389542189     Coul =  9605.16710649    
                              N = 408.00091927    
                            current damping = 0.200
 
          Norm of current diis error: 0.15520E-02
          max. resid. norm for Fia-block=  2.827D-05 for orbital    198a         
          max. resid. fock norm         =  5.905D-05 for orbital   2700a         

 ITERATION  ENERGY          1e-ENERGY        2e-ENERGY     RMS[dD(SAO)]   TOL
  14  -2415.0626352175    -20135.515552     9260.7663808    0.362D-06 0.104D-13
                            Exc = -344.389544495     Coul =  9605.15592532    
                              N = 408.00091922    
                            current damping = 0.250
 
          Norm of current diis error: 0.11044E-02
          max. resid. norm for Fia-block=  1.454D-05 for orbital    198a         
          max. resid. fock norm         =  2.486D-05 for orbital   2699a         

 ITERATION  ENERGY          1e-ENERGY        2e-ENERGY     RMS[dD(SAO)]   TOL
  15  -2415.0626352608    -20135.521066     9260.7718941    0.165D-06 0.104D-13
                            Exc = -344.389610149     Coul =  9605.16150423    
                              N = 408.00091924    
                            current damping = 0.300
 
          Norm of current diis error: 0.35551E-03
          max. resid. norm for Fia-block=  1.270D-05 for orbital    189a         
          max. resid. fock norm         =  1.984D-05 for orbital   2771a         
          mo-orthogonalization: Cholesky decomposition

 DENSITY CONVERGED !


 ITERATION  ENERGY          1e-ENERGY        2e-ENERGY     RMS[dD(SAO)]   TOL
  16  -2415.0626352643    -20135.519548     9260.7703764    0.724D-07 0.104D-13
                            Exc = -344.389543532     Coul =  9605.15991993    
                              N = 408.00091924    
                            current damping = 0.350
 
          Norm of current diis error: 0.20368E-03
          max. resid. norm for Fia-block=  4.051D-06 for orbital    189a         
          max. resid. fock norm         =  6.256D-06 for orbital   2771a         

 DENSITY CONVERGED !


 ITERATION  ENERGY          1e-ENERGY        2e-ENERGY     RMS[dD(SAO)]   TOL
  17  -2415.0626352659    -20135.520518     9260.7713468    0.288D-07 0.104D-13
                            Exc = -344.389561132     Coul =  9605.16090795    
                              N = 408.00091924    
                            current damping = 0.400
 
          Norm of current diis error: 0.78337E-04
          max. resid. norm for Fia-block=  1.458D-06 for orbital    198a         
          max. resid. fock norm         =  2.159D-06 for orbital   2818a         

 DENSITY CONVERGED !


 ITERATION  ENERGY          1e-ENERGY        2e-ENERGY     RMS[dD(SAO)]   TOL
  18  -2415.0626352661    -20135.520235     9260.7710639    0.133D-07 0.104D-13
                            Exc = -344.389568840     Coul =  9605.16063273    
                              N = 408.00091924    
                            current damping = 0.450
 
          Norm of current diis error: 0.26566E-04
          max. resid. norm for Fia-block=  4.910D-07 for orbital    193a         
          max. resid. fock norm         =  7.970D-07 for orbital   2782a         

 DENSITY CONVERGED !


 ITERATION  ENERGY          1e-ENERGY        2e-ENERGY     RMS[dD(SAO)]   TOL
  19  -2415.0626352661    -20135.520304     9260.7711323    0.495D-08 0.104D-13
                            Exc = -344.389564636     Coul =  9605.16069689    
                              N = 408.00091924    
                            current damping = 0.500
 
          Norm of current diis error: 0.10244E-04
          max. resid. norm for Fia-block=  2.529D-07 for orbital    193a         
          max. resid. fock norm         =  3.965D-07 for orbital   2700a         

 ENERGY & DENSITY CONVERGED !


 ITERATION  ENERGY          1e-ENERGY        2e-ENERGY     RMS[dD(SAO)]   TOL
  20  -2415.0624598677    -20135.520275     9260.7712785    0.202D-08 0.104D-13
                            Exc = -344.389390352     Coul =  9605.16066889    
                              N = 407.99984291    
                            current damping = 0.550
 
          Norm of current diis error: 0.44182E-05
          max. resid. norm for Fia-block=  5.140D-08 for orbital    198a         
          max. resid. fock norm         =  7.205D-08 for orbital    206a         

 End of SCF iterations

   convergence criteria satisfied after   20 iterations


                  ------------------------------------------ 
                 |  total energy      =  -2415.06245986772  |
                  ------------------------------------------ 
                 :  kinetic energy    =   2398.85039732121  :
                 :  potential energy  =  -4813.91285718893  :
                 :  virial theorem    =      1.99328710424  :
                 :  wavefunction norm =      1.00000000000  :
                  .......................................... 


 <geterg> : there is no data group $energy 


 <skperg> : $end is missing 


 orbitals $scfmo  will be written to file mos

    irrep                200a        201a        202a        203a        204a   
 eigenvalues H         -0.19894    -0.19191    -0.18921    -0.18377    -0.17099
            eV          -5.4136     -5.2222     -5.1486     -5.0007     -4.6528
 occupation              2.0000      2.0000      2.0000      2.0000      2.0000 

    irrep                205a        206a        207a        208a        209a   
 eigenvalues H         -0.07019    -0.06202    -0.06087    -0.03301    -0.02177
            eV          -1.9100     -1.6876     -1.6563     -0.8982     -0.5924
 
 
 ! grave: sending quit signal to master process
 
 
 
 
 ==============================================================================
                           electrostatic moments
 ==============================================================================

 reference point for electrostatic moments:    0.00000   0.00000   0.00000

 
              nuc           elec       ->  total
 ------------------------------------------------------------------------------
                          charge      
 ------------------------------------------------------------------------------
         408.000000    -408.000000      -0.000000
 
 ------------------------------------------------------------------------------
                       dipole moment  
 ------------------------------------------------------------------------------
   x       1.677209      -1.674515       0.002695
   y       1.151673      -1.147147       0.004526
   z    -340.573543     339.595765      -0.977778
 
   | dipole moment | =     0.9778 a.u. =     2.4853 debye 
 
 ------------------------------------------------------------------------------
                     quadrupole moment
 ------------------------------------------------------------------------------
  xx   14572.383027  -14828.538177    -256.155149
  yy   10101.803978  -10332.427203    -230.623225
  zz    9868.771860  -10139.052502    -270.280642
  xy    -506.452697     498.520698      -7.931999
  xz      16.306475     -16.266409       0.040066
  yz       0.313371      -0.155135       0.158236
 
     1/3  trace=    -252.353005
     anisotropy=      37.428458
 
 ==============================================================================
 

    ridft profiling
  --------------------------------------------------------------------
             module   cpu total (s)       %  wall total (s)       %

               RIDFT          4799.1  100.00          4803.0  100.00
         Ridft_b_scf          1883.1   39.24          1881.6   39.18
        b_scf_prelim             0.0    0.00             0.0    0.00
        b_scf_molinp             0.0    0.00             0.0    0.00
         b_scf_init0             0.0    0.00             0.0    0.00
        b_scf_auxbas             0.0    0.00             0.0    0.00
      b_scf_symmetry             0.0    0.00             0.0    0.00
         b_scf_cosmo             0.0    0.00             0.0    0.00
        b_scf_params           719.3   14.99           718.7   14.96
          b_scf_ri-j          1134.8   23.65          1133.9   23.61
    b_scf_ri-j_auxpq          1134.7   23.64          1133.8   23.61
     ri-j_auxpq_chol             6.4    0.13             6.4    0.13
         b_scf_1elec             3.0    0.06             3.0    0.06
       b_scf_moinput            26.0    0.54            26.0    0.54
     moinput_orthmos            25.6    0.53            25.6    0.53
    b_scf_dft-dstmax             0.0    0.00             0.0    0.00
           Ridft_scf          2915.1   60.74          2920.5   60.81
          Scf_b_loop             0.0    0.00             0.0    0.00
                noga             0.0    0.00             0.0    0.00
            Scf_loop          2912.0   60.68          2917.0   60.73
     scf_loop_mkdmat            11.3    0.23            11.3    0.23
       scf_loop_ri-j           562.0   11.71           561.6   11.69
      parlp1.bc.dens             1.5    0.03             1.5    0.03
        parlp1.gs.gp            13.0    0.27            13.0    0.27
        parlp2.bc.gq             0.0    0.00             0.0    0.00
        scf_loop_dft          1935.1   40.32          1933.6   40.26
      pardft.bc.dens             0.0    0.00             0.0    0.00
        dft_grid_con            21.6    0.45            21.6    0.45
           dft_xcrhf          1909.6   39.79          1908.2   39.73
          dft_getval           112.2    2.34           112.0    2.33
          funct2 dst             3.0    0.06             3.1    0.06
      funct2 f2loop1            18.6    0.39            18.5    0.39
      funct2 f2loop2            46.5    0.97            46.6    0.97
          funct2 s+c            41.4    0.86            41.3    0.86
        funct2 cmf_2            39.0    0.81            39.0    0.81
          dft_mkdens           849.4   17.70           848.8   17.67
         dft_gga-fun             1.0    0.02             0.9    0.02
          dft_mkfock           943.1   19.65           942.5   19.62
     pardft.red.fock           141.3    2.95           141.2    2.94
     scf_loop_energy             0.1    0.00             0.1    0.00
     scf_loop_mkfock             0.2    0.00             0.2    0.00
       scf_loop_diis           173.3    3.61           173.1    3.60
       scf_loop_diag           148.4    3.09           148.3    3.09
         diag_tritrn            50.7    1.06            50.7    1.06
          diag_rdiag            97.3    2.03            97.2    2.02
     scf_loop_modump            52.9    1.10            60.1    1.25
      scf_loop_ortho            26.6    0.55            26.6    0.55
          Scf_a_loop             3.1    0.07             3.5    0.07
         Ridft_a_scf             0.9    0.02             0.9    0.02
         a_scf_fanal             0.8    0.02             0.9    0.02
 


    ------------------------------------------------------------------------
         total  cpu-time :  1 hours 20 minutes and  3 seconds
         total wall-time :  1 hours 20 minutes and  7 seconds
    ------------------------------------------------------------------------


   ****  ridft : all done  ****


    2017-11-09 11:56:03.725 

