
   OpenMP run-time library returned nthreads = 16
 operating system is UNIX !

 dscf (c-3-41) : TURBOMOLE V7.3 ( 22142 ) 4 Jul 2018 at 18:12:42
 Copyright (C) 2018 TURBOMOLE GmbH, Karlsruhe


    2019-04-03 04:00:03.608 



                             d s c f - program

                   idea & directorship : reinhart ahlrichs
                   program development : marco haeser
                                         michael baer
                           dft version : oliver treutler


                          quantum chemistry group
                          universitaet  karlsruhe
                                  germany




                          References             
                                                 
          TURBOMOLE:                             
              R. Ahlrichs, M. Baer, M. Haeser, H. Horn, and
              C. Koelmel
              Electronic structure calculations on workstation
              computers: the program system TURBOMOLE
              Chem. Phys. Lett. 162: 165 (1989)
          Density Functional:                              
              O. Treutler and R. Ahlrichs                      
              Efficient Molecular Numerical Integration Schemes
              J. Chem. Phys. 102: 346 (1995)                   
          Parallel Version:                                
              Performance of parallel TURBOMOLE for Density    
              Functional Calculations                          
              M. v. Arnim and R. Ahlrichs                      
              J. Comp. Chem. 19: 1746 (1998)                   
                                         




              +--------------------------------------------------+
              | Atomic coordinate, charge and isotop information |
              +--------------------------------------------------+

                    atomic coordinates            atom    charge  isotop
         -1.14553187    0.10558668    1.11305796    c      6.000     0
         -3.15213248    0.10540182    1.11307065    h      1.000     0
          1.14488817    0.10495703    1.11355182    c      6.000     0
          3.15145502    0.10367658    1.11442430    h      1.000     0
         -4.78177039   -0.65659669    7.97183645    c      6.000     0
         -4.79758103   -1.90750758    6.33455772    h      1.000     0
         -4.87988181   -1.84007399    9.65480911    h      1.000     0
         -6.48708688    0.49406522    7.90992595    h      1.000     0
         -2.39970989    0.95836462    7.99275434    c      6.000     0
         -2.43117698    2.23014884    9.61869194    h      1.000     0
         -2.35196220    2.15685919    6.31317310    h      1.000     0
          0.00008851   -0.62585138    8.06920384    c      6.000     0
          0.00009368   -1.79330462    9.77574256    h      1.000     0
          0.00021530   -1.92654828    6.46437057    h      1.000     0
          2.39984900    0.95844979    7.99291851    c      6.000     0
          2.43127104    2.23017333    9.61887913    h      1.000     0
          2.35233200    2.15686179    6.31332767    h      1.000     0
          4.78189130   -0.65657929    7.97223278    c      6.000     0
          4.79772676   -1.90754540    6.33501360    h      1.000     0
          6.48714004    0.49413418    7.91038892    h      1.000     0
          4.87981167   -1.83995364    9.65528627    h      1.000     0
 
       center of nuclear mass  :   -0.00003380    0.01027140    6.17266054
       center of nuclear charge:   -0.00002762   -0.00202907    6.27651778

              +--------------------------------------------------+
              |               basis set information              |
              +--------------------------------------------------+

              we will work with the 1s 3p 5d 7f 9g ... basis set
              ...i.e. with spherical basis functions...

   type   atoms  prim   cont   basis
   ---------------------------------------------------------------------------
    c        7     77     57   def2-QZVP   [7s4p3d2f1g|15s8p3d2f1g]
    h       14     33     30   def2-QZVP   [4s3p2d1f|7s3p2d1f]
   ---------------------------------------------------------------------------
   total:   21   1001    819
   ---------------------------------------------------------------------------

   total number of primitive shells          :   42
   total number of contracted shells         :  259
   total number of cartesian basis functions :  994
   total number of SCF-basis functions       :  819


 integral neglect threshold       :  0.34E-13
 integral storage threshold THIZE :  0.10E-04
 integral storage threshold THIME :         5


 DENSITY CONVERGENCE CHECK SWITCHED ON !
 SCF CONVERGENCE IF RMS(delta[D]) <     0.1000000000E-06


 symmetry group of the molecule :   c1 

 the group has the following generators :
   c1(z)

    1 symmetry operations found

 there are 1 real representations :   a   

 maximum number of shells which are related by symmetry :  1


    mo occupation :
   irrep   mo's   occupied
    a      819       28
 
 number of basis functions   :                    819
 number of occupied orbitals :                     28
 

 automatic virtual orbital shift switched on 
      shift if e(lumo)-e(homo) < 0.10000000    


          ------------------------
          nuclear repulsion energy  :   285.696973710    
          ------------------------


         -----------------
         -S,T+V- integrals
         -----------------

 1e-integrals will be neglected if expon. factor < 0.336213E-14
 
   Difference densities algorithm switched on.
   The maximal number of linear combinations of
   difference densities is                    20 .

 DIIS switched on: error vector is FDS-SDF
 Max. Iterations for DIIS is     :   5
 DIIS matrix (see manual) 
    Scaling factor of diagonals  :  1.200
    threshold for scaling factor :  0.000

 scf convergence criterion : increment of total energy < .1000000D-08
                  and increment of one-electron energy < .1000000D-05

  MOs are in ASCII format !


 reading orbital data $scfmo  from file mos
 orbital characterization : scfconv=9

 DSCF restart information will be dumped onto file mos

 
                                              current damping :  0.700
 ITERATION  ENERGY          1e-ENERGY        2e-ENERGY     RMS[dD(SAO)]   TOL
   1  -273.20264672126    -934.32334875     375.42372831    0.000D+00 0.335D-13
          max. resid. norm for Fia-block=  2.007D-01 for orbital      2a         
          max. resid. fock norm         =  6.420D-01 for orbital    812a         
          Delta Eig. =    46.9755325232 eV 
 
                                              current damping :  0.650
 ITERATION  ENERGY          1e-ENERGY        2e-ENERGY     RMS[dD(SAO)]   TOL
   2  -273.25601477357    -933.44536818     374.49237970    0.504D-03 0.220D-13
          Norm of current diis error: 0.79835    
          max. resid. norm for Fia-block=  8.974D-02 for orbital      2a         
          max. resid. fock norm         =  2.579D-01 for orbital    812a         
          Delta Eig. =    19.1575313271 eV 
 
                                              current damping :  0.600
 ITERATION  ENERGY          1e-ENERGY        2e-ENERGY     RMS[dD(SAO)]   TOL
   3  -273.26700176069    -933.61787054     374.65389507    0.232D-03 0.164D-13
          Norm of current diis error: 0.34436    
          max. resid. norm for Fia-block=  3.650D-02 for orbital      2a         
          max. resid. fock norm         =  1.031D-01 for orbital    812a         
          Delta Eig. =     8.1103232348 eV 
 
                                              current damping :  0.650
 ITERATION  ENERGY          1e-ENERGY        2e-ENERGY     RMS[dD(SAO)]   TOL
   4  -273.26923711616    -933.53293075     374.56671993    0.975D-04 0.143D-13
          Norm of current diis error: 0.13748    
          max. resid. norm for Fia-block=  1.375D-02 for orbital      2a         
          max. resid. fock norm         =  3.876D-02 for orbital    812a         
          Delta Eig. =     2.9148162181 eV 
 
                                              current damping :  0.500
 ITERATION  ENERGY          1e-ENERGY        2e-ENERGY     RMS[dD(SAO)]   TOL
   5  -273.26960337742    -933.51878239     374.55220530    0.372D-04 0.132D-13
          Norm of current diis error: 0.58003E-01
          max. resid. norm for Fia-block=  5.402D-03 for orbital      2a         
          max. resid. fock norm         =  1.528D-02 for orbital    812a         
 mo-orthogonalization: Cholesky decomposition
          Delta Eig. =     1.2672178547 eV 
 
                                              current damping :  0.350
 ITERATION  ENERGY          1e-ENERGY        2e-ENERGY     RMS[dD(SAO)]   TOL
   6  -273.26967589412    -933.51077177     374.54412217    0.168D-04 0.121D-13
          Norm of current diis error: 0.21436E-01
          max. resid. norm for Fia-block=  1.783D-03 for orbital      2a         
          max. resid. fock norm         =  5.093D-03 for orbital    812a         
          Delta Eig. =     0.4699181626 eV 
 
                                              current damping :  0.200
 ITERATION  ENERGY          1e-ENERGY        2e-ENERGY     RMS[dD(SAO)]   TOL
   7  -273.26968718843    -933.50720023     374.54053933    0.674D-05 0.112D-13
          Norm of current diis error: 0.66396E-02
          max. resid. norm for Fia-block=  4.547D-04 for orbital      2a         
          max. resid. fock norm         =  1.314D-03 for orbital    812a         
          Delta Eig. =     0.1366126104 eV 
 
                                              current damping :  0.050
 ITERATION  ENERGY          1e-ENERGY        2e-ENERGY     RMS[dD(SAO)]   TOL
   8  -273.26968846663    -933.50618082     374.53951865    0.238D-05 0.103D-13
          Norm of current diis error: 0.16349E-02
          max. resid. norm for Fia-block=  8.686D-05 for orbital     19a         
          max. resid. fock norm         =  2.187D-04 for orbital    812a         
          Delta Eig. =     0.0263165148 eV 
 
                                              current damping :  0.050
 ITERATION  ENERGY          1e-ENERGY        2e-ENERGY     RMS[dD(SAO)]   TOL
   9  -273.26968856383    -933.50566950     374.53900723    0.768D-06 0.969D-14
          Norm of current diis error: 0.30625E-03
          max. resid. norm for Fia-block=  1.850D-05 for orbital     24a         
          max. resid. fock norm         =  1.886D-05 for orbital     24a         
          Delta Eig. =     0.0011976440 eV 
 
                                              current damping :  0.050
 ITERATION  ENERGY          1e-ENERGY        2e-ENERGY     RMS[dD(SAO)]   TOL
  10  -273.26968856799    -933.50564070     374.53897842    0.210D-06 0.931D-14
          Norm of current diis error: 0.66805E-04
          max. resid. norm for Fia-block=  4.749D-06 for orbital     24a         
          max. resid. fock norm         =  4.757D-06 for orbital     24a         
 mo-orthogonalization: Cholesky decomposition
          Delta Eig. =     0.0001005800 eV 

 DENSITY CONVERGED !

 
                                              current damping :  0.050
 ITERATION  ENERGY          1e-ENERGY        2e-ENERGY     RMS[dD(SAO)]   TOL
  11  -273.26968856824    -933.50558631     374.53892403    0.601D-07 0.909D-14
          Norm of current diis error: 0.14780E-04
          max. resid. norm for Fia-block=  1.033D-06 for orbital     24a         
          max. resid. fock norm         =  1.091D-06 for orbital     24a         
          Delta Eig. =     0.0000552645 eV 

 DENSITY CONVERGED !

 
                                              current damping :  0.100
 ITERATION  ENERGY          1e-ENERGY        2e-ENERGY     RMS[dD(SAO)]   TOL
  12  -273.26968856824    -933.50559977     374.53893749    0.134D-07 0.897D-14
          Norm of current diis error: 0.37524E-05
          max. resid. norm for Fia-block=  2.216D-07 for orbital     24a         
          max. resid. fock norm         =  2.784D-07 for orbital    816a         
          Delta Eig. =     0.0000188723 eV 

 ENERGY & DENSITY CONVERGED !

 
                                              current damping :  0.150
 ITERATION  ENERGY          1e-ENERGY        2e-ENERGY     RMS[dD(SAO)]   TOL
  13  -273.26968856825    -933.50559268     374.53893040    0.254D-08 0.956D-14
          max. resid. norm for Fia-block=  5.765D-08 for orbital     26a         
          max. resid. fock norm         =  9.782D-08 for orbital    816a         

 convergence criteria satisfied after    13 iterations


                  ------------------------------------------ 
                 |  total energy      =   -273.26968856825  |
                  ------------------------------------------ 
                 :  kinetic energy    =    272.99199939124  :
                 :  potential energy  =   -546.26168795948  :
                 :  virial theorem    =      1.99898382737  :
                 :  wavefunction norm =      1.00000000000  :
                  .......................................... 


 orbitals $scfmo  will be written to file mos

    irrep                 24a         25a         26a         27a         28a   
 eigenvalues H         -0.45953    -0.45701    -0.44406    -0.40983    -0.40932
            eV         -12.5046    -12.4359    -12.0837    -11.1520    -11.1383
 occupation              2.0000      2.0000      2.0000      2.0000      2.0000 

    irrep                 29a         30a         31a         32a         33a   
 eigenvalues H          0.10584     0.10939     0.12536     0.12637     0.13108
            eV           2.8800      2.9768      3.4112      3.4387      3.5670
 
 
 
 
 ==============================================================================
                           electrostatic moments
 ==============================================================================

 reference point for electrostatic moments:    0.00000   0.00000   0.00000

 
              nuc           elec       ->  total
 ------------------------------------------------------------------------------
                          charge      
 ------------------------------------------------------------------------------
          56.000000     -56.000000       0.000000
 
 ------------------------------------------------------------------------------
                       dipole moment  
 ------------------------------------------------------------------------------
   x      -0.001547       0.001522      -0.000024
   y      -0.113628       0.148649       0.035021
   z     351.484996    -351.505734      -0.020738
 
   | dipole moment | =     0.0407 a.u. =     0.1035 debye 
 
 ------------------------------------------------------------------------------
                     quadrupole moment
 ------------------------------------------------------------------------------
  xx     579.816802    -612.374316     -32.557514
  yy      59.416558     -96.454012     -37.037454
  zz    2731.241438   -2767.861507     -36.620068
  xy      -0.007304       0.006054      -0.001250
  xz       0.047632      -0.046480       0.001152
  yz     -11.278777      11.550019       0.271242
 
     1/3  trace=     -35.405012
     anisotropy=       4.312184
 
 ==============================================================================
 


    ------------------------------------------------------------------------
         total  cpu-time :  2 hours 22 minutes and  1 seconds
         total wall-time :  9 minutes and 10 seconds
    ------------------------------------------------------------------------

   ****  dscf : all done  ****


    2019-04-03 04:09:13.789 

