STARTING dscf ON 32 PROCESSORS!
RUNNING PROGRAM /sopt/TURBOMOLE/7.2.1-official/bin/em64t-unknown-linux-gnu_mpi/dscf_mpi.
PLEASE WAIT UNTIL dscf HAS FINISHED.
Look for the output in slave1.output.
MACHINEFILE is ./hostlist
 this is node-proc. number 1 running on node c-17-9.gp.local
 the total number of node-proc. spawned is  33
  parallel platform: MPP or cluster with fast interconnect

 dscf (c-17-9.gp.local) : TURBOMOLE V7.2 ( 21471 ) 7 Nov 2017 at 16:15:16
 Copyright (C) 2017 TURBOMOLE GmbH, Karlsruhe


    2018-02-21 09:55:33.895 


 SCF run will be profiled !



                             d s c f - program

                   idea & directorship : reinhart ahlrichs
                   program development : marco haeser
                                         michael baer
                           dft version : oliver treutler
           parallelized version : malte v. arnim, gina corongiu, GMD 


                          quantum chemistry group
                          universitaet  karlsruhe
                                  germany




                          References             
                                                 
          TURBOMOLE:                             
              R. Ahlrichs, M. Baer, M. Haeser, H. Horn, and
              C. Koelmel
              Electronic structure calculations on workstation
              computers: the program system TURBOMOLE
              Chem. Phys. Lett. 162: 165 (1989)
          Density Functional:                              
              O. Treutler and R. Ahlrichs                      
              Efficient Molecular Numerical Integration Schemes
              J. Chem. Phys. 102: 346 (1995)                   
          Parallel Version:                                
              Performance of parallel TURBOMOLE for Density    
              Functional Calculations                          
              M. v. Arnim and R. Ahlrichs                      
              J. Comp. Chem. 19: 1746 (1998)                   
                                         




              +--------------------------------------------------+
              | Atomic coordinate, charge and isotop information |
              +--------------------------------------------------+

                    atomic coordinates            atom    charge  isotop
         -0.29620678    6.06902116   14.96060107    n      7.000     0
          0.13396702    6.36741847  -14.56819755    n      7.000     0
         -0.02222308   -5.66218014   17.61321468    c      6.000     0
          1.67261956   -6.52157006   18.41468211    h      1.000     0
         -1.68000536   -6.51987666   18.49061991    h      1.000     0
         -0.02915002   -2.81327148   17.86104810    c      6.000     0
          2.15939286   -1.43011483   17.30535209    c      6.000     0
          3.91762145   -2.40038535   16.87343448    h      1.000     0
          2.11076263    1.19510437   17.32691632    c      6.000     0
          3.83156279    2.23693670   16.91123023    h      1.000     0
         -0.12719271    2.48682764   17.90514801    c      6.000     0
         -2.28289651    1.10992772   18.55748387    c      6.000     0
         -4.00568142    2.08290656   19.10851632    h      1.000     0
         -2.23416227   -1.52806191   18.53532632    c      6.000     0
         -3.91971482   -2.57318311   19.06917457    h      1.000     0
         -0.22561361    5.33768700   17.70523289    c      6.000     0
         -1.91281628    6.11870819   18.59804319    h      1.000     0
          1.43734949    6.24523558   18.52017498    h      1.000     0
          1.83129052    6.84842876   13.76192248    c      6.000     0
          3.46270375    7.19952785   14.94860293    h      1.000     0
          1.87370791    7.17222528   11.17909969    c      6.000     0
          3.60795474    7.83990178   10.31983251    h      1.000     0
         -0.29578804    6.69171534    9.70524113    c      6.000     0
         -2.49946148    6.00088061   11.04151196    c      6.000     0
         -4.25601861    5.63230822   10.05680467    h      1.000     0
         -2.45153000    5.69144045   13.62014300    c      6.000     0
         -4.08753108    5.09537940   14.69681189    h      1.000     0
         -0.25989399    6.84692861    6.94484804    c      6.000     0
          2.00966478    6.49477441    5.60478259    c      6.000     0
          3.74913935    6.08471727    6.60850509    h      1.000     0
          2.04113715    6.53816245    2.98842792    c      6.000     0
          3.80534517    6.17217645    2.01133389    h      1.000     0
         -0.18002197    6.96618612    1.59365694    c      6.000     0
         -2.44221094    7.35423208    2.93835066    c      6.000     0
         -4.17175406    7.78852966    1.92680421    h      1.000     0
         -2.48674599    7.28436030    5.55542942    c      6.000     0
         -4.25352690    7.66771563    6.52483528    h      1.000     0
         -0.13396511    7.00483232   -1.19192776    c      6.000     0
          2.06636669    7.69549088   -2.51789760    c      6.000     0
          3.72799199    8.31751536   -1.49040963    h      1.000     0
          2.12612028    7.68507910   -5.13529321    c      6.000     0
          3.83654661    8.29884751   -6.08656851    h      1.000     0
         -0.02765862    7.01064775   -6.54506335    c      6.000     0
         -2.24077662    6.36261246   -5.22057047    c      6.000     0
         -3.91698994    5.76809086   -6.23983008    h      1.000     0
         -2.28680197    6.34747857   -2.60400156    c      6.000     0
         -3.99411369    5.74305211   -1.64616689    h      1.000     0
          0.03784852    6.91372358   -9.30716396    c      6.000     0
          2.31723203    6.54270264  -10.64164833    c      6.000     0
          4.10310713    6.38696636   -9.65414335    h      1.000     0
          2.31721760    6.26505979  -13.22440905    c      6.000     0
          4.02194122    5.90986074  -14.30065812    h      1.000     0
         -2.08027291    6.84935910  -13.36917885    c      6.000     0
         -3.73966644    7.00048443  -14.55903782    h      1.000     0
         -2.17127769    7.13325863  -10.78452123    c      6.000     0
         -3.97876544    7.56063226   -9.92344393    h      1.000     0
          0.42699944   -6.10847053  -14.67286391    n      7.000     0
         -0.06413079   -6.34847902   14.85635337    n      7.000     0
          0.15324266    5.65529239  -17.31760415    c      6.000     0
         -1.53578702    6.48388321  -18.16215656    h      1.000     0
          1.81710518    6.52863061  -18.16714513    h      1.000     0
          0.19947363    2.80485433  -17.54746499    c      6.000     0
         -2.02813933    1.40997728  -17.23564519    c      6.000     0
         -3.82918017    2.37003770  -17.00565680    h      1.000     0
         -1.96448403   -1.21717488  -17.25760301    c      6.000     0
         -3.71698896   -2.26674199  -17.04435531    h      1.000     0
          0.32800040   -2.49716765  -17.59160042    c      6.000     0
          2.53652646   -1.10632579  -17.99572129    c      6.000     0
          4.31308531   -2.06847787  -18.36482566    h      1.000     0
          2.47258708    1.52953997  -17.97414987    c      6.000     0
          4.20028580    2.58250125  -18.32722381    h      1.000     0
          0.41976851   -5.34998165  -17.40979217    c      6.000     0
          2.12659862   -6.12691495  -18.26758053    h      1.000     0
         -1.22445222   -6.24532188  -18.27438674    h      1.000     0
         -1.76712970   -6.70434611  -13.48795854    c      6.000     0
         -3.41571473   -6.90800458  -14.68487913    h      1.000     0
         -1.85157834   -7.03272617  -10.90839914    c      6.000     0
         -3.64111615   -7.55101743  -10.05977502    h      1.000     0
          0.34290717   -6.74202741   -9.42162289    c      6.000     0
          2.60721910   -6.25262577  -10.74338488    c      6.000     0
          4.38247699   -6.03640064   -9.74816084    h      1.000     0
          2.60091458   -5.93366724  -13.32140337    c      6.000     0
          4.29097858   -5.48782425  -14.38701812    h      1.000     0
          0.27526242   -6.88564383   -6.66159104    c      6.000     0
         -1.96667409   -6.35358970   -5.33383957    c      6.000     0
         -3.66349939   -5.81336562   -6.34915140    h      1.000     0
         -2.02016460   -6.38394016   -2.71742218    c      6.000     0
         -3.75434607   -5.86869476   -1.75557504    h      1.000     0
          0.15505998   -6.97298819   -1.30963398    c      6.000     0
          2.38620302   -7.54766640   -2.63950810    c      6.000     0
          4.06979574   -8.11583375   -1.61661705    h      1.000     0
          2.45199062   -7.49157908   -5.25612461    c      6.000     0
          4.18901533   -8.01707590   -6.21211256    h      1.000     0
          0.10117091   -6.98486753    1.47612795    c      6.000     0
         -2.14343478   -7.49928972    2.80770361    c      6.000     0
         -3.84982624   -7.99243121    1.78380674    h      1.000     0
         -2.19502782   -7.48077987    5.42579526    c      6.000     0
         -3.94386071   -7.96194593    6.38415247    h      1.000     0
          0.00819281   -6.97061928    6.82783070    c      6.000     0
          2.26120568   -6.48951519    5.50013273    c      6.000     0
          3.97792158   -6.01829863    6.51610017    h      1.000     0
          2.29826769   -6.48140150    2.88360759    c      6.000     0
          4.04482171   -6.01532142    1.91743554    h      1.000     0
         -0.03648796   -6.87107329    9.59072442    c      6.000     0
         -2.26705659   -6.29543089   10.93677481    c      6.000     0
         -4.03636849   -5.97932016    9.95654245    h      1.000     0
         -2.23245297   -6.03265279   13.52091309    c      6.000     0
         -3.89136898   -5.52266103   14.60674949    h      1.000     0
          2.09326764   -7.02037532   13.64603158    c      6.000     0
          3.73669635   -7.32853284   14.82806548    h      1.000     0
          2.14978573   -7.29296845   11.05764190    c      6.000     0
          3.90923066   -7.87535134   10.18739597    h      1.000     0
 
       center of nuclear mass  :    0.03155509   -0.00185714    0.14554156
       center of nuclear charge:    0.03189515   -0.00186961    0.14548091

              +--------------------------------------------------+
              |               basis set information              |
              +--------------------------------------------------+

              we will work with the 1s 3p 5d 7f 9g ... basis set
              ...i.e. with spherical basis functions...

   type   atoms  prim   cont   basis
   ---------------------------------------------------------------------------
    n        4     50     30   cc-pVTZ   [4s3p2d1f|18s5p2d1f]
    c       60     50     30   cc-pVTZ   [4s3p2d1f|18s5p2d1f]
    h       48     16     14   cc-pVTZ   [3s2p1d|5s2p1d]
   ---------------------------------------------------------------------------
   total:  112   3968   2592
   ---------------------------------------------------------------------------

   total number of primitive shells          :   60
   total number of contracted shells         :  928
   total number of cartesian basis functions : 2960
   total number of SCF-basis functions       : 2592


 integral neglect threshold       :  0.11E-11
 integral storage threshold THIZE :  0.10E-04
 integral storage threshold THIME :         5


 DENSITY CONVERGENCE CHECK SWITCHED ON !
 SCF CONVERGENCE IF RMS(delta[D]) <     0.1000000000E-06


 symmetry group of the molecule :   c1 

 the group has the following generators :
   c1(z)

    1 symmetry operations found

 there are 1 real representations :   a   

 maximum number of shells which are related by symmetry :  1


    mo occupation :
   irrep   mo's   occupied
    a     2592      216
 
 number of basis functions   :                   2592
 number of occupied orbitals :                    216
 

 automatic virtual orbital shift switched on 
      shift if e(lumo)-e(homo) < 0.10000000    


 keyword $2e-ints_shell_statistics missing in file <control>

 ! One task per shell generated
  No pre-computed optimal task distribution found
  ... using automatic task generation

          ------------------------
          nuclear repulsion energy  :   7893.79016061    
          ------------------------


         -----------------
         -S,T+V- integrals
         -----------------

 1e-integrals will be neglected if expon. factor < 0.112904E-12
 
   Difference densities algorithm switched on.
   The maximal number of linear combinations of
   difference densities is                    20 .

 DIIS switched on: error vector is FDS-SDF
 Max. Iterations for DIIS is     :   5
 DIIS matrix (see manual) 
    Scaling factor of diagonals  :  1.200
    threshold for scaling factor :  0.000

 scf convergence criterion : increment of total energy < .1000000D-06
                  and increment of one-electron energy < .1000000D-03

  MOs are in ASCII format !


 reading orbital data $scfmo  from file mos
 orbital characterization : expanded
 mo provided and orthogonalized by Cholesky decomposition

 DSCF restart information will be dumped onto file mos

 
                                              current damping :  0.300
 ITERATION  ENERGY          1e-ENERGY        2e-ENERGY     RMS[dD(SAO)]   TOL
   1  -2508.8402910507    -18892.218508     8489.5880568    0.000D+00 0.113D-11
          max. resid. norm for Fia-block=  3.341D-01 for orbital      3a         
          max. resid. fock norm         =  4.777D+00 for orbital   2438a         
          Delta Eig. =   285.9373797056 eV 
 
                                              current damping :  0.250
 ITERATION  ENERGY          1e-ENERGY        2e-ENERGY     RMS[dD(SAO)]   TOL
   2  -2516.4323142120    -18984.763111     8574.5406364    0.180D-02 0.746D-12
          Norm of current diis error:  5.4361    
          max. resid. norm for Fia-block=  1.063D-01 for orbital     77a         
          max. resid. fock norm         =  1.512D-01 for orbital    253a         
          Delta Eig. =    75.1466806771 eV 
 
                                              current damping :  0.150
 ITERATION  ENERGY          1e-ENERGY        2e-ENERGY     RMS[dD(SAO)]   TOL
   3  -2517.4352251552    -18992.735808     8581.5104223    0.669D-03 0.596D-12
          Norm of current diis error:  1.7948    
          max. resid. norm for Fia-block=  3.590D-02 for orbital     78a         
          max. resid. fock norm         =  3.771D-02 for orbital     74a         
          Delta Eig. =    15.7560448210 eV 
 
                                              current damping :  0.100
 ITERATION  ENERGY          1e-ENERGY        2e-ENERGY     RMS[dD(SAO)]   TOL
   4  -2517.5827109656    -19001.694626     8590.3217547    0.322D-03 0.513D-12
          Norm of current diis error: 0.40731    
          max. resid. norm for Fia-block=  9.536D-03 for orbital    207a         
          max. resid. fock norm         =  1.321D-02 for orbital   2551a         
          Delta Eig. =     2.4154668222 eV 
 
                                              current damping :  0.150
 ITERATION  ENERGY          1e-ENERGY        2e-ENERGY     RMS[dD(SAO)]   TOL
   5  -2517.5940579446    -19001.684094     8590.2998753    0.122D-03 0.473D-12
          Norm of current diis error: 0.13433    
          max. resid. norm for Fia-block=  3.537D-03 for orbital    200a         
          max. resid. fock norm         =  6.777D-03 for orbital   2551a         
 mo-orthogonalization: Cholesky decomposition
          Delta Eig. =     0.4227873372 eV 
 
                                              current damping :  0.200
 ITERATION  ENERGY          1e-ENERGY        2e-ENERGY     RMS[dD(SAO)]   TOL
   6  -2517.5953355979    -19002.237741     8590.8522444    0.391D-04 0.451D-12
          Norm of current diis error: 0.55526E-01
          max. resid. norm for Fia-block=  1.573D-03 for orbital    206a         
          max. resid. fock norm         =  2.762D-03 for orbital   2551a         
          Delta Eig. =     0.1609414162 eV 
 
                                              current damping :  0.100
 ITERATION  ENERGY          1e-ENERGY        2e-ENERGY     RMS[dD(SAO)]   TOL
   7  -2517.5955868976    -19002.262610     8590.8768628    0.166D-04 0.433D-12
          Norm of current diis error: 0.22393E-01
          max. resid. norm for Fia-block=  9.273D-04 for orbital    200a         
          max. resid. fock norm         =  1.148D-03 for orbital    218a         
          Delta Eig. =     0.0316484789 eV 
 
                                              current damping :  0.150
 ITERATION  ENERGY          1e-ENERGY        2e-ENERGY     RMS[dD(SAO)]   TOL
   8  -2517.5956492445    -19002.243937     8590.8581273    0.870D-05 0.415D-12
          Norm of current diis error: 0.11290E-01
          max. resid. norm for Fia-block=  5.608D-04 for orbital    206a         
          max. resid. fock norm         =  5.842D-04 for orbital    206a         
          Delta Eig. =     0.0189190244 eV 
 
                                              current damping :  0.200
 ITERATION  ENERGY          1e-ENERGY        2e-ENERGY     RMS[dD(SAO)]   TOL
   9  -2517.5956647707    -19002.258613     8590.8727873    0.310D-05 0.400D-12
          Norm of current diis error: 0.58214E-02
          max. resid. norm for Fia-block=  2.733D-04 for orbital    199a         
          max. resid. fock norm         =  3.362D-04 for orbital    218a         
          Delta Eig. =     0.0114489683 eV 
 
                                              current damping :  0.250
 ITERATION  ENERGY          1e-ENERGY        2e-ENERGY     RMS[dD(SAO)]   TOL
  10  -2517.5956696025    -19002.257452     8590.8716223    0.154D-05 0.386D-12
          Norm of current diis error: 0.31134E-02
          max. resid. norm for Fia-block=  2.041D-04 for orbital    206a         
          max. resid. fock norm         =  2.103D-04 for orbital    206a         
 mo-orthogonalization: Cholesky decomposition
          Delta Eig. =     0.0031616950 eV 
 
                                              current damping :  0.100
 ITERATION  ENERGY          1e-ENERGY        2e-ENERGY     RMS[dD(SAO)]   TOL
  11  -2517.5956712525    -19002.253300     8590.8674685    0.876D-06 0.372D-12
          Norm of current diis error: 0.17450E-02
          max. resid. norm for Fia-block=  1.144D-04 for orbital    206a         
          max. resid. fock norm         =  1.217D-04 for orbital    218a         
          Delta Eig. =     0.0042711198 eV 
 
                                              current damping :  0.150
 ITERATION  ENERGY          1e-ENERGY        2e-ENERGY     RMS[dD(SAO)]   TOL
  12  -2517.5956718776    -19002.254705     8590.8688726    0.670D-06 0.356D-12
          Norm of current diis error: 0.81139E-03
          max. resid. norm for Fia-block=  5.859D-05 for orbital    206a         
          max. resid. fock norm         =  6.002D-05 for orbital    206a         
          Delta Eig. =     0.0014467370 eV 
 
                                              current damping :  0.200
 ITERATION  ENERGY          1e-ENERGY        2e-ENERGY     RMS[dD(SAO)]   TOL
  13  -2517.5956720055    -19002.252926     8590.8670931    0.323D-06 0.345D-12
          Norm of current diis error: 0.35421E-03
          max. resid. norm for Fia-block=  2.142D-05 for orbital    214a         
          max. resid. fock norm         =  2.444D-05 for orbital    220a         
          Delta Eig. =     0.0007108373 eV 
 
                                              current damping :  0.250
 ITERATION  ENERGY          1e-ENERGY        2e-ENERGY     RMS[dD(SAO)]   TOL
  14  -2517.5956720258    -19002.253129     8590.8672966    0.128D-06 0.337D-12
          Norm of current diis error: 0.16933E-03
          max. resid. norm for Fia-block=  1.115D-05 for orbital    215a         
          max. resid. fock norm         =  1.124D-05 for orbital    216a         
          Delta Eig. =     0.0004066131 eV 

 DENSITY CONVERGED !

 
                                              current damping :  0.300
 ITERATION  ENERGY          1e-ENERGY        2e-ENERGY     RMS[dD(SAO)]   TOL
  15  -2517.5956720300    -19002.252969     8590.8671363    0.588D-07 0.331D-12
          Norm of current diis error: 0.73287E-04
          max. resid. norm for Fia-block=  4.059D-06 for orbital    215a         
          max. resid. fock norm         =  5.104D-06 for orbital    220a         
 mo-orthogonalization: Cholesky decomposition
          Delta Eig. =     0.0000812019 eV 

 ENERGY & DENSITY CONVERGED !

 
                                              current damping :  0.150
 ITERATION  ENERGY          1e-ENERGY        2e-ENERGY     RMS[dD(SAO)]   TOL
  16  -2517.5956720311    -19002.252912     8590.8670795    0.228D-07 0.325D-12
          max. resid. norm for Fia-block=  1.127D-06 for orbital    176a         
          max. resid. fock norm         =  1.392D-06 for orbital    220a         

 convergence criteria satisfied after    16 iterations


                  ------------------------------------------ 
                 |  total energy      =  -2517.59567203109  |
                  ------------------------------------------ 
                 :  kinetic energy    =   2513.48567283300  :
                 :  potential energy  =  -5031.08134486409  :
                 :  virial theorem    =      1.99836749036  :
                 :  wavefunction norm =      1.00000000000  :
                  .......................................... 


 <geterg> : there is no data group $energy 


 <skperg> : $end is missing 


 orbitals $scfmo  will be written to file mos

    irrep                212a        213a        214a        215a        216a   
 eigenvalues H         -0.62539    -0.62334    -0.62324    -0.57733    -0.57687
            eV         -17.0180    -16.9622    -16.9593    -15.7102    -15.6977
 occupation              2.0000      2.0000      2.0000      2.0000      2.0000 

    irrep                217a        218a        219a        220a        221a   
 eigenvalues H         -0.27242    -0.27091    -0.24890    -0.24629    -0.20324
            eV          -7.4129     -7.3720     -6.7731     -6.7018     -5.5305
 
 
 
 
 ==============================================================================
                           electrostatic moments
 ==============================================================================

 reference point for electrostatic moments:    0.00000   0.00000   0.00000

 
              nuc           elec       ->  total
 ------------------------------------------------------------------------------
                          charge      
 ------------------------------------------------------------------------------
         436.000000    -432.000000       4.000000
 
 ------------------------------------------------------------------------------
                       dipole moment  
 ------------------------------------------------------------------------------
   x      13.906284     -13.712247       0.194037
   y      -0.815149       0.802790      -0.012359
   z      63.429677     -62.832453       0.597225
 
   | dipole moment | =     0.6281 a.u. =     1.5964 debye 
 
 ------------------------------------------------------------------------------
                     quadrupole moment
 ------------------------------------------------------------------------------
  xx    1831.406694   -2037.432937    -206.026243
  yy   16221.301045  -16325.152681    -103.851637
  zz   63817.158163  -63319.241285     497.916878
  xy    -289.896176     287.902548      -1.993628
  xz    -886.332863     873.774454     -12.558409
  yz    -442.011966     436.382324      -5.629641
 
     1/3  trace=      62.679666
     anisotropy=     659.265196
 
 ==============================================================================
 

    dscf profiling
  --------------------------------------------------------------------
             module   cpu total (s)       %  wall total (s)       %

          dscf.total          4086.4  100.00          3559.1  100.00
        dscf.prepare            20.6    0.50            20.6    0.58
      prepare.oneint             0.2    0.00             0.2    0.01
     prepare.moinput             0.5    0.01             0.5    0.01
     moinput_orthmos            19.7    0.48            19.7    0.55
            dscf.scf          4064.2   99.46          3536.8   99.37
             scf.pre             0.0    0.00             0.0    0.00
        scf.makedmat            12.7    0.31            12.9    0.36
          scf.shloop          3052.3   74.70          3052.9   85.78
          shloop_omp          3051.3   74.67          3051.8   85.75
          scf.symcar             1.3    0.03             1.3    0.04
        scf.makefock             2.7    0.07             3.1    0.09
          scf.newerg             0.1    0.00             0.1    0.00
          scf.newcnv           154.4    3.78            19.6    0.55
           scf.fdiag           396.7    9.71            50.1    1.41
         diag_tritrn           109.9    2.69            13.8    0.39
          diag_rdiag           278.0    6.80            35.3    0.99
          scf.modump           375.1    9.18           354.8    9.97
           ortho_all            42.1    1.03            17.4    0.49
            scf.post            25.2    0.62            24.3    0.68
        dscf.postscf             1.6    0.04             1.7    0.05
 


    ------------------------------------------------------------------------
         total  cpu-time :  1 hours  8 minutes and  7 seconds
         total wall-time : 59 minutes and 20 seconds
    ------------------------------------------------------------------------

   ****  dscf : all done  ****


    2018-02-21 10:54:53.039 

