 operating system is UNIX !

 ridft (c-9-373.gp.local) : TURBOMOLE V7.2 ( 21454 ) 4 Oct 2017 at 12:48:15
 Copyright (C) 2017 TURBOMOLE GmbH, Karlsruhe


    2018-05-18 15:36:43.438 



                                  r i d f t

                        DFT program with RI approximation 
                                for coulomb part 




                                                 
                                 References:     
                                                 
          TURBOMOLE:                             
              R. Ahlrichs, M. Baer, M. Haeser, H. Horn, and
              C. Koelmel
              Electronic structure calculations on workstation
              computers: the program system TURBOMOLE
              Chem. Phys. Lett. 162: 165 (1989)
          Density Functional:                              
              O. Treutler and R. Ahlrichs                      
              Efficient Molecular Numerical Integration Schemes
              J. Chem. Phys. 102: 346 (1995)                   
          Parallel Version:                                
              Performance of parallel TURBOMOLE for Density    
              Functional Calculations                          
              M. v. Arnim and R. Ahlrichs                      
              J. Comp. Chem. 19: 1746 (1998)                   
          RI-J Method:                                     
              Auxiliary Basis Sets to approximate Coulomb      
              Potentials                                       
              Chem. Phys. Lett. 240: 283 (1995)                
              K. Eichkorn, O. Treutler, H. Oehm, M. Haeser     
              and R. Ahlrichs                                  
              Chem. Phys. Lett. 242: 652 (1995)                
                                                           
              Auxiliary Basis Sets for Main Row Atoms and their
              Use to approximate Coulomb Potentials            
              K. Eichkorn, F. Weigend, O. Treutler and         
              R. Ahlrichs                                      
              Theo. Chem. Acc. 97: 119 (1997)                   
                                                           
              Accurate Coulomb-fitting basis sets for H to Rn 
              F. Weigend                                        
              Phys. Chem. Chem. Phys. 8: 1057 (2006)            
                                                           
          Multipole accelerated RI-J (MARI-J):             
              Fast evaluation of the Coulomb potential for     
              electron densities using multipole accelerated   
              resolution of identity approximation             
              M. Sierka, A. Hogekamp and R. Ahlrichs           
              J. Chem. Phys. 118: 9136 (2003)                  
          RI-JK Method:                                     
              A fully direct RI-HF algorithm: Implementation,
              optimised auxiliary basis sets, demonstration of
              accuracy and efficiency                         
              F. Weigend                                      
              Phys. Chem. Chem. Phys. 4: 4285 (2002)           
          Two-component HF and DFT with spin-orbit coupling:  
              Self-consistent treatment of spin-orbit         
              interactions with efficient Hartree-Fock and    
              density functional methods                      
              M. K. Armbruster, F. Weigend, C. van Wüllen and 
              W. Klopper                                      
              Phys. Chem. Chem. Phys. 10: 1748 (2008)         
          Relativistic all-electron 2c calculations           
              An efficient implementation of two-component    
              relativistic exact-decoupling methods for large 
              molecules                                       
              D. Peng, N. Middendorf, F. Weigend, M. Reiher   
              J. Chem. Phys. 138, 184105 (2013)               
                                         




              +--------------------------------------------------+
              |      general information about current run       |
              +--------------------------------------------------+

 
 PBE functional
 exchange:    LDA + PBE
 correlation: LDA (PW) + PBE
 A DFT calculation using the RI-J approximation will be carried out.
 Allocatable memory for RI due to $ricore (MB):                   500


              +--------------------------------------------------+
              | Atomic coordinate, charge and isotop information |
              +--------------------------------------------------+

                    atomic coordinates            atom    charge  isotop
          2.15695697    4.45414407    7.66676664    c      6.000     0
          1.34277108    5.04194091    5.86626853    h      1.000     0
          0.95842857    5.22030163    9.15633883    h      1.000     0
          4.01433104    5.32426357    7.84274075    h      1.000     0
          2.29493809    1.58389394    7.83593179    c      6.000     0
          3.10824531    1.03669944    9.65250843    h      1.000     0
          3.56972767    0.84470762    6.39006800    h      1.000     0
         -0.28413215    0.34013922    7.54337052    c      6.000     0
         -1.55259997    1.03721347    9.02041682    h      1.000     0
         -1.12972955    0.92645513    5.74831924    h      1.000     0
         -0.17776147   -2.53354190    7.65606527    c      6.000     0
          0.62273690   -3.10505256    9.47140458    h      1.000     0
          1.12902523   -3.21739399    6.21136505    h      1.000     0
         -2.76533120   -3.74650648    7.30878340    c      6.000     0
         -3.59374744   -3.22974635    5.49429575    h      1.000     0
         -2.65773247   -5.80020110    7.39203942    h      1.000     0
         -4.06539244   -3.12602249    8.78132045    h      1.000     0
 
       center of nuclear mass  :    0.22826557    0.02965157    7.59940183
       center of nuclear charge:    0.21652584    0.03671282    7.59744266

              +--------------------------------------------------+
              |               basis set information              |
              +--------------------------------------------------+

              we will work with the 1s 3p 5d 7f 9g ... basis set
              ...i.e. with spherical basis functions...

   type   atoms  prim   cont   basis
   ---------------------------------------------------------------------------
    c        5     77     57   def2-QZVP   [7s4p3d2f1g|15s8p3d2f1g]
    h       12     33     30   def2-QZVP   [4s3p2d1f|7s3p2d1f]
   ---------------------------------------------------------------------------
   total:   17    781    645
   ---------------------------------------------------------------------------

   total number of primitive shells          :   42
   total number of contracted shells         :  205
   total number of cartesian basis functions :  780
   total number of SCF-basis functions       :  645


 integral neglect threshold       :  0.43E-13
 integral storage threshold THIZE :  0.10E-04
 integral storage threshold THIME :         5

 RI-J AUXILIARY BASIS SET information:

              we will work with the 1s 3p 5d 7f 9g ... basis set
              ...i.e. with spherical basis functions...

   type   atoms  prim   cont   basis
   ---------------------------------------------------------------------------
    c        5     70     49   def2-QZVP   [6s4p3d1f1g|12s5p4d2f1g]
    h       12     16     11   def2-QZVP   [3s1p1d|5s2p1d]
   ---------------------------------------------------------------------------
   total:   17    542    377
   ---------------------------------------------------------------------------

   total number of primitive shells          :   32
   total number of contracted shells         :  135
   total number of cartesian basis functions :  449
   total number of SCF-basis functions       :  377


 symmetry group of the molecule :   c1 

 the group has the following generators :
   c1(z)

    1 symmetry operations found

 there are 1 real representations :   a   

 maximum number of shells which are related by symmetry :  1


    mo occupation :
   irrep   mo's   occupied
    a      645       21
 
 number of basis functions   :                    645
 number of occupied orbitals :                     21
 
  
           ------------------
           density functional
           ------------------
 PBE functional
 exchange:    LDA + PBE
 correlation: LDA (PW) + PBE

 iterations will be done with small grid
  
 spherical integration : Lebedev's spherical grid
 spherical gridsize    :                     5
    i.e. gridpoints    :                   590
 value for diffuse not defined
 radial integration    : Chebyshev 2nd kind (scaling 3)
 radial gridsize       :                     8
 integration cells     :                    17
 partition function    : becke
 partition sharpness   :                     3
  

 biggest AO integral is expected to be     5.262544080
  
           ------------------------
               RI-J - INFORMATION
           ------------------------
 Contributions to RI integral batches: 
  neglected integral batches:                  3305
  direct contribution:                         4966
  memory contribution:                 12844
 Memory core needed for (P|Q) and Cholesky      2 MByte
 Memory core minimum needed except of (P|Q)     2 MByte
 Total minimum memory core needed (sum)         3 MByte
  
 ****************************************
 Memory allocated for RI-J   492 MByte
 ****************************************
                                            

          ------------------------
          nuclear repulsion energy  :   185.616735778    
          ------------------------


         -----------------
         -S,T+V- integrals
         -----------------

 1e-integrals will be neglected if expon. factor < 0.428457E-14
 
   Difference densities algorithm switched on.
   The maximal number of linear combinations of
   difference densities is                    20 .

 DIIS switched on: error vector is FDS-SDF
 Max. Iterations for DIIS is     :   4
 DIIS matrix (see manual) 
    Scaling factor of diagonals  :  1.200
    threshold for scaling factor :  0.000

 scf convergence criterion : increment of total energy < .1000000D-08
                  and increment of one-electron energy < .1000000D-05

  MOs are in ASCII format !


 automatic virtual orbital shift switched on 
      shift if e(lumo)-e(homo) < 0.10000000    


 reading orbital data $scfmo  from file mos
 orbital characterization : expanded
 mo provided and orthogonalized by Cholesky decomposition

 DSCF restart information will be dumped onto file mos


 Starting SCF iterations

          Overall gridpoints after grid construction =         73064

 ITERATION  ENERGY          1e-ENERGY        2e-ENERGY     NORM[dD(SAO)]  TOL
   1  -196.86551478160    -623.34319056     240.86094001    0.000D+00 0.427D-13
                            Exc = -30.2996288978     Coul =  271.160568903    
                              N = 42.000136216    
                            current damping = 0.700
 
          max. resid. norm for Fia-block=  4.493D-01 for orbital      6a         
          max. resid. fock norm         =  4.324D+01 for orbital    602a         

 ITERATION  ENERGY          1e-ENERGY        2e-ENERGY     NORM[dD(SAO)]  TOL
   2  -197.41673859240    -629.05035003     246.01687566    0.109D+01 0.325D-13
                            Exc = -30.9493299555     Coul =  276.966205612    
                              N = 42.000112962    
                            current damping = 0.650
 
          Norm of current diis error:  2.6055    
          max. resid. norm for Fia-block=  1.017D-01 for orbital      3a         
          max. resid. fock norm         =  1.172D-01 for orbital      6a         

 ITERATION  ENERGY          1e-ENERGY        2e-ENERGY     NORM[dD(SAO)]  TOL
   3  -197.52299721971    -630.11932884     246.97959585    0.325D+00 0.221D-13
                            Exc = -31.1437858701     Coul =  278.123381715    
                              N = 42.000099762    
                            current damping = 0.550
 
          Norm of current diis error:  1.2307    
          max. resid. norm for Fia-block=  4.464D-02 for orbital     10a         
          max. resid. fock norm         =  4.971D-02 for orbital      6a         

 ITERATION  ENERGY          1e-ENERGY        2e-ENERGY     NORM[dD(SAO)]  TOL
   4  -197.55310835868    -631.33348589     248.16364175    0.119D+00 0.179D-13
                            Exc = -31.2999428274     Coul =  279.463584582    
                              N = 42.000091324    
                            current damping = 0.450
 
          Norm of current diis error: 0.43718    
          max. resid. norm for Fia-block=  1.679D-02 for orbital      6a         
          max. resid. fock norm         =  1.925D-02 for orbital      6a         

 ITERATION  ENERGY          1e-ENERGY        2e-ENERGY     NORM[dD(SAO)]  TOL
   5  -197.55751601118    -631.43325968     248.25900789    0.490D-01 0.160D-13
                            Exc = -31.3370368322     Coul =  279.596044723    
                              N = 42.000087859    
                            current damping = 0.300
 
          Norm of current diis error: 0.16876    
          max. resid. norm for Fia-block=  6.799D-03 for orbital     10a         
          max. resid. fock norm         =  6.942D-03 for orbital     10a         
          mo-orthogonalization: Cholesky decomposition

 ITERATION  ENERGY          1e-ENERGY        2e-ENERGY     NORM[dD(SAO)]  TOL
   6  -197.55817753214    -631.74898498     248.57407167    0.150D-01 0.151D-13
                            Exc = -31.3697675263     Coul =  279.943839192    
                              N = 42.000086300    
                            current damping = 0.150
 
          Norm of current diis error: 0.54924E-01
          max. resid. norm for Fia-block=  1.840D-03 for orbital     20a         
          max. resid. fock norm         =  3.001D-03 for orbital    644a         

 ITERATION  ENERGY          1e-ENERGY        2e-ENERGY     NORM[dD(SAO)]  TOL
   7  -197.55822947684    -631.63938335     248.46441809    0.407D-02 0.147D-13
                            Exc = -31.3652821153     Coul =  279.829700209    
                              N = 42.000086027    
                            current damping = 0.200
 
          Norm of current diis error: 0.28795E-01
          max. resid. norm for Fia-block=  6.115D-04 for orbital     14a         
          max. resid. fock norm         =  1.692D-03 for orbital    644a         

 ITERATION  ENERGY          1e-ENERGY        2e-ENERGY     NORM[dD(SAO)]  TOL
   8  -197.55824375119    -631.67693196     248.50195243    0.120D-02 0.146D-13
                            Exc = -31.3677779917     Coul =  279.869730423    
                              N = 42.000085917    
                            current damping = 0.250
 
          Norm of current diis error: 0.64445E-02
          max. resid. norm for Fia-block=  2.038D-04 for orbital     15a         
          max. resid. fock norm         =  5.587D-04 for orbital    644a         

 ITERATION  ENERGY          1e-ENERGY        2e-ENERGY     NORM[dD(SAO)]  TOL
   9  -197.55824434550    -631.68820892     248.51322880    0.395D-03 0.146D-13
                            Exc = -31.3688518583     Coul =  279.882080657    
                              N = 42.000085917    
                            current damping = 0.100
 
          Norm of current diis error: 0.31159E-02
          max. resid. norm for Fia-block=  6.060D-05 for orbital     15a         
          max. resid. fock norm         =  1.711D-04 for orbital    644a         

 ITERATION  ENERGY          1e-ENERGY        2e-ENERGY     NORM[dD(SAO)]  TOL
  10  -197.55824452315    -631.68454873     248.50956843    0.290D-04 0.145D-13
                            Exc = -31.3685173087     Coul =  279.878085741    
                              N = 42.000085911    
                            current damping = 0.150
 
          Norm of current diis error: 0.12123E-03
          max. resid. norm for Fia-block=  3.364D-06 for orbital     21a         
          max. resid. fock norm         =  9.620D-06 for orbital    644a         
          mo-orthogonalization: Cholesky decomposition

 ITERATION  ENERGY          1e-ENERGY        2e-ENERGY     NORM[dD(SAO)]  TOL
  11  -197.55824452340    -631.68461891     248.50963861    0.118D-04 0.144D-13
                            Exc = -31.3685274687     Coul =  279.878166078    
                              N = 42.000085910    
                            current damping = 0.200
 
          Norm of current diis error: 0.51020E-04
          max. resid. norm for Fia-block=  1.626D-06 for orbital     21a         
          max. resid. fock norm         =  3.367D-06 for orbital    641a         

 ITERATION  ENERGY          1e-ENERGY        2e-ENERGY     NORM[dD(SAO)]  TOL
  12  -197.55824452345    -631.68460234     248.50962204    0.248D-05 0.144D-13
                            Exc = -31.3685260909     Coul =  279.878148128    
                              N = 42.000085910    
                            current damping = 0.250
 
          Norm of current diis error: 0.21106E-04
          max. resid. norm for Fia-block=  5.594D-07 for orbital     14a         
          max. resid. fock norm         =  1.499D-06 for orbital    643a         

 ITERATION  ENERGY          1e-ENERGY        2e-ENERGY     NORM[dD(SAO)]  TOL
  13  -197.55824452346    -631.68463135     248.50965105    0.725D-06 0.143D-13
                            Exc = -31.3685278291     Coul =  279.878178879    
                              N = 42.000085910    
                            current damping = 0.300
 
          Norm of current diis error: 0.70363E-05
          max. resid. norm for Fia-block=  1.487D-07 for orbital     19a         
          max. resid. fock norm         =  2.102D-07 for orbital     21a         

 ITERATION  ENERGY          1e-ENERGY        2e-ENERGY     NORM[dD(SAO)]  TOL
  14  -197.55824452348    -631.68461681     248.50963651    0.914D-07 0.143D-13
                            Exc = -31.3685267724     Coul =  279.878163279    
                              N = 42.000085910    
                            current damping = 0.350
 
          Norm of current diis error: 0.12039E-05
          max. resid. norm for Fia-block=  3.655D-08 for orbital     16a         
          max. resid. fock norm         =  6.913D-08 for orbital    645a         

 ENERGY CONVERGED !

          Overall gridpoints after grid construction =        245762

 ITERATION  ENERGY          1e-ENERGY        2e-ENERGY     NORM[dD(SAO)]  TOL
  15  -197.55823307804    -631.68461914     248.50965028    0.212D-07 0.142D-13
                            Exc = -31.3685155376     Coul =  279.878165819    
                              N = 41.999993902    
                            current damping = 0.400
 
          Norm of current diis error: 0.32560E-06
          max. resid. norm for Fia-block=  7.437D-09 for orbital     19a         
          max. resid. fock norm         =  1.386D-08 for orbital    641a         

 End of SCF iterations

   convergence criteria satisfied after    15 iterations


                  ------------------------------------------ 
                 |  total energy      =   -197.55823307804  |
                  ------------------------------------------ 
                 :  kinetic energy    =    196.66518529538  :
                 :  potential energy  =   -394.22341837342  :
                 :  virial theorem    =      1.99547957193  :
                 :  wavefunction norm =      1.00000000000  :
                  .......................................... 


 <geterg> : there is no data group $energy 


 <skperg> : $end is missing 


 orbitals $scfmo  will be written to file mos

    irrep                 17a         18a         19a         20a         21a   
 eigenvalues H         -0.31132    -0.29091    -0.28674    -0.27778    -0.27553
            eV          -8.4716     -7.9161     -7.8027     -7.5588     -7.4975
 occupation              2.0000      2.0000      2.0000      2.0000      2.0000 

    irrep                 22a         23a         24a         25a         26a   
 eigenvalues H          0.00548     0.01676     0.02634     0.03114     0.04687
            eV           0.1490      0.4560      0.7168      0.8475      1.2754
 
 
 
 
 ==============================================================================
                           electrostatic moments
 ==============================================================================

 reference point for electrostatic moments:    0.00000   0.00000   0.00000

 
              nuc           elec       ->  total
 ------------------------------------------------------------------------------
                          charge      
 ------------------------------------------------------------------------------
          42.000000     -42.000000      -0.000000
 
 ------------------------------------------------------------------------------
                       dipole moment  
 ------------------------------------------------------------------------------
   x       9.094085      -9.064298       0.029788
   y       1.541938      -1.561537      -0.019598
   z     319.092592    -319.082811       0.009781
 
   | dipole moment | =     0.0370 a.u. =     0.0940 debye 
 
 ------------------------------------------------------------------------------
                     quadrupole moment
 ------------------------------------------------------------------------------
  xx     189.167497    -215.923861     -26.756364
  yy     416.095250    -443.090761     -26.995511
  zz    2453.108254   -2478.827855     -25.719601
  xy     214.630451    -214.824402      -0.193951
  xz      83.096763     -82.989116       0.107647
  yz      25.834062     -25.951483      -0.117421
 
     1/3  trace=     -26.490492
     anisotropy=       1.252592
 
 ==============================================================================
 


    ------------------------------------------------------------------------
         total  cpu-time :  2 minutes and 12 seconds
         total wall-time :  7 minutes and 54 seconds
    ------------------------------------------------------------------------

   ****  ridft : all done  ****


    2018-05-18 15:44:37.196 

