
 eiger (gplogin1.local) : TURBOMOLE V7.2 ( 21454 ) 2 Oct 2017 at 16:43:05
 Copyright (C) 2017 TURBOMOLE GmbH, Karlsruhe


    2018-03-16 01:41:50.935 

                                                                                
  
Total energy =  -3675.8388740150 H =   -100024.7219364 eV
 
 HOMO-LUMO Separation
   HOMO:   214.   214 a     -0.34853238 H =     -9.48405 eV
   LUMO:   215.   215 a     +0.05784263 H =     +1.57398 eV
   Gap :                    +0.40637501 H =    +11.05803 eV
 
Number of MOs=   3522, Electrons=    428.00, Symmetry: c1   
 
   Nr.   Orbital    Occupation       Energy
  231.   231 a                     +0.114740 H =        +3.122 eV
  230.   230 a                     +0.113369 H =        +3.085 eV
  229.   229 a                     +0.111899 H =        +3.045 eV
  228.   228 a                     +0.107215 H =        +2.917 eV
  227.   227 a                     +0.106181 H =        +2.889 eV
  226.   226 a                     +0.102737 H =        +2.796 eV
  225.   225 a                     +0.099685 H =        +2.713 eV
  224.   224 a                     +0.099152 H =        +2.698 eV
  223.   223 a                     +0.095843 H =        +2.608 eV
  222.   222 a                     +0.091286 H =        +2.484 eV
  221.   221 a                     +0.089551 H =        +2.437 eV
  220.   220 a                     +0.086852 H =        +2.363 eV
  219.   219 a                     +0.081366 H =        +2.214 eV
  218.   218 a                     +0.078720 H =        +2.142 eV
  217.   217 a                     +0.069066 H =        +1.879 eV
  216.   216 a                     +0.061072 H =        +1.662 eV
  215.   215 a                     +0.057843 H =        +1.574 eV
  214.   214 a        2.000        -0.348532 H =        -9.484 eV
  213.   213 a        2.000        -0.349951 H =        -9.523 eV
  212.   212 a        2.000        -0.360992 H =        -9.823 eV
  211.   211 a        2.000        -0.362168 H =        -9.855 eV
  210.   210 a        2.000        -0.368421 H =       -10.025 eV
  209.   209 a        2.000        -0.377232 H =       -10.265 eV
  208.   208 a        2.000        -0.379510 H =       -10.327 eV
  207.   207 a        2.000        -0.381018 H =       -10.368 eV
  206.   206 a        2.000        -0.384718 H =       -10.469 eV
  205.   205 a        2.000        -0.385255 H =       -10.483 eV
  204.   204 a        2.000        -0.399400 H =       -10.868 eV
  203.   203 a        2.000        -0.404765 H =       -11.014 eV
  202.   202 a        2.000        -0.412999 H =       -11.238 eV
  201.   201 a        2.000        -0.420114 H =       -11.432 eV
  200.   200 a        2.000        -0.424573 H =       -11.553 eV
  199.   199 a        2.000        -0.437541 H =       -11.906 eV


    ------------------------------------------------------------------------
         total  cpu-time :  10.60 seconds
         total wall-time :  16.44 seconds
    ------------------------------------------------------------------------

   ****  eiger : all done  ****


    2018-03-16 01:42:07.313 

