
   OpenMP run-time library returned nthreads = 28
 operating system is UNIX !

 dscf (c-19-414) : TURBOMOLE V7.3 ( 22142 ) 4 Jul 2018 at 18:12:42
 Copyright (C) 2018 TURBOMOLE GmbH, Karlsruhe


    2019-04-02 16:59:20.492 



                             d s c f - program

                   idea & directorship : reinhart ahlrichs
                   program development : marco haeser
                                         michael baer
                           dft version : oliver treutler


                          quantum chemistry group
                          universitaet  karlsruhe
                                  germany




                          References             
                                                 
          TURBOMOLE:                             
              R. Ahlrichs, M. Baer, M. Haeser, H. Horn, and
              C. Koelmel
              Electronic structure calculations on workstation
              computers: the program system TURBOMOLE
              Chem. Phys. Lett. 162: 165 (1989)
          Density Functional:                              
              O. Treutler and R. Ahlrichs                      
              Efficient Molecular Numerical Integration Schemes
              J. Chem. Phys. 102: 346 (1995)                   
          Parallel Version:                                
              Performance of parallel TURBOMOLE for Density    
              Functional Calculations                          
              M. v. Arnim and R. Ahlrichs                      
              J. Comp. Chem. 19: 1746 (1998)                   
                                         




              +--------------------------------------------------+
              | Atomic coordinate, charge and isotop information |
              +--------------------------------------------------+

                    atomic coordinates            atom    charge  isotop
          1.56047746    2.33669330   -0.07606230    c      6.000     0
          2.87429833    3.89874160   -0.15584845    h      1.000     0
          2.45694619   -0.11894102    0.24047901    c      6.000     0
          4.46666540   -0.45780719    0.39244736    h      1.000     0
          0.76254818   -2.13265455    0.37462849    c      6.000     0
          1.46218198   -4.03915122    0.61250010    h      1.000     0
         -1.82889489   -1.69166486    0.19490624    c      6.000     0
         -3.14678896   -3.25029762    0.30316394    h      1.000     0
         -2.72783551    0.76436262   -0.11799696    c      6.000     0
         -4.73850953    1.10643677   -0.23460981    h      1.000     0
         -1.03132842    2.77557069   -0.25747029    c      6.000     0
         -1.72762902    4.68164948   -0.50617290    h      1.000     0
         -0.51944913    1.26911630    6.08235886    n      7.000     0
         -1.22489786    2.97319844    5.58556314    h      1.000     0
          2.11132684    1.13119104    6.33182791    c      6.000     0
          3.41695812    3.01037948    6.05813120    o      8.000     0
          3.01631690   -1.38985047    6.93296908    c      6.000     0
          5.01385586   -1.67749691    7.18642129    h      1.000     0
          1.35390738   -3.30675309    7.17148374    c      6.000     0
          1.93202661   -5.21239187    7.61845001    h      1.000     0
         -1.18823893   -2.95709343    6.85005617    n      7.000     0
         -2.41419466   -4.39812100    7.03689183    h      1.000     0
         -2.27378891   -0.64255492    6.28424455    c      6.000     0
         -4.53728097   -0.35754024    6.01569143    o      8.000     0
 
       center of nuclear mass  :    0.00792494   -0.07857788    3.82551049
       center of nuclear charge:    0.01978660   -0.10615973    3.77430350

              +--------------------------------------------------+
              |               basis set information              |
              +--------------------------------------------------+

              we will work with the 1s 3p 5d 7f 9g ... basis set
              ...i.e. with spherical basis functions...

   type   atoms  prim   cont   basis
   ---------------------------------------------------------------------------
    c       10     77     55   cc-pVQZ   [5s4p3d2f1g|21s6p3d2f1g]
    h       10     32     30   cc-pVQZ   [4s3p2d1f|6s3p2d1f]
    n        2     77     55   cc-pVQZ   [5s4p3d2f1g|21s6p3d2f1g]
    o        2     77     55   cc-pVQZ   [5s4p3d2f1g|21s6p3d2f1g]
   ---------------------------------------------------------------------------
   total:   24   1398   1070
   ---------------------------------------------------------------------------

   total number of primitive shells          :  111
   total number of contracted shells         :  310
   total number of cartesian basis functions : 1330
   total number of SCF-basis functions       : 1070


 integral neglect threshold       :  0.25E-13
 integral storage threshold THIZE :  0.10E-04
 integral storage threshold THIME :         5


 DENSITY CONVERGENCE CHECK SWITCHED ON !
 SCF CONVERGENCE IF RMS(delta[D]) <     0.1000000000E-06


 symmetry group of the molecule :   c1 

 the group has the following generators :
   c1(z)

    1 symmetry operations found

 there are 1 real representations :   a   

 maximum number of shells which are related by symmetry :  1


    mo occupation :
   irrep   mo's   occupied
    a     1070       50
 
 number of basis functions   :                   1070
 number of occupied orbitals :                     50
 

 automatic virtual orbital shift switched on 
      shift if e(lumo)-e(homo) < 0.10000000    


          ------------------------
          nuclear repulsion energy  :   878.329077593    
          ------------------------


         -----------------
         -S,T+V- integrals
         -----------------

 1e-integrals will be neglected if expon. factor < 0.251275E-14
 
   Difference densities algorithm switched on.
   The maximal number of linear combinations of
   difference densities is                    20 .

 DIIS switched on: error vector is FDS-SDF
 Max. Iterations for DIIS is     :   5
 DIIS matrix (see manual) 
    Scaling factor of diagonals  :  1.200
    threshold for scaling factor :  0.000

 scf convergence criterion : increment of total energy < .1000000D-08
                  and increment of one-electron energy < .1000000D-05

  MOs are in ASCII format !


 reading orbital data $scfmo  from file mos
 orbital characterization : scfconv=9

 DSCF restart information will be dumped onto file mos

 
                                              current damping :  0.700
 ITERATION  ENERGY          1e-ENERGY        2e-ENERGY     RMS[dD(SAO)]   TOL
   1  -643.28650135361    -2622.1162382     1100.5006592    0.000D+00 0.251D-13
          max. resid. norm for Fia-block=  1.164D-01 for orbital      2a         
          max. resid. fock norm         =  2.409D-01 for orbital   1068a         
          Delta Eig. =    29.7658941485 eV 
 
                                              current damping :  0.650
 ITERATION  ENERGY          1e-ENERGY        2e-ENERGY     RMS[dD(SAO)]   TOL
   2  -643.40575829887    -2619.9899765     1098.2551406    0.120D-02 0.165D-13
          Norm of current diis error: 0.96243    
          max. resid. norm for Fia-block=  5.197D-02 for orbital      2a         
          max. resid. fock norm         =  9.828D-02 for orbital   1069a         
          Delta Eig. =    13.0087628301 eV 
 
                                              current damping :  0.600
 ITERATION  ENERGY          1e-ENERGY        2e-ENERGY     RMS[dD(SAO)]   TOL
   3  -643.42998278855    -2620.3782572     1098.6191968    0.537D-03 0.124D-13
          Norm of current diis error: 0.43774    
          max. resid. norm for Fia-block=  2.447D-02 for orbital      2a         
          max. resid. fock norm         =  3.801D-02 for orbital   1068a         
          Delta Eig. =     5.7308192506 eV 
 
                                              current damping :  0.650
 ITERATION  ENERGY          1e-ENERGY        2e-ENERGY     RMS[dD(SAO)]   TOL
   4  -643.43578473884    -2620.1740335     1098.4091712    0.245D-03 0.109D-13
          Norm of current diis error: 0.18529    
          max. resid. norm for Fia-block=  9.076D-03 for orbital     40a         
          max. resid. fock norm         =  1.512D-02 for orbital   1069a         
          Delta Eig. =     2.0414512524 eV 
 
                                              current damping :  0.500
 ITERATION  ENERGY          1e-ENERGY        2e-ENERGY     RMS[dD(SAO)]   TOL
   5  -643.43689336080    -2620.1538237     1098.3878527    0.887D-04 0.101D-13
          Norm of current diis error: 0.81807E-01
          max. resid. norm for Fia-block=  4.805D-03 for orbital     40a         
          max. resid. fock norm         =  5.567D-03 for orbital   1068a         
 mo-orthogonalization: Cholesky decomposition
          Delta Eig. =     0.8235895880 eV 
 
                                              current damping :  0.350
 ITERATION  ENERGY          1e-ENERGY        2e-ENERGY     RMS[dD(SAO)]   TOL
   6  -643.43716055535    -2620.1406368     1098.3743986    0.441D-04 0.945D-14
          Norm of current diis error: 0.34165E-01
          max. resid. norm for Fia-block=  2.222D-03 for orbital     40a         
          max. resid. fock norm         =  2.245D-03 for orbital     40a         
          Delta Eig. =     0.3064360458 eV 
 
                                              current damping :  0.200
 ITERATION  ENERGY          1e-ENERGY        2e-ENERGY     RMS[dD(SAO)]   TOL
   7  -643.43722037642    -2620.1353314     1098.3690334    0.187D-04 0.884D-14
          Norm of current diis error: 0.13427E-01
          max. resid. norm for Fia-block=  1.003D-03 for orbital     32a         
          max. resid. fock norm         =  1.009D-03 for orbital     32a         
          Delta Eig. =     0.0887500046 eV 
 
                                              current damping :  0.050
 ITERATION  ENERGY          1e-ENERGY        2e-ENERGY     RMS[dD(SAO)]   TOL
   8  -643.43723260418    -2620.1336963     1098.3673861    0.761D-05 0.826D-14
          Norm of current diis error: 0.49715E-02
          max. resid. norm for Fia-block=  4.120D-04 for orbital     32a         
          max. resid. fock norm         =  4.222D-04 for orbital     52a         
          Delta Eig. =     0.0195882204 eV 
 
                                              current damping :  0.100
 ITERATION  ENERGY          1e-ENERGY        2e-ENERGY     RMS[dD(SAO)]   TOL
   9  -643.43723471911    -2620.1340109     1098.3676986    0.292D-05 0.773D-14
          Norm of current diis error: 0.16216E-02
          max. resid. norm for Fia-block=  1.269D-04 for orbital     32a         
          max. resid. fock norm         =  1.334D-04 for orbital     52a         
          Delta Eig. =     0.0063765379 eV 
 
                                              current damping :  0.150
 ITERATION  ENERGY          1e-ENERGY        2e-ENERGY     RMS[dD(SAO)]   TOL
  10  -643.43723491367    -2620.1333773     1098.3670648    0.912D-06 0.744D-14
          Norm of current diis error: 0.66803E-03
          max. resid. norm for Fia-block=  5.321D-05 for orbital     47a         
          max. resid. fock norm         =  6.593D-05 for orbital     47a         
 mo-orthogonalization: Cholesky decomposition
          Delta Eig. =     0.0033199478 eV 
 
                                              current damping :  0.200
 ITERATION  ENERGY          1e-ENERGY        2e-ENERGY     RMS[dD(SAO)]   TOL
  11  -643.43723493781    -2620.1338861     1098.3675736    0.259D-06 0.730D-14
          Norm of current diis error: 0.31431E-03
          max. resid. norm for Fia-block=  1.667D-05 for orbital     46a         
          max. resid. fock norm         =  2.188D-05 for orbital   1000a         
          Delta Eig. =     0.0010282878 eV 
 
                                              current damping :  0.250
 ITERATION  ENERGY          1e-ENERGY        2e-ENERGY     RMS[dD(SAO)]   TOL
  12  -643.43723494289    -2620.1337635     1098.3674510    0.130D-06 0.717D-14
          Norm of current diis error: 0.10726E-03
          max. resid. norm for Fia-block=  8.583D-06 for orbital     47a         
          max. resid. fock norm         =  8.669D-06 for orbital     47a         
          Delta Eig. =     0.0001152771 eV 

 DENSITY CONVERGED !

 
                                              current damping :  0.300
 ITERATION  ENERGY          1e-ENERGY        2e-ENERGY     RMS[dD(SAO)]   TOL
  13  -643.43723494390    -2620.1337753     1098.3674628    0.555D-07 0.701D-14
          Norm of current diis error: 0.57301E-04
          max. resid. norm for Fia-block=  4.698D-06 for orbital     50a         
          max. resid. fock norm         =  4.701D-06 for orbital     50a         
          Delta Eig. =     0.0000707537 eV 

 ENERGY & DENSITY CONVERGED !

 
                                              current damping :  0.350
 ITERATION  ENERGY          1e-ENERGY        2e-ENERGY     RMS[dD(SAO)]   TOL
  14  -643.43723494419    -2620.1337739     1098.3674613    0.315D-07 0.714D-14
          max. resid. norm for Fia-block=  1.696D-06 for orbital     49a         
          max. resid. fock norm         =  1.719D-06 for orbital     49a         

 convergence criteria satisfied after    14 iterations


                  ------------------------------------------ 
                 |  total energy      =   -643.43723494419  |
                  ------------------------------------------ 
                 :  kinetic energy    =    642.63879165719  :
                 :  potential energy  =  -1286.07602660138  :
                 :  virial theorem    =      1.99875909686  :
                 :  wavefunction norm =      1.00000000000  :
                  .......................................... 


 orbitals $scfmo  will be written to file mos

    irrep                 46a         47a         48a         49a         50a   
 eigenvalues H         -0.44188    -0.42855    -0.36282    -0.33802    -0.33509
            eV         -12.0244    -11.6614     -9.8728     -9.1981     -9.1183
 occupation              2.0000      2.0000      2.0000      2.0000      2.0000 

    irrep                 51a         52a         53a         54a         55a   
 eigenvalues H          0.08486     0.09163     0.11828     0.11996     0.12478
            eV           2.3091      2.4934      3.2186      3.2643      3.3956
 
 
 
 
 ==============================================================================
                           electrostatic moments
 ==============================================================================

 reference point for electrostatic moments:    0.00000   0.00000   0.00000

 
              nuc           elec       ->  total
 ------------------------------------------------------------------------------
                          charge      
 ------------------------------------------------------------------------------
         100.000000    -100.000000       0.000000
 
 ------------------------------------------------------------------------------
                       dipole moment  
 ------------------------------------------------------------------------------
   x       1.978660      -1.766001       0.212659
   y     -10.615973       8.843833      -1.772140
   z     377.430350    -377.141268       0.289081
 
   | dipole moment | =     1.8081 a.u. =     4.5958 debye 
 
 ------------------------------------------------------------------------------
                     quadrupole moment
 ------------------------------------------------------------------------------
  xx     620.534368    -687.448876     -66.914508
  yy     483.990805    -536.296130     -52.305325
  zz    2438.315973   -2498.931529     -60.615556
  xy      74.222900     -78.871072      -4.648172
  xz      82.443488     -80.543489       1.899999
  yz    -226.243912     211.822524     -14.421388
 
     1/3  trace=     -59.945130
     anisotropy=      29.336978
 
 ==============================================================================
 


    ------------------------------------------------------------------------
         total  cpu-time :  6 hours  5 minutes and 39 seconds
         total wall-time : 16 minutes and 10 seconds
    ------------------------------------------------------------------------

   ****  dscf : all done  ****


    2019-04-02 17:15:30.639 

