
   OpenMP run-time library returned nthreads = 28

 ricc2 (c-13-32) : TURBOMOLE V7.3 ( 22142 ) 4 Jul 2018 at 18:12:42
 Copyright (C) 2018 TURBOMOLE GmbH, Karlsruhe


    2019-04-01 11:18:03.164 



                              R I C C 2 - PROGRAM

                          the quantum chemistry groups
                             at the universities in
                           Karlsruhe, Bochum & Mainz
                                   Germany



   *-----------------------------------------------------------------------*
   |                     program will use 28 thread(s)                     |
   *-----------------------------------------------------------------------*


              +--------------------------------------------------+
              | Atomic coordinate, charge and isotop information |
              +--------------------------------------------------+

                    atomic coordinates            atom    charge  isotop
         -2.81102809   -2.32727899   -3.26733648    c      6.000     0
         -0.12371659   -2.32727899   -3.26733648    c      6.000     0
          1.21993916    0.00000000   -3.26733648    c      6.000     0
         -0.12371659    2.32727899   -3.26733648    c      6.000     0
         -2.81102809    2.32727899   -3.26733648    c      6.000     0
         -4.15468385    0.00000000   -3.26733648    c      6.000     0
          1.21375598   -4.64385079   -3.26733648    c      6.000     0
         -0.17645885   -6.93685015   -3.26733648    c      6.000     0
         -2.75828584   -6.93685015   -3.26733648    c      6.000     0
         -4.14850066   -4.64385079   -3.26733648    c      6.000     0
         -6.82962898    0.00000000   -3.26733648    c      6.000     0
         -8.12031760   -2.35046026   -3.26733648    c      6.000     0
         -6.82940410   -4.58638989   -3.26733648    c      6.000     0
         -8.12031760    2.35046026   -3.26733648    c      6.000     0
         -6.82940410    4.58638989   -3.26733648    c      6.000     0
         -4.14850066    4.64385079   -3.26733648    c      6.000     0
         -2.75828584    6.93685015   -3.26733648    c      6.000     0
         -0.17645885    6.93685015   -3.26733648    c      6.000     0
          1.21375598    4.64385079   -3.26733648    c      6.000     0
          3.89465942    4.58638989   -3.26733648    c      6.000     0
          5.18557291    2.35046026   -3.26733648    c      6.000     0
          3.89488430    0.00000000   -3.26733648    c      6.000     0
          5.18557291   -2.35046026   -3.26733648    c      6.000     0
          3.89465942   -4.58638989   -3.26733648    c      6.000     0
          0.84958307   -8.70675631   -3.26733648    h      1.000     0
         -3.78432965   -8.70675631   -3.26733648    h      1.000     0
         -7.84916647   -6.35992054   -3.26733648    h      1.000     0
        -10.16612188   -2.34683577   -3.26733648    h      1.000     0
        -10.16612188    2.34683577   -3.26733648    h      1.000     0
         -7.84916647    6.35992054   -3.26733648    h      1.000     0
         -3.78432965    8.70675631   -3.26733648    h      1.000     0
          0.84958307    8.70675631   -3.26733648    h      1.000     0
          4.91442178    6.35992054   -3.26733648    h      1.000     0
          7.23137720    2.34683577   -3.26733648    h      1.000     0
          7.23137720   -2.34683577   -3.26733648    h      1.000     0
          4.91442178   -6.35992054   -3.26733648    h      1.000     0
 
       center of nuclear mass  :   -1.46737235   -0.00000000   -3.26733648
       center of nuclear charge:   -1.46737237    0.00000000   -3.26733648

              +--------------------------------------------------+
              |               basis set information              |
              +--------------------------------------------------+

              we will work with the 1s 3p 5d 7f 9g ... basis set
              ...i.e. with spherical basis functions...

   type   atoms  prim   cont   basis
   ---------------------------------------------------------------------------
    c       24     77     55   cc-pVQZ   [5s4p3d2f1g|21s6p3d2f1g]
    h       12     32     30   cc-pVQZ   [4s3p2d1f|6s3p2d1f]
   ---------------------------------------------------------------------------
   total:   36   2232   1680
   ---------------------------------------------------------------------------

   total number of primitive shells          :   45
   total number of contracted shells         :  480
   total number of cartesian basis functions : 2100
   total number of SCF-basis functions       : 1680


 symmetry group of the molecule :   c1 

 the group has the following generators :
   c1(z)

    1 symmetry operations found

 there are 1 real representations :   a   


   =========================================================================


     restricted closed shell calculation for the wavefunction models:
               MP2        - Second Order Moeller Plesset PT


     global parameters for ricc2 program:

        hard restart (reuse of interm.) :  enabled 
        soft restart (reuse of vectors) :  disabled
        threshold for vector function   :    0.100000E-05
        convergence threshold energy    :    0.100000E-06
        linear dependence threshold     :    0.100000E-13
        global print level              :      1
        maximum number of iterations    :   100
        maximum number DIIS vectors     :    10
        max. dim. of reduced space      :   100
        core memory limit (MB)          : *****


     MP2 energy only: Energy will be calculated directly from T2 amplitudes!

     Scratch Directory : 


   =========================================================================

    der. integral neglect threshold  :  0.10E-07
    integral neglect threshold       :  0.16E-11
    integral storage threshold THIZE :  0.10E-04
    integral storage threshold THIME :         5


                  +------------------------------------------+
                  |     Auxiliary basis set information      |
                  +------------------------------------------+

              we will work with the 1s 3p 5d 7f 9g ... basis set
              ...i.e. with spherical basis functions...

   type   atoms  prim   cont   basis
   ---------------------------------------------------------------------------
    c       24    132    132   cc-pVQZ   [8s7p6d5f3g1h|8s7p6d5f3g1h]
    h       12     55     55   cc-pVQZ   [5s4p3d2f1g|5s4p3d2f1g]
   ---------------------------------------------------------------------------
   total:   36   3828   3828
   ---------------------------------------------------------------------------

   total number of primitive shells          :   45
   total number of contracted shells         :  900
   total number of cartesian basis functions : 5184
   total number of SCF-basis functions       : 3828


 maximum number of shells which are related by symmetry :  1


 The symmetry information takes   1 MB

*---------------------------------------------------------------------*
|               simplified C1 algorithm will be applied               |
*---------------------------------------------------------------------*
  MOs are in ASCII format !


 reading orbital data $scfmo  from file mos
 orbital characterization : scfconv=9



              +--------------------------------------------+
              | list of orbitals that will be kept frozen: |
              +--------------------------------------------+
              |   irrep   index      energy     occ/vir    |
              +--------------------------------------------+
              |   a         1      -11.2466     occupied   |
              |   a         2      -11.2462     occupied   |
              |   a         3      -11.2462     occupied   |
              |   a         4      -11.2457     occupied   |
              |   a         5      -11.2457     occupied   |
              |   a         6      -11.2456     occupied   |
              |   a         7      -11.2451     occupied   |
              |   a         8      -11.2450     occupied   |
              |   a         9      -11.2450     occupied   |
              |   a        10      -11.2444     occupied   |
              |   a        11      -11.2444     occupied   |
              |   a       ...        ...        occupied   |
              |   a        24      -11.2369     occupied   |
              +--------------------------------------------+



   Molecular Orbital Statistic:
   ============================

   -----------------------------
   orbitals in total:
   -----------------------------
    frozen occupied :     24
    active occupied :     54
    active virtual  :   1602
    frozen virtual  :      0
    all together    :   1680
   -----------------------------


     time in riccmos       cpu: 19.13 sec    wall:  3.99 sec    ratio:  4.8

     total memory allocated for calculation of (Q|P)**(-1/2) : 168 MiB


     calculation of (P|Q) ...
     time in lp2sym        cpu: 12.30 sec    wall:  0.46 sec    ratio: 26.8


     calculation of the Cholesky decomposition of (P|Q)**(-1) ...

  ----------------------------------------------------------------------------
  hard_restart flag is disabled because the check sum for the
  (P|Q)**(-1/2) "$chkCCVPQ_ISQR" differs from the reference value:
  reference value:     45488.0938708091    
  computed value :     45488.0938560464    
  relative error :    0.324540342144260E-09
  tolerance      :    0.100000000000000E-11
  the calculation will proceed...
  ----------------------------------------------------------------------------
     time in invmetri      cpu:  1 min 40 s  wall:  0 min  4 s  ratio: 22.5

   threshold for RMS(d[D]) in SCF was     :  0.10E-06
   integral neglect threshold             :  0.16E-11
   derivative integral neglect threshold  :  0.10E-07


   =========================================================================

     Energy of reference wave function is  -916.2740223752000
     Maximum orbital residual is           0.2704213924892E-06


     Number of symmetry-nonredundant auxiliary basis functions:     3828

     Block lengths for integral files:
        frozen occupied (BOI):        1 MiB
        active occupied (BJI):        2 MiB
        active virtual  (BAI):       47 MiB
        frozen virtual  (BGI):        0 MiB
               general  (BTI):       50 MiB

   =========================================================================




   **************************************************************************
   *                                                                        *
   *          OPTIMIZATION OF THE GROUND STATE CLUSTER AMPLITUDES           *
   *                                                                        *
   **************************************************************************


   Iter.   MP2 energy       Norm(Omega)   Norm(t1)  Norm(t2)     cpu    wall
   ...........................................................................
    1   -920.2167114202     ------          0.00000   0.68437  126.70    4.69
   ...........................................................................


     time in total         cpu:  2 h  6 min  wall:  0 h  4 min  ratio: 27.0


     **********************************************************************
     *                                                                    *
     *   RHF  energy                             :   -916.2740223752      *
     *   MP2 correlation energy (doubles)        :     -3.9426890450      *
     *                                                                    *
     *   Final MP2 energy                        :   -920.2167114202      *
     *                                                                    *
     *    E(S)   =     -2.3918974194      E(T)   =     -1.5507916257      *
     *    E(OS)  =     -2.9088279613      E(SS)  =     -1.0338610838      *
     *                                                                    *
     *   SCS-MP2 energy                          :   -920.1092362900      *
     *   (computed with  C(OS) =   1.2000  and  C(SS) =   0.3333)         *
     *                                                                    *
     *   SOS-MP2 energy                          :   -920.0554987248      *
     *   (computed with  C(OS) =   1.3000)                                *
     *                                                                    *
     *   Norm of MP1 T2 amplitudes               :      0.6843748035      *
     *                                                                    *
     **********************************************************************



    ------------------------------------------------------------------------
         total  cpu-time :  2 hours 22 minutes and 21 seconds
         total wall-time :  5 minutes and 24 seconds
    ------------------------------------------------------------------------

   ****  ricc2 : all done  ****


    2019-04-01 11:23:27.310 

