           Doing BLAS/Lapack in the master proc. with  8 CPUs.
           SMPCPUS    set: Shared-memory Parallelization with   8 CPUs.

           SMP Parallelization Reference:
           C. van Wullen, J. Comput. Chem. 32 (2011) 1195--1201
 operating system is UNIX !

 ridft (c-18-212.gp.local) : TURBOMOLE V7.2 ( 21454 ) 4 Oct 2017 at 12:48:15
 Copyright (C) 2017 TURBOMOLE GmbH, Karlsruhe


    2018-04-28 20:54:32.755 



                                  r i d f t

                        DFT program with RI approximation 
                                for coulomb part 




                                                 
                                 References:     
                                                 
          TURBOMOLE:                             
              R. Ahlrichs, M. Baer, M. Haeser, H. Horn, and
              C. Koelmel
              Electronic structure calculations on workstation
              computers: the program system TURBOMOLE
              Chem. Phys. Lett. 162: 165 (1989)
          Density Functional:                              
              O. Treutler and R. Ahlrichs                      
              Efficient Molecular Numerical Integration Schemes
              J. Chem. Phys. 102: 346 (1995)                   
          Parallel Version:                                
              Performance of parallel TURBOMOLE for Density    
              Functional Calculations                          
              M. v. Arnim and R. Ahlrichs                      
              J. Comp. Chem. 19: 1746 (1998)                   
          RI-J Method:                                     
              Auxiliary Basis Sets to approximate Coulomb      
              Potentials                                       
              Chem. Phys. Lett. 240: 283 (1995)                
              K. Eichkorn, O. Treutler, H. Oehm, M. Haeser     
              and R. Ahlrichs                                  
              Chem. Phys. Lett. 242: 652 (1995)                
                                                           
              Auxiliary Basis Sets for Main Row Atoms and their
              Use to approximate Coulomb Potentials            
              K. Eichkorn, F. Weigend, O. Treutler and         
              R. Ahlrichs                                      
              Theo. Chem. Acc. 97: 119 (1997)                   
                                                           
              Accurate Coulomb-fitting basis sets for H to Rn 
              F. Weigend                                        
              Phys. Chem. Chem. Phys. 8: 1057 (2006)            
                                                           
          Multipole accelerated RI-J (MARI-J):             
              Fast evaluation of the Coulomb potential for     
              electron densities using multipole accelerated   
              resolution of identity approximation             
              M. Sierka, A. Hogekamp and R. Ahlrichs           
              J. Chem. Phys. 118: 9136 (2003)                  
          RI-JK Method:                                     
              A fully direct RI-HF algorithm: Implementation,
              optimised auxiliary basis sets, demonstration of
              accuracy and efficiency                         
              F. Weigend                                      
              Phys. Chem. Chem. Phys. 4: 4285 (2002)           
          Two-component HF and DFT with spin-orbit coupling:  
              Self-consistent treatment of spin-orbit         
              interactions with efficient Hartree-Fock and    
              density functional methods                      
              M. K. Armbruster, F. Weigend, C. van Wüllen and 
              W. Klopper                                      
              Phys. Chem. Chem. Phys. 10: 1748 (2008)         
          Relativistic all-electron 2c calculations           
              An efficient implementation of two-component    
              relativistic exact-decoupling methods for large 
              molecules                                       
              D. Peng, N. Middendorf, F. Weigend, M. Reiher   
              J. Chem. Phys. 138, 184105 (2013)               
                                         




              +--------------------------------------------------+
              |      general information about current run       |
              +--------------------------------------------------+

 

 DENSITY CONVERGENCE CHECK SWITCHED ON !
 SCF CONVERGENCE IF RMS(delta[D]) <     0.1000000000E-06

 PBE functional
 exchange:    LDA + PBE
 correlation: LDA (PW) + PBE
 A DFT calculation using the RI-J approximation will be carried out.
 Allocatable memory for RI due to $ricore (MB):                  5000


              +--------------------------------------------------+
              | Atomic coordinate, charge and isotop information |
              +--------------------------------------------------+

                    atomic coordinates            atom    charge  isotop
         -1.37949844    0.04302458    0.00172843    n      0.000     0
          0.56393690    0.13984817    0.00306710    h      0.000     0
         -2.45064320   -2.34406698    0.00283900    c      0.000     0
         -1.12268414   -4.25853093    0.00497698    o      0.000     0
         -5.18469474   -2.38546120    0.00090589    c      0.000     0
         -6.14083600   -4.17976272    0.00157434    h      0.000     0
         -6.46668057   -0.18124213   -0.00174344    c      0.000     0
         -8.50546285   -0.09300481   -0.00329845    h      0.000     0
         -5.24368170    2.08892017   -0.00267977    n      0.000     0
         -6.20555461    3.73008769   -0.00469737    h      0.000     0
         -2.62951359    2.33762860   -0.00099283    c      0.000     0
         -1.58707461    4.37856212   -0.00189209    o      0.000     0
          7.83070283   -2.05168288    0.00094349    n      7.000     0
          8.67587109   -0.33850781    0.00167447    h      1.000     0
          9.44839867   -4.15800525   -0.00189086    c      6.000     0
         11.73393176   -3.87132545   -0.00330664    o      8.000     0
          8.09872144   -6.54316756   -0.00284403    c      6.000     0
          9.16941107   -8.27232508   -0.00499574    h      1.000     0
          5.54727184   -6.55038230   -0.00102971    c      6.000     0
          4.45696933   -8.27563567   -0.00163192    h      1.000     0
          4.15267019   -4.37553270    0.00171117    n      7.000     0
          2.21317573   -4.41605372    0.00299065    h      1.000     0
          5.23505040   -2.02345664    0.00275174    c      6.000     0
          4.00612203   -0.05583920    0.00508819    o      8.000     0
 
       center of nuclear mass  :    1.90528142   -1.80827455    0.00032245
       center of nuclear charge:    6.97062280   -3.67862791    0.00022061

              +--------------------------------------------------+
              |               basis set information              |
              +--------------------------------------------------+

              we will work with the 1s 3p 5d 7f 9g ... basis set
              ...i.e. with spherical basis functions...

   type   atoms  prim   cont   basis
   ---------------------------------------------------------------------------
    n        4     77     55   cc-pVQZ   [5s4p3d2f1g|21s6p3d2f1g]
    h        8     32     30   cc-pVQZ   [4s3p2d1f|6s3p2d1f]
    c        8     77     55   cc-pVQZ   [5s4p3d2f1g|21s6p3d2f1g]
    o        4     77     55   cc-pVQZ   [5s4p3d2f1g|21s6p3d2f1g]
   ---------------------------------------------------------------------------
   total:   24   1488   1120
   ---------------------------------------------------------------------------

   total number of primitive shells          :  111
   total number of contracted shells         :  320
   total number of cartesian basis functions : 1400
   total number of SCF-basis functions       : 1120


 integral neglect threshold       :  0.24E-13
 integral storage threshold THIZE :  0.10E-04
 integral storage threshold THIME :         5

 RI-J AUXILIARY BASIS SET information:

              we will work with the 1s 3p 5d 7f 9g ... basis set
              ...i.e. with spherical basis functions...

   type   atoms  prim   cont   basis
   ---------------------------------------------------------------------------
    n        4     70     49   cc-pVQZ   [6s4p3d1f1g|12s5p4d2f1g]
    h        8     16     11   cc-pVQZ   [3s1p1d|5s2p1d]
    c        8     70     49   cc-pVQZ   [6s4p3d1f1g|12s5p4d2f1g]
    o        4     70     49   cc-pVQZ   [6s4p3d1f1g|12s5p4d2f1g]
   ---------------------------------------------------------------------------
   total:   24   1248    872
   ---------------------------------------------------------------------------

   total number of primitive shells          :   80
   total number of contracted shells         :  280
   total number of cartesian basis functions : 1072
   total number of SCF-basis functions       :  872


 symmetry group of the molecule :   c1 

 the group has the following generators :
   c1(z)

    1 symmetry operations found

 there are 1 real representations :   a   

 maximum number of shells which are related by symmetry :  1


    mo occupation :
   irrep   mo's   occupied
    a     1120       29
 
 number of basis functions   :                   1120
 number of occupied orbitals :                     29
 
  
           ------------------
           density functional
           ------------------
 Dummy atoms with grid-point found.
 DFT quadrature threshold dgrenze tightened by factor 1/10.

 PBE functional
 exchange:    LDA + PBE
 correlation: LDA (PW) + PBE
 Dummy atoms with grid-point found.
 DFT quadrature threshold dgrenze tightened by factor 1/10.

 Dummy atoms with grid-point found.
 DFT quadrature threshold dgrenze tightened by factor 1/10.


 iterations will be done with small grid
  
 spherical integration : Lebedev's spherical grid
 spherical gridsize    :                     5
    i.e. gridpoints    :                   590
 value for diffuse not defined
 radial integration    : Chebyshev 2nd kind (scaling 3)
 radial gridsize       :                     8
 integration cells     :                    24
 partition function    : becke
 partition sharpness   :                     3
  
 found dummy atom(s) with basis: included in dft

 biggest AO integral is expected to be     4.785886462
  
           ------------------------
               RI-J - INFORMATION
           ------------------------
 Contributions to RI integral batches: 
  neglected integral batches:                 20410
  direct contribution:                            0
  memory contribution:                 30950
 Memory core needed for (P|Q) and Cholesky      6 MByte
 Memory core minimum needed except of (P|Q)     5 MByte
 Total minimum memory core needed (sum)        11 MByte
  
 ****************************************
 Memory allocated for RI-J  4560 MByte
 ****************************************
                                            

          ------------------------
          nuclear repulsion energy  :   357.228241914    
          ------------------------


         -----------------
         -S,T+V- integrals
         -----------------

 1e-integrals will be neglected if expon. factor < 0.238712E-14
 Difference densities >>NOT<< switched on in parallel ridft!

 DIIS switched on: error vector is FDS-SDF
 Max. Iterations for DIIS is     :   4
 DIIS matrix (see manual) 
    Scaling factor of diagonals  :  1.200
    threshold for scaling factor :  0.000

 scf convergence criterion : increment of total energy < .1000000D-08
                  and increment of one-electron energy < .1000000D-05

  MOs are in ASCII format !


 automatic virtual orbital shift switched on 
      shift if e(lumo)-e(homo) < 0.10000000    


 reading orbital data $scfmo  from file mos
 orbital characterization : expanded
 mo provided and orthogonalized by Cholesky decomposition

 DSCF restart information will be dumped onto file mos


 Starting SCF iterations

          Overall gridpoints after grid construction =        158932

 ITERATION  ENERGY          1e-ENERGY        2e-ENERGY     RMS[dD(SAO)]   TOL
   1  -412.61622048353    -1261.8521960     492.00773365    0.000D+00 0.238D-13
                            Exc = -53.5473306677     Coul =  545.555064315    
                              N = 58.000007037    
                            current damping = 0.700
 
          max. resid. norm for Fia-block=  4.583D-01 for orbital     20a         
          max. resid. fock norm         =  3.281D+01 for orbital   1054a         

 ITERATION  ENERGY          1e-ENERGY        2e-ENERGY     RMS[dD(SAO)]   TOL
   2  -414.27135831063    -1268.7801609     497.28056064    0.222D-02 0.238D-13
                            Exc = -53.5590072077     Coul =  550.839567848    
                              N = 57.999986081    
                            current damping = 0.650
 
          Norm of current diis error:  3.1562    
          max. resid. norm for Fia-block=  1.640D-01 for orbital      2a         
          max. resid. fock norm         =  3.431D-01 for orbital    952a         

 ITERATION  ENERGY          1e-ENERGY        2e-ENERGY     RMS[dD(SAO)]   TOL
   3  -414.47751123344    -1271.4057539     499.70000072    0.140D-02 0.238D-13
                            Exc = -53.8241317733     Coul =  553.524132497    
                              N = 57.999979153    
                            current damping = 0.550
 
          Norm of current diis error:  1.5022    
          max. resid. norm for Fia-block=  6.587D-02 for orbital      2a         
          max. resid. fock norm         =  7.978D-02 for orbital    538a         

 ITERATION  ENERGY          1e-ENERGY        2e-ENERGY     RMS[dD(SAO)]   TOL
   4  -414.53559733503    -1271.6679397     499.90410042    0.116D-02 0.238D-13
                            Exc = -53.7370748458     Coul =  553.641175264    
                              N = 57.999967737    
                            current damping = 0.400
 
          Norm of current diis error: 0.69617    
          max. resid. norm for Fia-block=  3.093D-02 for orbital     10a         
          max. resid. fock norm         =  7.110D-02 for orbital    913a         

 ITERATION  ENERGY          1e-ENERGY        2e-ENERGY     RMS[dD(SAO)]   TOL
   5  -414.54460611492    -1271.9430712     500.17022320    0.435D-03 0.238D-13
                            Exc = -53.8289027072     Coul =  553.999125908    
                              N = 57.999968057    
                            current damping = 0.250
 
          Norm of current diis error: 0.44834    
          max. resid. norm for Fia-block=  1.055D-02 for orbital     26a         
          max. resid. fock norm         =  1.250D-02 for orbital    748a         
          mo-orthogonalization: Cholesky decomposition

 ITERATION  ENERGY          1e-ENERGY        2e-ENERGY     RMS[dD(SAO)]   TOL
   6  -414.54991787472    -1272.3062968     500.52813702    0.371D-03 0.238D-13
                            Exc = -53.8247425268     Coul =  554.352879549    
                              N = 57.999965663    
                            current damping = 0.100
 
          Norm of current diis error: 0.11625    
          max. resid. norm for Fia-block=  4.084D-03 for orbital     26a         
          max. resid. fock norm         =  6.489D-03 for orbital   1001a         

 ITERATION  ENERGY          1e-ENERGY        2e-ENERGY     RMS[dD(SAO)]   TOL
   7  -414.54997529989    -1272.0146224     500.23640522    0.988D-04 0.238D-13
                            Exc = -53.8005670547     Coul =  554.036972275    
                              N = 57.999964394    
                            current damping = 0.150
 
          Norm of current diis error: 0.10342    
          max. resid. norm for Fia-block=  2.394D-03 for orbital     28a         
          max. resid. fock norm         =  4.019D-03 for orbital   1108a         

 ITERATION  ENERGY          1e-ENERGY        2e-ENERGY     RMS[dD(SAO)]   TOL
   8  -414.55021109533    -1272.1135958     500.33514281    0.324D-04 0.238D-13
                            Exc = -53.8131887172     Coul =  554.148331525    
                              N = 57.999964996    
                            current damping = 0.200
 
          Norm of current diis error: 0.34348E-01
          max. resid. norm for Fia-block=  1.134D-03 for orbital     28a         
          max. resid. fock norm         =  2.108D-03 for orbital    959a         

 ITERATION  ENERGY          1e-ENERGY        2e-ENERGY     RMS[dD(SAO)]   TOL
   9  -414.55021969562    -1272.1747099     500.39624828    0.324D-04 0.238D-13
                            Exc = -53.8183277681     Coul =  554.214576045    
                              N = 57.999965069    
                            current damping = 0.050
 
          Norm of current diis error: 0.28355E-01
          max. resid. norm for Fia-block=  7.828D-04 for orbital     29a         
          max. resid. fock norm         =  1.456D-03 for orbital   1009a         

 ITERATION  ENERGY          1e-ENERGY        2e-ENERGY     RMS[dD(SAO)]   TOL
  10  -414.55023851244    -1272.1560057     500.37752532    0.240D-04 0.238D-13
                            Exc = -53.8143691370     Coul =  554.191894460    
                              N = 57.999964966    
                            current damping = 0.100
 
          Norm of current diis error: 0.14898E-01
          max. resid. norm for Fia-block=  3.107D-04 for orbital     23a         
          max. resid. fock norm         =  5.309D-04 for orbital   1009a         
          mo-orthogonalization: Cholesky decomposition

 ITERATION  ENERGY          1e-ENERGY        2e-ENERGY     RMS[dD(SAO)]   TOL
  11  -414.55024417498    -1272.1462596     500.36777350    0.660D-05 0.238D-13
                            Exc = -53.8151786853     Coul =  554.182952183    
                              N = 57.999964982    
                            current damping = 0.050
 
          Norm of current diis error: 0.35836E-02
          max. resid. norm for Fia-block=  8.248D-05 for orbital     24a         
          max. resid. fock norm         =  1.149D-04 for orbital     23a         

 ITERATION  ENERGY          1e-ENERGY        2e-ENERGY     RMS[dD(SAO)]   TOL
  12  -414.55024441298    -1272.1515191     500.37303277    0.908D-06 0.238D-13
                            Exc = -53.8151772514     Coul =  554.188210017    
                              N = 57.999964996    
                            current damping = 0.100
 
          Norm of current diis error: 0.17757E-02
          max. resid. norm for Fia-block=  4.294D-05 for orbital     14a         
          max. resid. fock norm         =  8.682D-05 for orbital   1109a         

 ITERATION  ENERGY          1e-ENERGY        2e-ENERGY     RMS[dD(SAO)]   TOL
  13  -414.55024445808    -1272.1502139     500.37172749    0.439D-06 0.238D-13
                            Exc = -53.8151475518     Coul =  554.186875038    
                              N = 57.999964982    
                            current damping = 0.150
 
          Norm of current diis error: 0.10021E-02
          max. resid. norm for Fia-block=  2.411D-05 for orbital     27a         
          max. resid. fock norm         =  4.188D-05 for orbital    940a         

 ITERATION  ENERGY          1e-ENERGY        2e-ENERGY     RMS[dD(SAO)]   TOL
  14  -414.55024447466    -1272.1495489     500.37106253    0.383D-06 0.238D-13
                            Exc = -53.8151297244     Coul =  554.186192259    
                              N = 57.999964988    
                            current damping = 0.050
 
          Norm of current diis error: 0.48466E-03
          max. resid. norm for Fia-block=  1.546D-05 for orbital     26a         
          max. resid. fock norm         =  3.133D-05 for orbital    995a         

 ITERATION  ENERGY          1e-ENERGY        2e-ENERGY     RMS[dD(SAO)]   TOL
  15  -414.55024447815    -1272.1498937     500.37140726    0.419D-06 0.238D-13
                            Exc = -53.8151460368     Coul =  554.186553301    
                              N = 57.999964986    
                            current damping = 0.100
 
          Norm of current diis error: 0.33420E-03
          max. resid. norm for Fia-block=  7.545D-06 for orbital     26a         
          max. resid. fock norm         =  1.540D-05 for orbital    995a         
          mo-orthogonalization: Cholesky decomposition

 ITERATION  ENERGY          1e-ENERGY        2e-ENERGY     RMS[dD(SAO)]   TOL
  16  -414.55024448135    -1272.1499766     500.37149019    0.188D-06 0.238D-13
                            Exc = -53.8151528562     Coul =  554.186643049    
                              N = 57.999964987    
                            current damping = 0.050
 
          Norm of current diis error: 0.86310E-04
          max. resid. norm for Fia-block=  3.463D-06 for orbital     28a         
          max. resid. fock norm         =  5.584D-06 for orbital   1108a         

 DENSITY CONVERGED !


 ITERATION  ENERGY          1e-ENERGY        2e-ENERGY     RMS[dD(SAO)]   TOL
  17  -414.55024448131    -1272.1498447     500.37135830    0.423D-07 0.238D-13
                            Exc = -53.8151383163     Coul =  554.186496615    
                              N = 57.999964987    
                            current damping = 0.100
 
          Norm of current diis error: 0.96664E-04
          max. resid. norm for Fia-block=  1.734D-06 for orbital     28a         
          max. resid. fock norm         =  3.162D-06 for orbital   1108a         

 ENERGY & DENSITY CONVERGED !

          Overall gridpoints after grid construction =        397318

 ITERATION  ENERGY          1e-ENERGY        2e-ENERGY     RMS[dD(SAO)]   TOL
  18  -414.55025157245    -1272.1498495     500.37135597    0.204D-07 0.238D-13
                            Exc = -53.8151509814     Coul =  554.186506951    
                              N = 57.999978365    
                            current damping = 0.150
 
          Norm of current diis error: 0.26496E-04
          max. resid. norm for Fia-block=  5.943D-07 for orbital     23a         
          max. resid. fock norm         =  9.696D-07 for orbital   1103a         

 End of SCF iterations

   convergence criteria satisfied after    18 iterations


                  ------------------------------------------ 
                 |  total energy      =   -414.55025157245  |
                  ------------------------------------------ 
                 :  kinetic energy    =    412.99885214538  :
                 :  potential energy  =   -827.54910371784  :
                 :  virial theorem    =      1.99625763241  :
                 :  wavefunction norm =      1.00000000000  :
                  .......................................... 


 <geterg> : there is no data group $energy 


 <skperg> : $end is missing 


 orbitals $scfmo  will be written to file mos

    irrep                 25a         26a         27a         28a         29a   
 eigenvalues H         -0.33949    -0.25893    -0.25481    -0.23420    -0.22708
            eV          -9.2382     -7.0458     -6.9337     -6.3729     -6.1792
 occupation              2.0000      2.0000      2.0000      2.0000      2.0000 

    irrep                 30a         31a         32a         33a         34a   
 eigenvalues H         -0.08698    -0.03714    -0.02664     0.01977     0.02527
            eV          -2.3669     -1.0108     -0.7248      0.5380      0.6876
 
 
 
 
 ==============================================================================
                           electrostatic moments
 ==============================================================================

 reference point for electrostatic moments:    0.00000   0.00000   0.00000

 
              nuc           elec       ->  total
 ------------------------------------------------------------------------------
                          charge      
 ------------------------------------------------------------------------------
          58.000000     -58.000000       0.000000
 
 ------------------------------------------------------------------------------
                       dipole moment  
 ------------------------------------------------------------------------------
   x     404.296123    -405.474484      -1.178361
   y    -213.360419     212.078595      -1.281824
   z       0.012795      -0.012941      -0.000146
 
   | dipole moment | =     1.7412 a.u. =     4.4256 debye 
 
 ------------------------------------------------------------------------------
                     quadrupole moment
 ------------------------------------------------------------------------------
  xx    3242.173965   -3297.065572     -54.891607
  yy    1082.562286   -1105.997585     -23.435299
  zz       0.000482     -34.263188     -34.262706
  xy   -1565.541925    1567.671760       2.129835
  xz      -0.271035       0.277919       0.006884
  yz       0.241121      -0.244281      -0.003160
 
     1/3  trace=     -37.529871
     anisotropy=      27.924014
 
 ==============================================================================
 


    ------------------------------------------------------------------------
         total  cpu-time : 15 minutes and  7 seconds
         total wall-time :  2 minutes and 51 seconds
    ------------------------------------------------------------------------

   ****  ridft : all done  ****


    2018-04-28 20:57:24.223 

