STARTING dscf ON 32 PROCESSORS!
RUNNING PROGRAM /sopt/TURBOMOLE/7.2.1-official/bin/em64t-unknown-linux-gnu_mpi/dscf_mpi.
PLEASE WAIT UNTIL dscf HAS FINISHED.
Look for the output in slave1.output.
MACHINEFILE is ./hostlist
 this is node-proc. number 1 running on node c-12-17.gp.local
 the total number of node-proc. spawned is  33
  parallel platform: MPP or cluster with fast interconnect

 dscf (c-12-17.gp.local) : TURBOMOLE V7.2 ( 21471 ) 7 Nov 2017 at 16:15:16
 Copyright (C) 2017 TURBOMOLE GmbH, Karlsruhe


    2018-02-14 22:59:18.298 


 SCF run will be profiled !



                             d s c f - program

                   idea & directorship : reinhart ahlrichs
                   program development : marco haeser
                                         michael baer
                           dft version : oliver treutler
           parallelized version : malte v. arnim, gina corongiu, GMD 


                          quantum chemistry group
                          universitaet  karlsruhe
                                  germany




                          References             
                                                 
          TURBOMOLE:                             
              R. Ahlrichs, M. Baer, M. Haeser, H. Horn, and
              C. Koelmel
              Electronic structure calculations on workstation
              computers: the program system TURBOMOLE
              Chem. Phys. Lett. 162: 165 (1989)
          Density Functional:                              
              O. Treutler and R. Ahlrichs                      
              Efficient Molecular Numerical Integration Schemes
              J. Chem. Phys. 102: 346 (1995)                   
          Parallel Version:                                
              Performance of parallel TURBOMOLE for Density    
              Functional Calculations                          
              M. v. Arnim and R. Ahlrichs                      
              J. Comp. Chem. 19: 1746 (1998)                   
                                         




              +--------------------------------------------------+
              | Atomic coordinate, charge and isotop information |
              +--------------------------------------------------+

                    atomic coordinates            atom    charge  isotop
          0.17531650    2.82970293    3.32049930    c      6.000     0
          0.05606496    2.73083908    0.42240682    c      6.000     0
         -2.31188598    1.32020499   -0.49232390    c      6.000     0
         -2.26205669   -1.37279213    0.59991601    c      6.000     0
         -2.21417076   -1.26429958    3.49644773    c      6.000     0
          0.16310496    0.13303533    4.37338005    c      6.000     0
         -2.40003786    1.20834243   -3.38764760    c      6.000     0
         -0.03994704   -0.14216302   -4.37685777    c      6.000     0
          0.06863374   -2.83857696   -3.32852105    c      6.000     0
          0.08442047   -2.74111399   -0.42744024    c      6.000     0
          2.44892733   -1.32545399    0.50046013    c      6.000     0
          2.39919189    1.35655760   -0.61480319    c      6.000     0
          2.32680764    1.28695834   -3.51740980    c      6.000     0
          2.51103112   -1.25637749    3.40368698    c      6.000     0
         -0.14363725   -0.23280331   -7.35385471    n      7.000     0
          1.76591359   -2.06254630   -8.41542740    c      6.000     0
          0.19760846    0.22838963    7.35182906    n      7.000     0
          2.12567917    2.09026026    8.32066282    c      6.000     0
         -2.33576933    1.00895917    8.40537896    c      6.000     0
          0.83511146   -2.31311555    8.47340247    c      6.000     0
         -2.71107642   -1.05181922   -8.28905044    c      6.000     0
          0.40018359    2.32054320   -8.49836746    c      6.000     0
          1.89876784   -7.68234026    5.90679478    o      8.000     0
          2.06117078   -8.65361703    3.80773851    c      6.000     0
          4.23037868   -8.84512605    2.36524774    n      7.000     0
          3.85521210  -10.37157492    0.11441070    c      6.000     0
          0.98620952  -11.03454343    0.20025841    c      6.000     0
          0.11366443   -9.78120917    2.48183738    n      7.000     0
          0.02482346  -10.00284864   -2.15569236    n      7.000     0
          1.91562784   -9.01176622   -3.65968345    c      6.000     0
          4.12659081   -9.03825140   -2.26991296    n      7.000     0
          6.55119240   -8.39215966   -3.36286290    c      6.000     0
          7.66724370   -6.11048330   -2.32261170    n      7.000     0
          7.99160265   -3.96061263   -3.77078176    c      6.000     0
          9.53542111   -2.32350887   -2.44888163    n      7.000     0
         10.53296331   -3.44992515   -0.15228905    c      6.000     0
          9.24623305   -6.09901748   -0.07292130    c      6.000     0
          7.89673373   -6.07575066    2.31589954    n      7.000     0
          8.32928584   -3.90073471    3.69561169    c      6.000     0
          9.71219200   -2.27499598    2.18887411    n      7.000     0
         10.59872716   -0.07880151   -3.61435936    c      6.000     0
          9.60393220    2.26719139   -2.61587817    n      7.000     0
         10.53546975    3.44050487   -0.31565632    c      6.000     0
          9.25239313    6.09233347   -0.33576825    c      6.000     0
          7.79922306    6.07479297   -2.66271561    n      7.000     0
          8.16031579    3.89760385   -4.05933559    c      6.000     0
          9.64344795    2.31631802    2.02485024    n      7.000     0
          8.16211432    3.95496692    3.41432919    c      6.000     0
          7.77348155    6.10416100    1.98110970    n      7.000     0
          6.57010704    8.29027650   -3.69547296    c      6.000     0
          4.14009550    8.85239570   -2.55117027    n      7.000     0
          3.86432932   10.37453401   -0.28318639    c      6.000     0
          0.99453769   11.03914665   -0.24262096    c      6.000     0
          0.02253732    9.78895241   -2.48539318    n      7.000     0
          1.90935329    8.66210763   -3.89695162    c      6.000     0
          4.23847390    9.03707659    2.08497960    n      7.000     0
          2.09033290    9.01069215    3.57014629    c      6.000     0
          0.13633681   10.00542819    2.15196419    n      7.000     0
         -2.45741588   10.29520577   -3.53734339    c      6.000     0
         -4.46271651    8.80943480   -2.41146150    n      7.000     0
         -5.71922799    9.50901589   -0.07299830    c      6.000     0
         -8.02537836    7.67973893    0.03142782    c      6.000     0
         -7.80540785    6.24179610   -2.29573409    n      7.000     0
         -5.80060030    7.02671365   -3.77305206    c      6.000     0
         -4.33309885    8.92689815    2.22390683    n      7.000     0
         -5.53194407    7.12377653    3.68041972    c      6.000     0
         -7.59890841    6.25489679    2.34217686    n      7.000     0
         -9.77761554    4.59843981   -3.25245866    c      6.000     0
         -9.77685086    2.09011459   -2.14479136    n      7.000     0
        -11.02410900    1.48130630    0.22399027    c      6.000     0
        -11.02751270   -1.46496471    0.26301939    c      6.000     0
         -9.74190282   -2.12835511   -2.07041420    n      7.000     0
         -9.20248391   -0.03962929   -3.54224543    c      6.000     0
         -9.63135343    2.14073950    2.49614413    n      7.000     0
         -9.02789408    0.05009556    3.94019832    c      6.000     0
         -9.67514645   -2.07777804    2.57208088    n      7.000     0
         -9.67764819   -4.67121670   -3.08358512    c      6.000     0
         -7.71019171   -6.24590331   -2.00233528    n      7.000     0
         -5.70197329   -7.11323650   -3.42841398    c      6.000     0
         -4.44153843   -8.91760694   -2.02664601    n      7.000     0
         -5.72764932   -9.50180248    0.32732590    c      6.000     0
         -8.03573816   -7.67178688    0.32460209    c      6.000     0
         -7.71381073   -6.23597605    2.64091977    n      7.000     0
         -5.64820386   -7.02401065    4.03040387    c      6.000     0
         -4.37104764   -8.80536070    2.60993864    n      7.000     0
         -2.48916405  -10.50906464   -3.11465884    c      6.000     0
         -9.63709693   -4.58551996    3.68060502    c      6.000     0
         -9.51839793    4.68230951    3.50847560    c      6.000     0
         -2.33162596   10.51545879    3.22261845    c      6.000     0
          6.70792056    8.38711899    3.07025091    c      6.000     0
         10.75524163    0.06959612    3.14038396    c      6.000     0
          6.70872862   -8.28753516    3.40340964    c      6.000     0
         -2.31632170  -10.29017750    3.64384575    c      6.000     0
         -5.15475996   -6.42490432   -5.57667273    o      8.000     0
          1.68133159   -8.27481763   -5.84646211    o      8.000     0
          7.09347839   -3.58702783   -5.87637672    o      8.000     0
          7.37393493    3.49883773   -6.20383486    o      8.000     0
         -8.38923260   -0.07382607   -5.71398990    o      8.000     0
         -5.31140432    6.29797530   -5.92068869    o      8.000     0
          1.65424650    7.69343122   -5.98790085    o      8.000     0
         -8.11096776    0.08148988    6.07024575    o      8.000     0
         -5.06779298   -6.29899237    6.15613033    o      8.000     0
         -4.89305688    6.43693725    5.80371361    o      8.000     0
          1.95143251    8.27115623    5.76419570    o      8.000     0
          7.64266267   -3.50014965    5.87381978    o      8.000     0
          7.36023521    3.58336206    5.55888565    o      8.000     0
        -12.92089879   -2.29950796    0.30062314    h      1.000     0
         10.37313555    0.13053514    5.16539403    h      1.000     0
          6.49146563    8.06405330    5.09495356    h      1.000     0
          8.01221759    9.95844202    2.72601484    h      1.000     0
         12.79603558    0.09697431    2.79072379    h      1.000     0
          7.93525174   -9.92997158    3.11070738    h      1.000     0
         -2.82379102   12.49643567    2.87705248    h      1.000     0
         -2.20465923   10.14911323    5.24730099    h      1.000     0
          6.46762337   -7.92076078    5.41775039    h      1.000     0
         -2.75449802  -12.30161272    3.41911965    h      1.000     0
        -11.36408036    5.58950007    3.26593540    h      1.000     0
         -9.05266448    4.52370335    5.51044023    h      1.000     0
         -2.15854818   -9.80819422    5.64199310    h      1.000     0
          6.24137052    7.92653201   -5.69796858    h      1.000     0
         -9.23090631   -4.36189595    5.68922187    h      1.000     0
        -11.49224079   -5.46421449    3.41216634    h      1.000     0
          7.81201959    9.92944085   -3.45420121    h      1.000     0
         -9.86848673   -8.63245311    0.32391360    h      1.000     0
         -2.88725206   12.30632473   -3.29461313    h      1.000     0
         -6.24555625  -11.50463215    0.38141039    h      1.000     0
         -2.38862000    9.81187570   -5.54021251    h      1.000     0
          0.59780172  -13.06457595    0.30491353    h      1.000     0
        -11.61602202    5.48413575   -2.90385461    h      1.000     0
          5.09832534  -12.02591062    0.15711425    h      1.000     0
         -9.45942122    4.37419648   -5.27678478    h      1.000     0
         10.58006623   -7.68013945   -0.12959881    h      1.000     0
        -11.51166043   -5.57604764   -2.75801390    h      1.000     0
         12.59948034   -3.52456550   -0.23211459    h      1.000     0
         -9.30164671   -4.51520593   -5.10450379    h      1.000     0
         12.60361766    3.51052355   -0.33215560    h      1.000     0
         10.12420758   -0.13901078   -5.61976903    h      1.000     0
         10.59080274    7.67059178   -0.33582623    h      1.000     0
         12.65350199   -0.10954846   -3.35887531    h      1.000     0
          5.10527870   12.02839125   -0.37695142    h      1.000     0
          7.86728399   -9.96516492   -3.07601500    h      1.000     0
          0.60340959   13.06960713   -0.32786942    h      1.000     0
          6.24628679   -8.06955682   -5.37626111    h      1.000     0
         -6.23837242   11.51198407   -0.10723915    h      1.000     0
         -2.45248841  -10.14278681   -5.14301479    h      1.000     0
         -9.85610655    8.64097978    0.11138685    h      1.000     0
         -2.96873379  -12.48933780   -2.74757689    h      1.000     0
        -12.91490374    2.32127365    0.27271857    h      1.000     0
          0.11287303   -4.68449177    0.29230504    h      1.000     0
          4.14083232   -2.31880431   -0.16438877    h      1.000     0
          4.10208574    2.38055282   -0.02889287    h      1.000     0
          0.01658154    4.67403345   -0.29785577    h      1.000     0
         -4.01046209    2.30146444    0.17999548    h      1.000     0
         -3.97325103   -2.38326652    0.00791739    h      1.000     0
         -1.41308536    3.92353517    4.06394336    h      1.000     0
          1.91721395    3.79027938    3.87202836    h      1.000     0
          4.23027659   -0.30381134    4.04485360    h      1.000     0
          2.55463471   -3.19488575    4.11180657    h      1.000     0
         -2.25350995   -3.17721201    4.27483807    h      1.000     0
         -3.90957195   -0.28703947    4.14990066    h      1.000     0
         -4.10335176    0.19349043   -3.95813238    h      1.000     0
         -2.51864086    3.11830122   -4.16566558    h      1.000     0
          2.30647615    3.22540660   -4.22645233    h      1.000     0
          4.02902681    0.36169437   -4.23836521    h      1.000     0
         -1.53522507   -3.95847591   -3.99667202    h      1.000     0
          1.79851917   -3.76996685   -3.96236041    h      1.000     0
         -2.05803586    1.28351998   10.43361725    h      1.000     0
         -2.94572316    2.75117723    7.49347450    h      1.000     0
         -3.69919998   -0.49162675    8.06596960    h      1.000     0
          1.52524150    3.99622132    7.83166526    h      1.000     0
          2.18263779    1.85267967   10.37163085    h      1.000     0
          3.95240941    1.68273357    7.46848422    h      1.000     0
          0.57706045   -2.12901359   10.51441509    h      1.000     0
         -0.42518373   -3.73712724    7.68888569    h      1.000     0
          2.79167469   -2.76842364    8.03283435    h      1.000     0
          1.21875653   -3.97818706   -7.90181803    h      1.000     0
          1.72316826   -1.82232404  -10.46638593    h      1.000     0
          3.62388365   -1.62702314   -7.64893154    h      1.000     0
          0.04651718    2.13619118  -10.52495514    h      1.000     0
         -0.84275792    3.72361837   -7.65022046    h      1.000     0
          2.36852147    2.80506823   -8.15194979    h      1.000     0
         -2.52451204   -1.32030231  -10.32844612    h      1.000     0
         -3.25111776   -2.80380628   -7.35196229    h      1.000     0
         -4.08036242    0.42679650   -7.88324977    h      1.000     0
          0.27961244    0.46483227   14.85968186    cl    17.000     0
         -0.41359587   -0.45547799  -14.85632093    cl    17.000     0
 
       center of nuclear mass  :   -0.00889961    0.00067821    0.00023818
       center of nuclear charge:   -0.00790275    0.00060212    0.00021151

              +--------------------------------------------------+
              |               basis set information              |
              +--------------------------------------------------+

              we will work with the 1s 3p 5d 7f 9g ... basis set
              ...i.e. with spherical basis functions...

   type   atoms  prim   cont   basis
   ---------------------------------------------------------------------------
    c       62     50     30   cc-pVTZ   [4s3p2d1f|18s5p2d1f]
    n       30     50     30   cc-pVTZ   [4s3p2d1f|18s5p2d1f]
    o       14     50     30   cc-pVTZ   [4s3p2d1f|18s5p2d1f]
    h       78     16     14   cc-pVTZ   [3s2p1d|5s2p1d]
    cl       2    106     34   cc-pVTZ   [5s4p2d1f|41s16p2d1f]
   ---------------------------------------------------------------------------
   total:  186   6760   4340
   ---------------------------------------------------------------------------

   total number of primitive shells          :  146
   total number of contracted shells         : 1552
   total number of cartesian basis functions : 4958
   total number of SCF-basis functions       : 4340


 integral neglect threshold       :  0.67E-14
 integral storage threshold THIZE :  0.10E-04
 integral storage threshold THIME :         5


 DENSITY CONVERGENCE CHECK SWITCHED ON !
 SCF CONVERGENCE IF RMS(delta[D]) <     0.1000000000E-06


 symmetry group of the molecule :   c1 

 the group has the following generators :
   c1(z)

    1 symmetry operations found

 there are 1 real representations :   a   

 maximum number of shells which are related by symmetry :  1


    mo occupation :
   irrep   mo's   occupied
    a     4340      403
 
 number of basis functions   :                   4340
 number of occupied orbitals :                    403
 

 automatic virtual orbital shift switched on 
      shift if e(lumo)-e(homo) < 0.10000000    


 keyword $2e-ints_shell_statistics missing in file <control>

 ! One task per shell generated
  No pre-computed optimal task distribution found
  ... using automatic task generation

          ------------------------
          nuclear repulsion energy  :   29398.2160956    
          ------------------------


         -----------------
         -S,T+V- integrals
         -----------------

 1e-integrals will be neglected if expon. factor < 0.674054E-15
 
   Difference densities algorithm switched on.
   The maximal number of linear combinations of
   difference densities is                    20 .

 DIIS switched on: error vector is FDS-SDF
 Max. Iterations for DIIS is     :   5
 DIIS matrix (see manual) 
    Scaling factor of diagonals  :  1.200
    threshold for scaling factor :  0.000

 scf convergence criterion : increment of total energy < .1000000D-08
                  and increment of one-electron energy < .1000000D-05

  MOs are in ASCII format !


 reading orbital data $scfmo  from file mos
 orbital characterization : expanded
 mo provided and orthogonalized by Cholesky decomposition

 DSCF restart information will be dumped onto file mos

 
                                              current damping :  0.300
 ITERATION  ENERGY          1e-ENERGY        2e-ENERGY     RMS[dD(SAO)]   TOL
   1  -5975.6028104380    -66721.758293     31347.939387    0.000D+00 0.672D-14
          max. resid. norm for Fia-block=  4.149D-01 for orbital    277a         
          max. resid. fock norm         =  4.175D+00 for orbital   4039a         
          Delta Eig. =   286.8426809674 eV 
 
                                              current damping :  0.250
 ITERATION  ENERGY          1e-ENERGY        2e-ENERGY     RMS[dD(SAO)]   TOL
   2  -5993.9561099379    -66857.289075     31465.116870    0.183D-02 0.453D-14
          Norm of current diis error:  6.7201    
          max. resid. norm for Fia-block=  1.313D-01 for orbital      8a         
          max. resid. fock norm         =  4.461D-01 for orbital   4316a         
          Delta Eig. =    77.1530018226 eV 
 
                                              current damping :  0.150
 ITERATION  ENERGY          1e-ENERGY        2e-ENERGY     RMS[dD(SAO)]   TOL
   3  -5995.5300912898    -66861.086257     31467.340070    0.648D-03 0.365D-14
          Norm of current diis error:  2.5725    
          max. resid. norm for Fia-block=  4.645D-02 for orbital    362a         
          max. resid. fock norm         =  5.054D-02 for orbital    373a         
          Delta Eig. =    15.4651064590 eV 
 
                                              current damping :  0.100
 ITERATION  ENERGY          1e-ENERGY        2e-ENERGY     RMS[dD(SAO)]   TOL
   4  -5995.8341328228    -66877.944589     31483.894361    0.366D-03 0.315D-14
          Norm of current diis error: 0.79860    
          max. resid. norm for Fia-block=  1.431D-02 for orbital    131a         
          max. resid. fock norm         =  2.964D-02 for orbital   4309a         
          Delta Eig. =     2.9184799096 eV 
 
                                              current damping :  0.150
 ITERATION  ENERGY          1e-ENERGY        2e-ENERGY     RMS[dD(SAO)]   TOL
   5  -5995.8652703137    -66872.998656     31478.917290    0.127D-03 0.292D-14
          Norm of current diis error: 0.22856    
          max. resid. norm for Fia-block=  4.157D-03 for orbital    370a         
          max. resid. fock norm         =  6.713D-03 for orbital   3943a         
 mo-orthogonalization: Cholesky decomposition
          Delta Eig. =     0.3794667651 eV 
 
                                              current damping :  0.200
 ITERATION  ENERGY          1e-ENERGY        2e-ENERGY     RMS[dD(SAO)]   TOL
   6  -5995.8681519918    -66875.700015     31481.615768    0.359D-04 0.279D-14
          Norm of current diis error: 0.68356E-01
          max. resid. norm for Fia-block=  1.662D-03 for orbital    362a         
          max. resid. fock norm         =  1.763D-03 for orbital    370a         
          Delta Eig. =     0.0828341779 eV 
 
                                              current damping :  0.250
 ITERATION  ENERGY          1e-ENERGY        2e-ENERGY     RMS[dD(SAO)]   TOL
   7  -5995.8685219870    -66875.226586     31481.141968    0.163D-04 0.268D-14
          Norm of current diis error: 0.26243E-01
          max. resid. norm for Fia-block=  7.832D-04 for orbital    371a         
          max. resid. fock norm         =  8.126D-04 for orbital    371a         
          Delta Eig. =     0.0261877964 eV 
 
                                              current damping :  0.300
 ITERATION  ENERGY          1e-ENERGY        2e-ENERGY     RMS[dD(SAO)]   TOL
   8  -5995.8685956646    -66875.308070     31481.223379    0.662D-05 0.256D-14
          Norm of current diis error: 0.10402E-01
          max. resid. norm for Fia-block=  4.487D-04 for orbital    371a         
          max. resid. fock norm         =  4.533D-04 for orbital    371a         
          Delta Eig. =     0.0094808841 eV 
 
                                              current damping :  0.350
 ITERATION  ENERGY          1e-ENERGY        2e-ENERGY     RMS[dD(SAO)]   TOL
   9  -5995.8686104422    -66875.304263     31481.219557    0.283D-05 0.245D-14
          Norm of current diis error: 0.45605E-02
          max. resid. norm for Fia-block=  2.178D-04 for orbital    370a         
          max. resid. fock norm         =  2.220D-04 for orbital    370a         
          Delta Eig. =     0.0039606505 eV 
 
                                              current damping :  0.400
 ITERATION  ENERGY          1e-ENERGY        2e-ENERGY     RMS[dD(SAO)]   TOL
  10  -5995.8686134881    -66875.307981     31481.223272    0.107D-05 0.235D-14
          Norm of current diis error: 0.22487E-02
          max. resid. norm for Fia-block=  1.117D-04 for orbital    371a         
          max. resid. fock norm         =  1.138D-04 for orbital    371a         
 mo-orthogonalization: Cholesky decomposition
          Delta Eig. =     0.0026753172 eV 
 
                                              current damping :  0.450
 ITERATION  ENERGY          1e-ENERGY        2e-ENERGY     RMS[dD(SAO)]   TOL
  11  -5995.8686142421    -66875.302079     31481.217369    0.489D-06 0.226D-14
          Norm of current diis error: 0.10391E-02
          max. resid. norm for Fia-block=  6.230D-05 for orbital    370a         
          max. resid. fock norm         =  6.377D-05 for orbital    370a         
          Delta Eig. =     0.0009396840 eV 
 
                                              current damping :  0.500
 ITERATION  ENERGY          1e-ENERGY        2e-ENERGY     RMS[dD(SAO)]   TOL
  12  -5995.8686144232    -66875.306035     31481.221325    0.194D-06 0.218D-14
          Norm of current diis error: 0.58020E-03
          max. resid. norm for Fia-block=  3.350D-05 for orbital    362a         
          max. resid. fock norm         =  3.373D-05 for orbital    362a         
          Delta Eig. =     0.0004509778 eV 
 
                                              current damping :  0.550
 ITERATION  ENERGY          1e-ENERGY        2e-ENERGY     RMS[dD(SAO)]   TOL
  13  -5995.8686144773    -66875.304157     31481.219447    0.113D-06 0.211D-14
          Norm of current diis error: 0.25913E-03
          max. resid. norm for Fia-block=  1.748D-05 for orbital    362a         
          max. resid. fock norm         =  1.756D-05 for orbital    362a         
          Delta Eig. =     0.0001577019 eV 

 DENSITY CONVERGED !

 
                                              current damping :  0.600
 ITERATION  ENERGY          1e-ENERGY        2e-ENERGY     RMS[dD(SAO)]   TOL
  14  -5995.8686144891    -66875.304516     31481.219806    0.522D-07 0.204D-14
          Norm of current diis error: 0.12728E-03
          max. resid. norm for Fia-block=  8.422D-06 for orbital    362a         
          max. resid. fock norm         =  8.446D-06 for orbital    362a         
          Delta Eig. =     0.0000774046 eV 

 DENSITY CONVERGED !

 
                                              current damping :  0.650
 ITERATION  ENERGY          1e-ENERGY        2e-ENERGY     RMS[dD(SAO)]   TOL
  15  -5995.8686144919    -66875.304361     31481.219651    0.259D-07 0.198D-14
          Norm of current diis error: 0.59743E-04
          max. resid. norm for Fia-block=  3.898D-06 for orbital    362a         
          max. resid. fock norm         =  3.915D-06 for orbital    362a         
 mo-orthogonalization: Cholesky decomposition
          Delta Eig. =     0.0000364724 eV 

 DENSITY CONVERGED !

 
                                              current damping :  0.500
 ITERATION  ENERGY          1e-ENERGY        2e-ENERGY     RMS[dD(SAO)]   TOL
  16  -5995.8686144927    -66875.304354     31481.219644    0.124D-07 0.194D-14
          Norm of current diis error: 0.29288E-04
          max. resid. norm for Fia-block=  1.779D-06 for orbital    362a         
          max. resid. fock norm         =  1.786D-06 for orbital    362a         
          Delta Eig. =     0.0000196733 eV 

 DENSITY CONVERGED !

 
                                              current damping :  0.350
 ITERATION  ENERGY          1e-ENERGY        2e-ENERGY     RMS[dD(SAO)]   TOL
  17  -5995.8686144921    -66875.304315     31481.219605    0.693D-08 0.192D-14
          Norm of current diis error: 0.12441E-04
          max. resid. norm for Fia-block=  6.591D-07 for orbital    362a         
          max. resid. fock norm         =  6.670D-07 for orbital    370a         
          Delta Eig. =     0.0000080147 eV 

 ENERGY & DENSITY CONVERGED !

 
                                              current damping :  0.400
 ITERATION  ENERGY          1e-ENERGY        2e-ENERGY     RMS[dD(SAO)]   TOL
  18  -5995.8686144919    -66875.304316     31481.219605    0.333D-08 0.191D-14
          max. resid. norm for Fia-block=  1.139D-07 for orbital    389a         
          max. resid. fock norm         =  1.171D-07 for orbital    389a         

 convergence criteria satisfied after    18 iterations


                  ------------------------------------------ 
                 |  total energy      =  -5995.86861449195  |
                  ------------------------------------------ 
                 :  kinetic energy    =   5986.76787943373  :
                 :  potential energy  = -11982.63649392567  :
                 :  virial theorem    =      1.99848216570  :
                 :  wavefunction norm =      1.00000000000  :
                  .......................................... 


 <geterg> : there is no data group $energy 


 <skperg> : $end is missing 


 orbitals $scfmo  will be written to file mos

    irrep                399a        400a        401a        402a        403a   
 eigenvalues H         -0.24466    -0.24286    -0.24285    -0.24284    -0.24283
            eV          -6.6577     -6.6086     -6.6083     -6.6081     -6.6077
 occupation              2.0000      2.0000      2.0000      2.0000      2.0000 

    irrep                404a        405a        406a        407a        408a   
 eigenvalues H          0.07383     0.07644     0.07652     0.08373     0.08374
            eV           2.0090      2.0801      2.0824      2.2783      2.2786
 
 
 
 
 ==============================================================================
                           electrostatic moments
 ==============================================================================

 reference point for electrostatic moments:    0.00000   0.00000   0.00000

 
              nuc           elec       ->  total
 ------------------------------------------------------------------------------
                          charge      
 ------------------------------------------------------------------------------
         806.000000    -806.000000      -0.000000
 
 ------------------------------------------------------------------------------
                       dipole moment  
 ------------------------------------------------------------------------------
   x      -6.369617       6.422431       0.052814
   y       0.485308      -0.491066      -0.005758
   z       0.170478      -0.171763      -0.001285
 
   | dipole moment | =     0.0531 a.u. =     0.1351 debye 
 
 ------------------------------------------------------------------------------
                     quadrupole moment
 ------------------------------------------------------------------------------
  xx   30583.136048  -30888.370481    -305.234432
  yy   30459.410445  -30764.730943    -305.320498
  zz   20660.410052  -21537.092758    -876.682707
  xy      15.363824     -15.705490      -0.341666
  xz    -204.306382     191.255820     -13.050562
  yz     -46.187407      31.226262     -14.961145
 
     1/3  trace=    -495.745879
     anisotropy=     572.439311
 
 ==============================================================================
 

    dscf profiling
  --------------------------------------------------------------------
             module   cpu total (s)       %  wall total (s)       %

          dscf.total         38019.6  100.00         35263.9  100.00
        dscf.prepare            93.6    0.25            93.6    0.27
      prepare.oneint             0.7    0.00             0.7    0.00
     prepare.moinput             1.4    0.00             1.4    0.00
     moinput_orthmos            90.9    0.24            90.9    0.26
            dscf.scf         37920.7   99.74         35164.8   99.72
             scf.pre             0.0    0.00             0.0    0.00
        scf.makedmat            54.6    0.14            55.0    0.16
          scf.shloop         33445.9   87.97         33444.8   94.84
          shloop_omp         33442.5   87.96         33441.4   94.83
          scf.symcar             4.4    0.01             4.4    0.01
        scf.makefock             8.9    0.02             9.7    0.03
          scf.newerg             0.4    0.00             0.4    0.00
          scf.newcnv           746.2    1.96            95.1    0.27
           scf.fdiag          2288.6    6.02           287.0    0.81
         diag_tritrn           551.7    1.45            69.2    0.20
          diag_rdiag          1726.4    4.54           216.2    0.61
          scf.modump          1139.9    3.00          1123.3    3.19
           ortho_all           163.0    0.43            77.9    0.22
            scf.post            68.3    0.18            67.0    0.19
        dscf.postscf             5.4    0.01             5.5    0.02
 


    ------------------------------------------------------------------------
         total  cpu-time : 10 hours 33 minutes and 40 seconds
         total wall-time :  9 hours 47 minutes and 44 seconds
    ------------------------------------------------------------------------

   ****  dscf : all done  ****


    2018-02-15 08:47:02.259 

