           Doing BLAS/Lapack in the master proc. with  8 CPUs.
           SMPCPUS    set: Shared-memory Parallelization with   8 CPUs.

           SMP Parallelization Reference:
           C. van Wullen, J. Comput. Chem. 32 (2011) 1195--1201
 operating system is UNIX !

 ridft (c-18-82.gp.local) : TURBOMOLE V7.2 ( 21454 ) 4 Oct 2017 at 12:48:15
 Copyright (C) 2017 TURBOMOLE GmbH, Karlsruhe


    2018-04-24 21:19:00.450 



                                  r i d f t

                        DFT program with RI approximation 
                                for coulomb part 




                                                 
                                 References:     
                                                 
          TURBOMOLE:                             
              R. Ahlrichs, M. Baer, M. Haeser, H. Horn, and
              C. Koelmel
              Electronic structure calculations on workstation
              computers: the program system TURBOMOLE
              Chem. Phys. Lett. 162: 165 (1989)
          Density Functional:                              
              O. Treutler and R. Ahlrichs                      
              Efficient Molecular Numerical Integration Schemes
              J. Chem. Phys. 102: 346 (1995)                   
          Parallel Version:                                
              Performance of parallel TURBOMOLE for Density    
              Functional Calculations                          
              M. v. Arnim and R. Ahlrichs                      
              J. Comp. Chem. 19: 1746 (1998)                   
          RI-J Method:                                     
              Auxiliary Basis Sets to approximate Coulomb      
              Potentials                                       
              Chem. Phys. Lett. 240: 283 (1995)                
              K. Eichkorn, O. Treutler, H. Oehm, M. Haeser     
              and R. Ahlrichs                                  
              Chem. Phys. Lett. 242: 652 (1995)                
                                                           
              Auxiliary Basis Sets for Main Row Atoms and their
              Use to approximate Coulomb Potentials            
              K. Eichkorn, F. Weigend, O. Treutler and         
              R. Ahlrichs                                      
              Theo. Chem. Acc. 97: 119 (1997)                   
                                                           
              Accurate Coulomb-fitting basis sets for H to Rn 
              F. Weigend                                        
              Phys. Chem. Chem. Phys. 8: 1057 (2006)            
                                                           
          Multipole accelerated RI-J (MARI-J):             
              Fast evaluation of the Coulomb potential for     
              electron densities using multipole accelerated   
              resolution of identity approximation             
              M. Sierka, A. Hogekamp and R. Ahlrichs           
              J. Chem. Phys. 118: 9136 (2003)                  
          RI-JK Method:                                     
              A fully direct RI-HF algorithm: Implementation,
              optimised auxiliary basis sets, demonstration of
              accuracy and efficiency                         
              F. Weigend                                      
              Phys. Chem. Chem. Phys. 4: 4285 (2002)           
          Two-component HF and DFT with spin-orbit coupling:  
              Self-consistent treatment of spin-orbit         
              interactions with efficient Hartree-Fock and    
              density functional methods                      
              M. K. Armbruster, F. Weigend, C. van Wüllen and 
              W. Klopper                                      
              Phys. Chem. Chem. Phys. 10: 1748 (2008)         
          Relativistic all-electron 2c calculations           
              An efficient implementation of two-component    
              relativistic exact-decoupling methods for large 
              molecules                                       
              D. Peng, N. Middendorf, F. Weigend, M. Reiher   
              J. Chem. Phys. 138, 184105 (2013)               
                                         




              +--------------------------------------------------+
              |      general information about current run       |
              +--------------------------------------------------+

 

 DENSITY CONVERGENCE CHECK SWITCHED ON !
 SCF CONVERGENCE IF RMS(delta[D]) <     0.1000000000E-06

 TPSS meta-GGA functional
 exchange:    LDA + TPSS
 correlation: LDA (PW) + TPSS
 A DFT calculation using the RI-J approximation will be carried out.
 Allocatable memory for RI due to $ricore (MB):                   500


              +--------------------------------------------------+
              | Atomic coordinate, charge and isotop information |
              +--------------------------------------------------+

                    atomic coordinates            atom    charge  isotop
          1.25931421    0.34735203    0.79318765    c      6.000     0
          2.32225010   -0.62338855    2.24170598    h      1.000     0
          2.32065089    1.31753242   -0.65688750    h      1.000     0
         -1.25850767    0.34576967    0.79295159    c      6.000     0
         -2.32043575   -0.62644213    2.24141049    h      1.000     0
         -2.32093191    1.31457995   -0.65714864    h      1.000     0
         -4.78622267   -0.74390812    7.83356202    c      6.000     0
         -4.84195720   -1.90234951    6.13055996    h      1.000     0
         -4.85450594   -2.01800044    9.45044385    h      1.000     0
         -6.48918973    0.41074560    7.86615213    h      1.000     0
         -2.40245318    0.86741490    7.90124811    c      6.000     0
         -2.40322015    2.03922193    9.60085635    h      1.000     0
         -2.38660150    2.16548350    6.29675646    h      1.000     0
         -0.00009298   -0.71533953    7.85033283    c      6.000     0
         -0.00038410   -2.01296289    9.46006205    h      1.000     0
          0.00017360   -1.90128977    6.15592408    h      1.000     0
          2.40216544    0.86746943    7.90211990    c      6.000     0
          2.40268134    2.03874201    9.60190099    h      1.000     0
          2.38667947    2.16585236    6.29791697    h      1.000     0
          4.78596308   -0.74394636    7.83442200    c      6.000     0
          4.84194333   -1.90207730    6.13119450    h      1.000     0
          6.48894290    0.41055568    7.86763968    h      1.000     0
          4.85383895   -2.01848364    9.45109350    h      1.000     0
 
       center of nuclear mass  :    0.00001927    0.01545689    5.88396937
       center of nuclear charge:    0.00001606    0.00356192    5.91252630

              +--------------------------------------------------+
              |               basis set information              |
              +--------------------------------------------------+

              we will work with the 1s 3p 5d 7f 9g ... basis set
              ...i.e. with spherical basis functions...

   type   atoms  prim   cont   basis
   ---------------------------------------------------------------------------
    c        7     77     55   cc-pVQZ   [5s4p3d2f1g|21s6p3d2f1g]
    h       16     32     30   cc-pVQZ   [4s3p2d1f|6s3p2d1f]
   ---------------------------------------------------------------------------
   total:   23   1051    865
   ---------------------------------------------------------------------------

   total number of primitive shells          :   45
   total number of contracted shells         :  265
   total number of cartesian basis functions : 1050
   total number of SCF-basis functions       :  865


 integral neglect threshold       :  0.32E-13
 integral storage threshold THIZE :  0.10E-04
 integral storage threshold THIME :         5

 RI-J AUXILIARY BASIS SET information:

              we will work with the 1s 3p 5d 7f 9g ... basis set
              ...i.e. with spherical basis functions...

   type   atoms  prim   cont   basis
   ---------------------------------------------------------------------------
    c        7     70     49   cc-pVQZ   [6s4p3d1f1g|12s5p4d2f1g]
    h       16     16     11   cc-pVQZ   [3s1p1d|5s2p1d]
   ---------------------------------------------------------------------------
   total:   23    746    519
   ---------------------------------------------------------------------------

   total number of primitive shells          :   32
   total number of contracted shells         :  185
   total number of cartesian basis functions :  619
   total number of SCF-basis functions       :  519


 symmetry group of the molecule :   c1 

 the group has the following generators :
   c1(z)

    1 symmetry operations found

 there are 1 real representations :   a   

 maximum number of shells which are related by symmetry :  1


    mo occupation :
   irrep   mo's   occupied
    a      865       29
 
 number of basis functions   :                    865
 number of occupied orbitals :                     29
 
  
           ------------------
           density functional
           ------------------
 TPSS meta-GGA functional
 exchange:    LDA + TPSS
 correlation: LDA (PW) + TPSS

 iterations will be done with small grid
  
 spherical integration : Lebedev's spherical grid
 spherical gridsize    :                     5
    i.e. gridpoints    :                   590
 value for diffuse not defined
 radial integration    : Chebyshev 2nd kind (scaling 3)
 radial gridsize       :                     8
 integration cells     :                    23
 partition function    : becke
 partition sharpness   :                     3
  

 biggest AO integral is expected to be     3.537514283
  
           ------------------------
               RI-J - INFORMATION
           ------------------------
 Contributions to RI integral batches: 
  neglected integral batches:                  8325
  direct contribution:                        16916
  memory contribution:                 10004
 Memory core needed for (P|Q) and Cholesky      3 MByte
 Memory core minimum needed except of (P|Q)     1 MByte
 Total minimum memory core needed (sum)         3 MByte
  
 ****************************************
 Memory allocated for RI-J   349 MByte
 ****************************************
                                            

          ------------------------
          nuclear repulsion energy  :   303.649513067    
          ------------------------


         -----------------
         -S,T+V- integrals
         -----------------

 1e-integrals will be neglected if expon. factor < 0.318282E-14
 Difference densities >>NOT<< switched on in parallel ridft!

 DIIS switched on: error vector is FDS-SDF
 Max. Iterations for DIIS is     :   4
 DIIS matrix (see manual) 
    Scaling factor of diagonals  :  1.200
    threshold for scaling factor :  0.000

 scf convergence criterion : increment of total energy < .1000000D-08
                  and increment of one-electron energy < .1000000D-05

  MOs are in ASCII format !


 automatic virtual orbital shift switched on 
      shift if e(lumo)-e(homo) < 0.10000000    


 reading orbital data $scfmo  from file mos
 orbital characterization : expanded
 mo provided and orthogonalized by Cholesky decomposition

 DSCF restart information will be dumped onto file mos


 Starting SCF iterations

          Overall gridpoints after grid construction =         98874

 ITERATION  ENERGY          1e-ENERGY        2e-ENERGY     RMS[dD(SAO)]   TOL
   1  -275.51245475533    -959.67708466     380.51511684    0.000D+00 0.317D-13
                            Exc = -42.4697454041     Coul =  422.984862245    
                              N = 58.000317779    
                            current damping = 0.700
 
          max. resid. norm for Fia-block=  2.595D-01 for orbital      9a         
          max. resid. fock norm         =  7.116D+00 for orbital    803a         

 ITERATION  ENERGY          1e-ENERGY        2e-ENERGY     RMS[dD(SAO)]   TOL
   2  -276.29340472536    -967.44734010     387.50442231    0.249D-02 0.317D-13
                            Exc = -43.4186399601     Coul =  430.923062265    
                              N = 58.000262722    
                            current damping = 0.650
 
          Norm of current diis error:  3.0741    
          max. resid. norm for Fia-block=  1.095D-01 for orbital      1a         
          max. resid. fock norm         =  1.589D-01 for orbital    844a         

 ITERATION  ENERGY          1e-ENERGY        2e-ENERGY     RMS[dD(SAO)]   TOL
   3  -276.46313816827    -969.14207274     389.02942151    0.117D-02 0.317D-13
                            Exc = -43.7436886600     Coul =  432.773110167    
                              N = 58.000231266    
                            current damping = 0.550
 
          Norm of current diis error:  1.4333    
          max. resid. norm for Fia-block=  4.792D-02 for orbital     14a         
          max. resid. fock norm         =  5.276D-02 for orbital      9a         

 ITERATION  ENERGY          1e-ENERGY        2e-ENERGY     RMS[dD(SAO)]   TOL
   4  -276.51245307949    -970.75697997     390.59501383    0.592D-03 0.317D-13
                            Exc = -43.9833375855     Coul =  434.578351411    
                              N = 58.000210472    
                            current damping = 0.450
 
          Norm of current diis error: 0.52324    
          max. resid. norm for Fia-block=  1.817D-02 for orbital      8a         
          max. resid. fock norm         =  2.006D-02 for orbital      8a         

 ITERATION  ENERGY          1e-ENERGY        2e-ENERGY     RMS[dD(SAO)]   TOL
   5  -276.52038696408    -971.02339546     390.85349542    0.280D-03 0.317D-13
                            Exc = -44.0585000568     Coul =  434.911995481    
                              N = 58.000200768    
                            current damping = 0.300
 
          Norm of current diis error: 0.18601    
          max. resid. norm for Fia-block=  7.145D-03 for orbital     14a         
          max. resid. fock norm         =  7.758D-03 for orbital    844a         
          mo-orthogonalization: Cholesky decomposition

 ITERATION  ENERGY          1e-ENERGY        2e-ENERGY     RMS[dD(SAO)]   TOL
   6  -276.52145684999    -971.38017592     391.20920600    0.112D-03 0.317D-13
                            Exc = -44.1027746681     Coul =  435.311980669    
                              N = 58.000196406    
                            current damping = 0.150
 
          Norm of current diis error: 0.56515E-01
          max. resid. norm for Fia-block=  1.968D-03 for orbital     27a         
          max. resid. fock norm         =  2.824D-03 for orbital     61a         

 ITERATION  ENERGY          1e-ENERGY        2e-ENERGY     RMS[dD(SAO)]   TOL
   7  -276.52152362372    -971.27374813     391.10271144    0.449D-04 0.317D-13
                            Exc = -44.1018242927     Coul =  435.204535728    
                              N = 58.000195249    
                            current damping = 0.200
 
          Norm of current diis error: 0.33127E-01
          max. resid. norm for Fia-block=  6.895D-04 for orbital     20a         
          max. resid. fock norm         =  1.443D-03 for orbital    863a         

 ITERATION  ENERGY          1e-ENERGY        2e-ENERGY     RMS[dD(SAO)]   TOL
   8  -276.52154464898    -971.32492756     391.15386984    0.866D-05 0.317D-13
                            Exc = -44.1052965933     Coul =  435.259166438    
                              N = 58.000194987    
                            current damping = 0.250
 
          Norm of current diis error: 0.43761E-02
          max. resid. norm for Fia-block=  1.545D-04 for orbital     21a         
          max. resid. fock norm         =  3.263D-04 for orbital    863a         

 ITERATION  ENERGY          1e-ENERGY        2e-ENERGY     RMS[dD(SAO)]   TOL
   9  -276.52154490717    -971.33630441     391.16524643    0.187D-05 0.317D-13
                            Exc = -44.1064151088     Coul =  435.271661543    
                              N = 58.000194927    
                            current damping = 0.100
 
          Norm of current diis error: 0.28160E-02
          max. resid. norm for Fia-block=  5.639D-05 for orbital     21a         
          max. resid. fock norm         =  1.300D-04 for orbital    863a         

 ITERATION  ENERGY          1e-ENERGY        2e-ENERGY     RMS[dD(SAO)]   TOL
  10  -276.52154506192    -971.33251026     391.16145213    0.662D-06 0.317D-13
                            Exc = -44.1060853424     Coul =  435.267537477    
                              N = 58.000194910    
                            current damping = 0.150
 
          Norm of current diis error: 0.22311E-03
          max. resid. norm for Fia-block=  1.158D-05 for orbital     29a         
          max. resid. fock norm         =  1.826D-05 for orbital    851a         
          mo-orthogonalization: Cholesky decomposition

 ITERATION  ENERGY          1e-ENERGY        2e-ENERGY     RMS[dD(SAO)]   TOL
  11  -276.52154506225    -971.33216428     391.16110615    0.122D-06 0.317D-13
                            Exc = -44.1060594624     Coul =  435.267165613    
                              N = 58.000194908    
                            current damping = 0.050
 
          Norm of current diis error: 0.18960E-03
          max. resid. norm for Fia-block=  5.679D-06 for orbital     19a         
          max. resid. fock norm         =  8.886D-06 for orbital    747a         

 DENSITY CONVERGED !


 ITERATION  ENERGY          1e-ENERGY        2e-ENERGY     RMS[dD(SAO)]   TOL
  12  -276.52154506302    -971.33227089     391.16121276    0.502D-07 0.317D-13
                            Exc = -44.1060717396     Coul =  435.267284503    
                              N = 58.000194906    
                            current damping = 0.100
 
          Norm of current diis error: 0.38665E-04
          max. resid. norm for Fia-block=  1.070D-06 for orbital     28a         
          max. resid. fock norm         =  1.880D-06 for orbital    440a         

 DENSITY CONVERGED !


 ITERATION  ENERGY          1e-ENERGY        2e-ENERGY     RMS[dD(SAO)]   TOL
  13  -276.52154506303    -971.33236208     391.16130395    0.168D-07 0.317D-13
                            Exc = -44.1060769680     Coul =  435.267380921    
                              N = 58.000194906    
                            current damping = 0.050
 
          Norm of current diis error: 0.27927E-04
          max. resid. norm for Fia-block=  5.672D-07 for orbital     29a         
          max. resid. fock norm         =  1.243D-06 for orbital      2a         

 DENSITY CONVERGED !


 ITERATION  ENERGY          1e-ENERGY        2e-ENERGY     RMS[dD(SAO)]   TOL
  14  -276.52154506305    -971.33231462     391.16125649    0.788D-08 0.317D-13
                            Exc = -44.1060739144     Coul =  435.267330404    
                              N = 58.000194906    
                            current damping = 0.100
 
          Norm of current diis error: 0.91790E-05
          max. resid. norm for Fia-block=  4.152D-07 for orbital     29a         
          max. resid. fock norm         =  9.172D-07 for orbital      2a         

 ENERGY & DENSITY CONVERGED !

          Overall gridpoints after grid construction =        331748

 ITERATION  ENERGY          1e-ENERGY        2e-ENERGY     RMS[dD(SAO)]   TOL
  15  -276.52138153693    -971.33231639     391.16142179    0.266D-08 0.317D-13
                            Exc = -44.1059106852     Coul =  435.267332475    
                              N = 58.000004439    
                            current damping = 0.150
 
          Norm of current diis error: 0.68398E-05
          max. resid. norm for Fia-block=  1.475D-07 for orbital     29a         
          max. resid. fock norm         =  3.279D-07 for orbital      2a         

 End of SCF iterations

   convergence criteria satisfied after    15 iterations


                  ------------------------------------------ 
                 |  total energy      =   -276.52138153693  |
                  ------------------------------------------ 
                 :  kinetic energy    =    275.22717797425  :
                 :  potential energy  =   -551.74855951118  :
                 :  virial theorem    =      1.99531969804  :
                 :  wavefunction norm =      1.00000000000  :
                  .......................................... 


 <geterg> : there is no data group $energy 


 <skperg> : $end is missing 


 orbitals $scfmo  will be written to file mos

    irrep                 25a         26a         27a         28a         29a   
 eigenvalues H         -0.29976    -0.29034    -0.28689    -0.27777    -0.24739
            eV          -8.1569     -7.9007     -7.8068     -7.5586     -6.7319
 occupation              2.0000      2.0000      2.0000      2.0000      2.0000 

    irrep                 30a         31a         32a         33a         34a   
 eigenvalues H         -0.02987     0.01580     0.02533     0.03630     0.04241
            eV          -0.8129      0.4300      0.6891      0.9877      1.1542
 
 
 
 
 ==============================================================================
                           electrostatic moments
 ==============================================================================

 reference point for electrostatic moments:    0.00000   0.00000   0.00000

 
              nuc           elec       ->  total
 ------------------------------------------------------------------------------
                          charge      
 ------------------------------------------------------------------------------
          58.000000     -58.000000       0.000000
 
 ------------------------------------------------------------------------------
                       dipole moment  
 ------------------------------------------------------------------------------
   x       0.000932      -0.000935      -0.000003
   y       0.206591      -0.133511       0.073080
   z     342.926526    -342.922833       0.003692
 
   | dipole moment | =     0.0732 a.u. =     0.1860 debye 
 
 ------------------------------------------------------------------------------
                     quadrupole moment
 ------------------------------------------------------------------------------
  xx     585.872356    -622.075888     -36.203532
  yy      65.509938    -102.775848     -37.265911
  zz    2642.582368   -2678.029258     -35.446890
  xy       0.024066      -0.022944       0.001122
  xz       0.023784      -0.023002       0.000782
  yz     -41.938916      41.331093      -0.607823
 
     1/3  trace=     -36.305444
     anisotropy=       1.900881
 
 ==============================================================================
 


    ------------------------------------------------------------------------
         total  cpu-time : 16 minutes and 18 seconds
         total wall-time :  2 minutes and 16 seconds
    ------------------------------------------------------------------------

   ****  ridft : all done  ****


    2018-04-24 21:21:16.015 

