STARTING dscf ON 32 PROCESSORS!
RUNNING PROGRAM /sopt/TURBOMOLE/7.2.1-official/bin/em64t-unknown-linux-gnu_mpi/dscf_mpi.
PLEASE WAIT UNTIL dscf HAS FINISHED.
Look for the output in slave1.output.
MACHINEFILE is ./hostlist
 this is node-proc. number 1 running on node c-13-11.gp.local
 the total number of node-proc. spawned is  33
  parallel platform: MPP or cluster with fast interconnect

 dscf (c-13-11.gp.local) : TURBOMOLE V7.2 ( 21471 ) 7 Nov 2017 at 16:15:16
 Copyright (C) 2017 TURBOMOLE GmbH, Karlsruhe


    2018-02-20 17:49:18.910 


 SCF run will be profiled !



                             d s c f - program

                   idea & directorship : reinhart ahlrichs
                   program development : marco haeser
                                         michael baer
                           dft version : oliver treutler
           parallelized version : malte v. arnim, gina corongiu, GMD 


                          quantum chemistry group
                          universitaet  karlsruhe
                                  germany




                          References             
                                                 
          TURBOMOLE:                             
              R. Ahlrichs, M. Baer, M. Haeser, H. Horn, and
              C. Koelmel
              Electronic structure calculations on workstation
              computers: the program system TURBOMOLE
              Chem. Phys. Lett. 162: 165 (1989)
          Density Functional:                              
              O. Treutler and R. Ahlrichs                      
              Efficient Molecular Numerical Integration Schemes
              J. Chem. Phys. 102: 346 (1995)                   
          Parallel Version:                                
              Performance of parallel TURBOMOLE for Density    
              Functional Calculations                          
              M. v. Arnim and R. Ahlrichs                      
              J. Comp. Chem. 19: 1746 (1998)                   
                                         




              +--------------------------------------------------+
              | Atomic coordinate, charge and isotop information |
              +--------------------------------------------------+

                    atomic coordinates            atom    charge  isotop
         -1.00170129    2.31805571   15.84505276    n      7.000     0
          5.31260054    8.80247574  -12.26789569    n      7.000     0
         -5.74252517   -8.72741374   15.08786916    c      6.000     0
         -4.70351651  -10.31159045   15.90297894    h      1.000     0
         -7.75911269   -9.02351561   15.40229565    h      1.000     0
         -4.83412851   -6.21303683   16.10287351    c      6.000     0
         -2.50911660   -6.02458570   17.33950789    c      6.000     0
         -1.41258511   -7.71326969   17.74521999    h      1.000     0
         -1.59098968   -3.66999475   18.09590118    c      6.000     0
          0.20824256   -3.55691128   19.08011524    h      1.000     0
         -2.98868314   -1.48057959   17.62299555    c      6.000     0
         -5.36331131   -1.68293163   16.46955188    c      6.000     0
         -6.52010133   -0.01093774   16.17715671    h      1.000     0
         -6.27720278   -4.02715808   15.71622017    c      6.000     0
         -8.13399519   -4.15067540   14.84637519    h      1.000     0
         -1.91148343    1.09507496   18.24237661    c      6.000     0
         -3.31697045    2.36282002   19.06142616    h      1.000     0
         -0.30063392    0.97232014   19.52443429    h      1.000     0
          1.16576937    1.48095751   14.75656209    c      6.000     0
          2.24884660    0.12121890   15.83781087    h      1.000     0
          1.87912817    2.28831354   12.39291117    c      6.000     0
          3.59743878    1.52294874   11.58630487    h      1.000     0
          0.35672335    3.99004817   11.01374326    c      6.000     0
         -1.81730941    4.90346858   12.25761134    c      6.000     0
         -3.01516031    6.31867982   11.38873098    h      1.000     0
         -2.45234310    4.04966733   14.63320828    c      6.000     0
         -4.10882304    4.70865953   15.64068547    h      1.000     0
          0.97905751    4.71514027    8.41938944    c      6.000     0
          3.48019551    4.61072616    7.51685567    c      6.000     0
          5.01971819    4.13678801    8.78711448    h      1.000     0
          4.03574125    5.22839933    5.03444311    c      6.000     0
          5.99361279    5.22219551    4.42670163    h      1.000     0
          2.11863298    5.94397410    3.33390844    c      6.000     0
         -0.37523468    6.05787375    4.24465543    c      6.000     0
         -1.90801451    6.54103237    2.97409510    h      1.000     0
         -0.93247104    5.47330923    6.73447633    c      6.000     0
         -2.88889797    5.51223131    7.34635281    h      1.000     0
          2.70470807    6.55490059    0.67874189    c      6.000     0
          4.84118024    5.52430218   -0.51917879    c      6.000     0
          6.04707843    4.21250962    0.49193042    h      1.000     0
          5.39338444    6.08571887   -3.01523261    c      6.000     0
          7.01713589    5.19510865   -3.89469237    h      1.000     0
          3.81285694    7.68177811   -4.43742284    c      6.000     0
          1.67615842    8.72372231   -3.24108994    c      6.000     0
          0.46975975   10.04505874   -4.24467029    h      1.000     0
          1.14638868    8.18346480   -0.73487075    c      6.000     0
         -0.45949799    9.09388558    0.15672476    h      1.000     0
          4.35244875    8.17984595   -7.10282861    c      6.000     0
          6.81490818    7.99237540   -8.10778452    c      6.000     0
          8.42599045    7.63803371   -6.89494045    h      1.000     0
          7.24231209    8.29999251  -10.65682116    c      6.000     0
          9.10739620    8.16588729  -11.49142434    h      1.000     0
          2.93422847    9.10981974  -11.35539154    c      6.000     0
          1.48735408    9.53541993  -12.73973165    h      1.000     0
          2.42106266    8.82815465   -8.82460402    c      6.000     0
          0.48325162    9.04166319   -8.20138957    h      1.000     0
          1.01094286   -2.32119823  -15.83105176    n      7.000     0
         -5.33239582   -8.79516515   12.27764423    n      7.000     0
          5.72327903    8.73562219  -15.07805193    c      6.000     0
          4.68061693   10.31746071  -15.89302714    h      1.000     0
          7.73911852    9.03646443  -15.39254294    h      1.000     0
          4.82124996    6.21888502  -16.09294024    c      6.000     0
          2.49013572    6.02156372  -17.31673453    c      6.000     0
          1.38352354    7.70579594  -17.71349191    h      1.000     0
          1.57903022    3.66413182  -18.07223093    c      6.000     0
         -0.22491057    3.54436047  -19.04698368    h      1.000     0
          2.99002732    1.48048342  -17.61181574    c      6.000     0
          5.37047993    1.69214113  -16.47228438    c      6.000     0
          6.53764747    0.02550810  -16.19081488    h      1.000     0
          6.27757098    4.03953103  -15.71983843    c      6.000     0
          8.13934181    4.17038411  -14.86183333    h      1.000     0
          1.92101528   -1.09916963  -18.22869492    c      6.000     0
          3.33157682   -2.36376765  -19.04376436    h      1.000     0
          0.31151322   -0.98346404  -19.51308881    h      1.000     0
         -1.16832261   -1.49954893  -14.75441867    c      6.000     0
         -2.25999456   -0.15460202  -15.84543426    h      1.000     0
         -1.88414116   -2.30460192  -12.39072074    c      6.000     0
         -3.61326061   -1.55173837  -11.59527644    h      1.000     0
         -0.35342696   -3.98873205  -10.99915147    c      6.000     0
          1.83308349   -4.88799006  -12.23164008    c      6.000     0
          3.03858311   -6.29154180  -11.35458652    h      1.000     0
          2.47096517   -4.03639716  -14.60705718    c      6.000     0
          4.13697294   -4.68494521  -15.60552285    h      1.000     0
         -0.98115635   -4.71315813   -8.40592868    c      6.000     0
         -3.48623302   -4.62098571   -7.51256475    c      6.000     0
         -5.02374357   -4.15533682   -8.78824648    h      1.000     0
         -4.04832499   -5.24071468   -5.03214128    c      6.000     0
         -6.00827087   -5.24344541   -4.43099065    h      1.000     0
         -2.13412591   -5.94791940   -3.32484651    c      6.000     0
          0.36342967   -6.05125499   -4.22650350    c      6.000     0
          1.89248199   -6.52922443   -2.94944556    h      1.000     0
          0.92744757   -5.46253880   -6.71366004    c      6.000     0
          2.88636985   -5.49218066   -7.31804187    h      1.000     0
         -2.72492498   -6.56014302   -0.67121554    c      6.000     0
         -4.86578518   -5.53426471    0.52292871    c      6.000     0
         -6.07474915   -4.22758157   -0.49140044    h      1.000     0
         -5.41903852   -6.09456421    3.01912594    c      6.000     0
         -7.04672317   -5.20793516    3.89546387    h      1.000     0
         -3.83554995   -7.68456338    4.44494114    c      6.000     0
         -1.69655750   -8.72458344    3.25107918    c      6.000     0
         -0.48904186  -10.04362536    4.25628260    h      1.000     0
         -1.16565331   -8.18562892    0.74504856    c      6.000     0
          0.44208117   -9.09411628   -0.14519497    h      1.000     0
         -4.37447648   -8.17878446    7.11109455    c      6.000     0
         -6.83688801   -7.99375438    8.11654935    c      6.000     0
         -8.44921660   -7.64341664    6.90416363    h      1.000     0
         -7.26321216   -8.29832282   10.66619543    c      6.000     0
         -9.12842908   -8.16636904   11.50088249    h      1.000     0
         -2.95343092   -9.09843698   11.36524810    c      6.000     0
         -1.50532110   -9.51974041   12.74965163    h      1.000     0
         -2.44145026   -8.82025113    8.83391633    c      6.000     0
         -0.50321877   -9.03023917    8.21054563    h      1.000     0
 
       center of nuclear mass  :   -0.00489693    0.00008624    0.00525065
       center of nuclear charge:   -0.00488945    0.00007730    0.00524483

              +--------------------------------------------------+
              |               basis set information              |
              +--------------------------------------------------+

              we will work with the 1s 3p 5d 7f 9g ... basis set
              ...i.e. with spherical basis functions...

   type   atoms  prim   cont   basis
   ---------------------------------------------------------------------------
    n        4     77     55   cc-pVQZ   [5s4p3d2f1g|21s6p3d2f1g]
    c       60     77     55   cc-pVQZ   [5s4p3d2f1g|21s6p3d2f1g]
    h       48     32     30   cc-pVQZ   [4s3p2d1f|6s3p2d1f]
   ---------------------------------------------------------------------------
   total:  112   6464   4960
   ---------------------------------------------------------------------------

   total number of primitive shells          :   78
   total number of contracted shells         : 1440
   total number of cartesian basis functions : 6160
   total number of SCF-basis functions       : 4960


 integral neglect threshold       :  0.54E-12
 integral storage threshold THIZE :  0.10E-04
 integral storage threshold THIME :         5


 DENSITY CONVERGENCE CHECK SWITCHED ON !
 SCF CONVERGENCE IF RMS(delta[D]) <     0.1000000000E-06


 symmetry group of the molecule :   c1 

 the group has the following generators :
   c1(z)

    1 symmetry operations found

 there are 1 real representations :   a   

 maximum number of shells which are related by symmetry :  1


    mo occupation :
   irrep   mo's   occupied
    a     4960      216
 
 number of basis functions   :                   4960
 number of occupied orbitals :                    216
 

 automatic virtual orbital shift switched on 
      shift if e(lumo)-e(homo) < 0.10000000    


 keyword $2e-ints_shell_statistics missing in file <control>

 ! One task per shell generated
  No pre-computed optimal task distribution found
  ... using automatic task generation

          ------------------------
          nuclear repulsion energy  :   7892.85370051    
          ------------------------


         -----------------
         -S,T+V- integrals
         -----------------

 1e-integrals will be neglected if expon. factor < 0.542526E-13
 
   Difference densities algorithm switched on.
   The maximal number of linear combinations of
   difference densities is                    20 .

 DIIS switched on: error vector is FDS-SDF
 Max. Iterations for DIIS is     :   5
 DIIS matrix (see manual) 
    Scaling factor of diagonals  :  1.200
    threshold for scaling factor :  0.000

 scf convergence criterion : increment of total energy < .1000000D-06
                  and increment of one-electron energy < .1000000D-03

  MOs are in ASCII format !


 reading orbital data $scfmo  from file mos
 orbital characterization : expanded
 mo provided and orthogonalized by Cholesky decomposition

 DSCF restart information will be dumped onto file mos

 
                                              current damping :  0.300
 ITERATION  ENERGY          1e-ENERGY        2e-ENERGY     RMS[dD(SAO)]   TOL
   1  -2508.9125104906    -18890.370815     8488.6046037    0.000D+00 0.541D-12
          max. resid. norm for Fia-block=  3.424D-01 for orbital      2a         
          max. resid. fock norm         =  6.880D+00 for orbital   4297a         
          Delta Eig. =   655.7061676678 eV 
 
                                              current damping :  0.250
 ITERATION  ENERGY          1e-ENERGY        2e-ENERGY     RMS[dD(SAO)]   TOL
   2  -2516.5782402603    -18983.550438     8574.1184977    0.435D-02 0.501D-12
          Norm of current diis error:  7.4028    
          max. resid. norm for Fia-block=  1.059D-01 for orbital     77a         
          max. resid. fock norm         =  1.508D-01 for orbital    381a         
          Delta Eig. =   164.8255704156 eV 
 
                                              current damping :  0.150
 ITERATION  ENERGY          1e-ENERGY        2e-ENERGY     RMS[dD(SAO)]   TOL
   3  -2517.5828962503    -18991.502931     8581.0663342    0.854D-03 0.306D-12
          Norm of current diis error:  2.3979    
          max. resid. norm for Fia-block=  3.591D-02 for orbital     78a         
          max. resid. fock norm         =  3.768D-02 for orbital     78a         
          Delta Eig. =    34.2905176205 eV 
 
                                              current damping :  0.100
 ITERATION  ENERGY          1e-ENERGY        2e-ENERGY     RMS[dD(SAO)]   TOL
   4  -2517.7315111375    -19000.455730     8589.8705182    0.262D-03 0.257D-12
          Norm of current diis error: 0.55400    
          max. resid. norm for Fia-block=  9.869D-03 for orbital    207a         
          max. resid. fock norm         =  1.304D-02 for orbital   4758a         
          Delta Eig. =     5.7436041228 eV 
 
                                              current damping :  0.150
 ITERATION  ENERGY          1e-ENERGY        2e-ENERGY     RMS[dD(SAO)]   TOL
   5  -2517.7434277800    -19000.269921     8589.6727928    0.871D-04 0.231D-12
          Norm of current diis error: 0.18607    
          max. resid. norm for Fia-block=  3.586D-03 for orbital    200a         
          max. resid. fock norm         =  6.846D-03 for orbital   4787a         
 mo-orthogonalization: Cholesky decomposition
          Delta Eig. =     0.4353382731 eV 
 
                                              current damping :  0.200
 ITERATION  ENERGY          1e-ENERGY        2e-ENERGY     RMS[dD(SAO)]   TOL
   6  -2517.7448010918    -19000.850821     8590.2523194    0.281D-04 0.218D-12
          Norm of current diis error: 0.75769E-01
          max. resid. norm for Fia-block=  1.608D-03 for orbital    206a         
          max. resid. fock norm         =  2.479D-03 for orbital   4768a         
          Delta Eig. =     0.2003580176 eV 
 
                                              current damping :  0.100
 ITERATION  ENERGY          1e-ENERGY        2e-ENERGY     RMS[dD(SAO)]   TOL
   7  -2517.7450689952    -19000.866248     8590.2674781    0.125D-04 0.208D-12
          Norm of current diis error: 0.30711E-01
          max. resid. norm for Fia-block=  9.423D-04 for orbital    200a         
          max. resid. fock norm         =  1.165D-03 for orbital    218a         
          Delta Eig. =     0.0327757776 eV 
 
                                              current damping :  0.150
 ITERATION  ENERGY          1e-ENERGY        2e-ENERGY     RMS[dD(SAO)]   TOL
   8  -2517.7451345842    -19000.841632     8590.2427965    0.645D-05 0.199D-12
          Norm of current diis error: 0.15516E-01
          max. resid. norm for Fia-block=  5.706D-04 for orbital    206a         
          max. resid. fock norm         =  5.935D-04 for orbital    206a         
          Delta Eig. =     0.0200257923 eV 
 
                                              current damping :  0.200
 ITERATION  ENERGY          1e-ENERGY        2e-ENERGY     RMS[dD(SAO)]   TOL
   9  -2517.7451508403    -19000.856536     8590.2576851    0.213D-05 0.192D-12
          Norm of current diis error: 0.79945E-02
          max. resid. norm for Fia-block=  2.798D-04 for orbital    199a         
          max. resid. fock norm         =  3.426D-04 for orbital    218a         
          Delta Eig. =     0.0115630204 eV 
 
                                              current damping :  0.250
 ITERATION  ENERGY          1e-ENERGY        2e-ENERGY     RMS[dD(SAO)]   TOL
  10  -2517.7451559014    -19000.855196     8590.2563397    0.878D-06 0.186D-12
          Norm of current diis error: 0.43137E-02
          max. resid. norm for Fia-block=  2.102D-04 for orbital    206a         
          max. resid. fock norm         =  2.167D-04 for orbital    206a         
 mo-orthogonalization: Cholesky decomposition
          Delta Eig. =     0.0031639082 eV 
 
                                              current damping :  0.100
 ITERATION  ENERGY          1e-ENERGY        2e-ENERGY     RMS[dD(SAO)]   TOL
  11  -2517.7451576367    -19000.850832     8590.2519738    0.462D-06 0.180D-12
          Norm of current diis error: 0.24222E-02
          max. resid. norm for Fia-block=  1.184D-04 for orbital    206a         
          max. resid. fock norm         =  1.253D-04 for orbital    218a         
          Delta Eig. =     0.0044973950 eV 
 
                                              current damping :  0.150
 ITERATION  ENERGY          1e-ENERGY        2e-ENERGY     RMS[dD(SAO)]   TOL
  12  -2517.7451582975    -19000.852539     8590.2536800    0.377D-06 0.172D-12
          Norm of current diis error: 0.11256E-02
          max. resid. norm for Fia-block=  5.999D-05 for orbital    215a         
          max. resid. fock norm         =  6.146D-05 for orbital    206a         
          Delta Eig. =     0.0014760916 eV 
 
                                              current damping :  0.200
 ITERATION  ENERGY          1e-ENERGY        2e-ENERGY     RMS[dD(SAO)]   TOL
  13  -2517.7451584296    -19000.850709     8590.2518501    0.182D-06 0.167D-12
          Norm of current diis error: 0.49114E-03
          max. resid. norm for Fia-block=  2.223D-05 for orbital    214a         
          max. resid. fock norm         =  2.501D-05 for orbital    220a         
          Delta Eig. =     0.0007345178 eV 

 DENSITY CONVERGED !

 
                                              current damping :  0.250
 ITERATION  ENERGY          1e-ENERGY        2e-ENERGY     RMS[dD(SAO)]   TOL
  14  -2517.7451584501    -19000.850944     8590.2520854    0.737D-07 0.163D-12
          Norm of current diis error: 0.23259E-03
          max. resid. norm for Fia-block=  1.128D-05 for orbital    215a         
          max. resid. fock norm         =  1.136D-05 for orbital    215a         
          Delta Eig. =     0.0004087298 eV 

 ENERGY & DENSITY CONVERGED !

 
                                              current damping :  0.300
 ITERATION  ENERGY          1e-ENERGY        2e-ENERGY     RMS[dD(SAO)]   TOL
  15  -2517.7451584527    -19000.850786     8590.2519271    0.334D-07 0.160D-12
          max. resid. norm for Fia-block=  2.188D-06 for orbital    176a         
          max. resid. fock norm         =  3.213D-06 for orbital    220a         

 convergence criteria satisfied after    15 iterations


                  ------------------------------------------ 
                 |  total energy      =  -2517.74515845273  |
                  ------------------------------------------ 
                 :  kinetic energy    =   2514.21968053670  :
                 :  potential energy  =  -5031.96483898943  :
                 :  virial theorem    =      1.99859974791  :
                 :  wavefunction norm =      1.00000000000  :
                  .......................................... 


 <geterg> : there is no data group $energy 


 <skperg> : $end is missing 


 orbitals $scfmo  will be written to file mos

    irrep                212a        213a        214a        215a        216a   
 eigenvalues H         -0.62563    -0.62322    -0.62308    -0.57708    -0.57661
            eV         -17.0243    -16.9588    -16.9549    -15.7032    -15.6906
 occupation              2.0000      2.0000      2.0000      2.0000      2.0000 

    irrep                217a        218a        219a        220a        221a   
 eigenvalues H         -0.27353    -0.27179    -0.25021    -0.24718    -0.20365
            eV          -7.4433     -7.3957     -6.8085     -6.7262     -5.5415
 
 
 
 
 ==============================================================================
                           electrostatic moments
 ==============================================================================

 reference point for electrostatic moments:    0.00000   0.00000   0.00000

 
              nuc           elec       ->  total
 ------------------------------------------------------------------------------
                          charge      
 ------------------------------------------------------------------------------
         436.000000    -432.000000       4.000000
 
 ------------------------------------------------------------------------------
                       dipole moment  
 ------------------------------------------------------------------------------
   x      -2.131798       2.112469      -0.019329
   y       0.033704      -0.032969       0.000735
   z       2.286747      -2.262653       0.024094
 
   | dipole moment | =     0.0309 a.u. =     0.0785 debye 
 
 ------------------------------------------------------------------------------
                     quadrupole moment
 ------------------------------------------------------------------------------
  xx    6423.332123   -6585.820964    -162.488841
  yy   16304.913378  -16394.238118     -89.324740
  zz   59159.924774  -58717.562397     442.362377
  xy    7393.610157   -7328.304352      65.305805
  xz  -11294.350153   11161.715379    -132.634773
  yz   -9221.009116    9099.694771    -121.314344
 
     1/3  trace=      63.516265
     anisotropy=     660.807529
 
 ==============================================================================
 

    dscf profiling
  --------------------------------------------------------------------
             module   cpu total (s)       %  wall total (s)       %

          dscf.total         34069.3  100.00         30823.3  100.00
        dscf.prepare           138.9    0.41           139.2    0.45
      prepare.oneint             1.3    0.00             1.3    0.00
     prepare.moinput             0.9    0.00             0.9    0.00
     moinput_orthmos           135.5    0.40           135.5    0.44
            dscf.scf         33925.4   99.58         30678.7   99.53
             scf.pre             0.0    0.00             0.1    0.00
        scf.makedmat            43.7    0.13            44.0    0.14
          scf.shloop         28777.3   84.47         28780.9   93.37
          shloop_omp         28772.9   84.45         28776.6   93.36
          scf.symcar             5.8    0.02             5.8    0.02
        scf.makefock             8.7    0.03            11.2    0.04
          scf.newerg             0.5    0.00             0.5    0.00
          scf.newcnv           891.4    2.62           114.4    0.37
           scf.fdiag          2724.2    8.00           341.8    1.11
         diag_tritrn           667.7    1.96            83.7    0.27
          diag_rdiag          2045.4    6.00           256.4    0.83
          scf.modump          1225.4    3.60          1213.3    3.94
           ortho_all           159.3    0.47            78.0    0.25
            scf.post            88.2    0.26            88.5    0.29
        dscf.postscf             5.0    0.01             5.4    0.02
 


    ------------------------------------------------------------------------
         total  cpu-time :  9 hours 27 minutes and 50 seconds
         total wall-time :  8 hours 33 minutes and 44 seconds
    ------------------------------------------------------------------------

   ****  dscf : all done  ****


    2018-02-21 02:23:02.316 

