 this is node-proc. number 0 running on node c-13-11.gp.local
 the total number of node-proc. spawned is  33

 dscfserver (c-13-11.gp.local) : TURBOMOLE V7.2 ( 21471 ) 7 Nov 2017 at 16:15:16
 Copyright (C) 2017 TURBOMOLE GmbH, Karlsruhe


    2018-02-20 17:49:18.796 

 
    0:02:21 ---- Start global counter...
    0:54:34 ---- ... finished.
 
    0:56:37 ---- Start global counter...
    1:46:37 ---- ... finished.
 
    1:48:40 ---- Start global counter...
    2:35:59 ---- ... finished.
 
    2:38:01 ---- Start global counter...
    3:21:18 ---- ... finished.
 
    3:23:20 ---- Start global counter...
    4:02:59 ---- ... finished.
 
    4:05:39 ---- Start global counter...
    4:41:29 ---- ... finished.
 
    4:43:32 ---- Start global counter...
    5:16:13 ---- ... finished.
 
    5:18:16 ---- Start global counter...
    5:48:40 ---- ... finished.
 
    5:50:45 ---- Start global counter...
    6:18:47 ---- ... finished.
 
    6:20:53 ---- Start global counter...
    6:46:55 ---- ... finished.
 
    6:49:39 ---- Start global counter...
    7:13:10 ---- ... finished.
 
    7:15:15 ---- Start global counter...
    7:36:56 ---- ... finished.
 
    7:39:01 ---- Start global counter...
    7:57:52 ---- ... finished.
 
    7:59:56 ---- Start global counter...
    8:16:11 ---- ... finished.
 
    8:18:14 ---- Start global counter...
    8:32:01 ---- ... finished.
 
    8:33:42 ---- ByeBye Tag received


 ! Total wall-clock time in seconds  :    30822.0
 ! Time (sec) spent in global counter:    28770.9
 ! So-called SERIAL wall-clock time  :     2051.1

  *** Regular termination of server ***
 total turnaround time of dscfserver 30823.37 sec
 cpu elapsed by dscfserver process   28765.76 sec 

   ***  dscf server : all done  ***


    2018-02-21 02:23:02.165 

