Using OpenMPI from /sopt/mpi/openmpi-1.8.6/intel_15.0.3/bin/mpiexec
STARTING ridft ON 8 PROCESSORS!
RUNNING PROGRAM /beegfs/modfac/apps/TURBOMOLE/7.0_intel/bin/em64t-unknown-linux-gnu_mpi/ridft_mpi.
PLEASE WAIT UNTIL ridft HAS FINISHED.
Look for the output in slave1.output.
  this is node-proc. number 1 running on node c-9-333.local
  the total number of node-proc. spawned is            7
  parallel platform: MPP, or cluster with fast interconnect

 ridft (c-9-333.local) : TURBOMOLE V7.0( ) 6 Jul 2015 at 19:34:44
 Copyright (C) 2015 TURBOMOLE GmbH, Karlsruhe


    2017-11-07 23:55:46.601 



                                  r i d f t

                        DFT program with RI approximation 
                                for coulomb part 




                                                 
                                 References:     
                                                 
          TURBOMOLE:                             
              R. Ahlrichs, M. Baer, M. Haeser, H. Horn, and
              C. Koelmel
              Electronic structure calculations on workstation
              computers: the program system TURBOMOLE
              Chem. Phys. Lett. 162: 165 (1989)
          Density Functional:                              
              O. Treutler and R. Ahlrichs                      
              Efficient Molecular Numerical Integration Schemes
              J. Chem. Phys. 102: 346 (1995)                   
          Parallel Version:                                
              Performance of parallel TURBOMOLE for Density    
              Functional Calculations                          
              M. v. Arnim and R. Ahlrichs                      
              J. Comp. Chem. 19: 1746 (1998)                   
          RI-J Method:                                     
              Auxiliary Basis Sets to approximate Coulomb      
              Potentials                                       
              Chem. Phys. Lett. 240: 283 (1995)                
              K. Eichkorn, O. Treutler, H. Oehm, M. Haeser     
              and R. Ahlrichs                                  
              Chem. Phys. Lett. 242: 652 (1995)                
                                                           
              Auxiliary Basis Sets for Main Row Atoms and their
              Use to approximate Coulomb Potentials            
              K. Eichkorn, F. Weigend, O. Treutler and         
              R. Ahlrichs                                      
              Theo. Chem. Acc. 97: 119 (1997)                   
                                                           
              Accurate Coulomb-fitting basis sets for H to Rn 
              F. Weigend                                        
              Phys. Chem. Chem. Phys. 8: 1057 (2006)            
                                                           
          Multipole accelerated RI-J (MARI-J):             
              Fast evaluation of the Coulomb potential for     
              electron densities using multipole accelerated   
              resolution of identity approximation             
              M. Sierka, A. Hogekamp and R. Ahlrichs           
              J. Chem. Phys. 118: 9136 (2003)                  
          RI-JK Method:                                     
              A fully direct RI-HF algorithm: Implementation,
              optimised auxiliary basis sets, demonstration of
              accuracy and efficiency                         
              F. Weigend                                      
              Phys. Chem. Chem. Phys. 4: 4285 (2002)           
          Two-component HF and DFT with spin-orbit coupling:  
              Self-consistent treatment of spin-orbit         
              interactions with efficient Hartree-Fock and    
              density functional methods                      
              M. K. Armbruster, F. Weigend, C. van Wüllen and 
              W. Klopper                                      
              Phys. Chem. Chem. Phys. 10: 1748 (2008)         
          Relativistic all-electron 2c calculations           
              An efficient implementation of two-component    
              relativistic exact-decoupling methods for large 
              molecules                                       
              D. Peng, N. Middendorf, F. Weigend, M. Reiher   
              J. Chem. Phys. 138, 184105 (2013)               
                                         


 


              +--------------------------------------------------+
              |      general information about current run       |
              +--------------------------------------------------+

 

 SCF run will be profiled !


 DENSITY CONVERGENCE CHECK SWITCHED ON !
 SCF CONVERGENCE IF RMS(delta[D]) <     0.1000000000E-06

 TPSS meta-GGA functional
 exchange:    LDA + TPSS
 correlation: LDA (PW) + TPSS
 A DFT calculation using the RI-J approximation will be carried out.
 Allocatable memory for RI due to $ricore (MB):       25000


              +--------------------------------------------------+
              | Atomic coordinate, charge and isotop information |
              +--------------------------------------------------+

                    atomic coordinates            atom    charge  isotop
          2.67214728  -16.12873925   -0.75925602    c      0.000     0
          1.30593016  -16.39762846    1.51834749    c      0.000     0
         -1.31019639  -16.39369378    1.51771279    c      0.000     0
         -2.67476084  -16.12094752   -0.76042953    c      0.000     0
         -1.30837672  -16.07940921   -3.05458833    c      0.000     0
          1.30701508  -16.08348240   -3.05409802    c      0.000     0
          5.29139954  -15.59493970   -0.74242714    c      0.000     0
          7.43033913  -14.73005939   -0.73704008    c      0.000     0
         -5.29296625  -15.58136101   -0.74446793    c      0.000     0
         -7.43098344  -14.71426351   -0.73779243    c      0.000     0
         -9.69652615  -13.29645624   -0.72937256    c      0.000     0
        -10.93393434  -12.68813885    1.55473794    c      0.000     0
        -12.82909870  -10.88457433    1.61206466    c      0.000     0
        -13.56404394   -9.60687721   -0.61206758    c      0.000     0
        -12.48997743  -10.38557361   -2.92976160    c      0.000     0
        -10.59732228  -12.18968014   -2.98697242    c      0.000     0
          9.69387361  -13.30877584   -0.72474041    c      0.000     0
         10.92284889  -12.69594135    1.56255539    c      0.000     0
         12.81390532  -10.88799398    1.62341707    c      0.000     0
         13.55406513   -9.61234639   -0.60014373    c      0.000     0
         12.48900578  -10.39633610   -2.92037155    c      0.000     0
         10.59887269  -12.20276556   -2.98104153    c      0.000     0
        -15.05607874   -7.39268630   -0.50055400    c      0.000     0
        -15.92881856   -5.26023940   -0.39600576    c      0.000     0
        -16.45466951   -2.64293666   -0.28509884    c      0.000     0
        -16.77458767   -1.39884896    2.05326687    c      0.000     0
        -16.76504829    1.21483177    2.19051792    c      0.000     0
        -16.43778899    2.69689608   -0.00478934    c      0.000     0
        -16.33519850    1.45269922   -2.36518066    c      0.000     0
        -16.34364924   -1.15825052   -2.50186757    c      0.000     0
         -9.69739828   13.37288615    0.66028140    c      0.000     0
        -10.68041244   12.58633900   -1.69181199    c      0.000     0
        -12.55001309   10.76145865   -1.81388528    c      0.000     0
        -13.52108968    9.64656855    0.40835646    c      0.000     0
        -12.69968087   10.60005497    2.76267366    c      0.000     0
        -10.82624647   12.42196738    2.88531427    c      0.000     0
        -15.01353276    7.43328986    0.27621494    c      0.000     0
        -15.90736486    5.31047831    0.15818470    c      0.000     0
          1.31007953   15.67882057    3.18396858    c      0.000     0
         -1.30376278   15.67899188    3.18327180    c      0.000     0
         -2.66919516   16.12879121    0.93190799    c      0.000     0
         -1.30399492   16.78112110   -1.26489932    c      0.000     0
          1.31274268   16.78099509   -1.26422688    c      0.000     0
         -7.44387325   14.80481212    0.78047799    c      0.000     0
         -5.29633978   15.64268679    0.85051983    c      0.000     0
          2.67673873   16.12841882    0.93327932    c      0.000     0
         15.04434731   -7.39684778   -0.48808300    c      0.000     0
         15.91791929   -5.26463943   -0.38489235    c      0.000     0
         16.44820687   -2.64819090   -0.27276785    c      0.000     0
         16.35323310   -1.16333813   -2.49004727    c      0.000     0
         16.34827902    1.44771140   -2.35360411    c      0.000     0
         16.44058219    2.69197399    0.00709578    c      0.000     0
         16.75374543    1.20920653    2.20415875    c      0.000     0
         16.75917698   -1.40441380    2.06710535    c      0.000     0
         15.91204907    5.30609224    0.16829754    c      0.000     0
         15.01890817    7.42929442    0.28493020    c      0.000     0
         13.52695843    9.64305159    0.41652526    c      0.000     0
         12.55990314   10.76074456   -1.80609525    c      0.000     0
         10.69158278   12.58702608   -1.68507210    c      0.000     0
          9.70414534   13.37050915    0.66620429    c      0.000     0
         10.82826125   12.41594339    2.89203431    c      0.000     0
         12.70146187   10.59368929    2.77052121    c      0.000     0
          7.45113829   14.80341202    0.78450175    c      0.000     0
          5.30381613   15.64189849    0.85335031    c      0.000     0
          2.33093939  -16.46882097    3.29215524    h      0.000     0
         -2.33624415  -16.46168965    3.29105838    h      0.000     0
         -2.33740599  -15.93165612   -4.82276243    h      0.000     0
          2.33709180  -15.93916702   -4.82192292    h      0.000     0
        -10.28539619  -13.55026395    3.29782152    h      0.000     0
        -13.67102568  -10.33633160    3.39957301    h      0.000     0
        -13.08424667   -9.46032737   -4.66108103    h      0.000     0
         -9.70609564  -12.68949935   -4.76551925    h      0.000     0
         10.27233092  -13.55959983    3.30412437    h      0.000     0
         13.64910272  -10.33572109    3.41287065    h      0.000     0
         13.08694959   -9.47331081   -4.65167630    h      0.000     0
          9.71239760  -12.70777496   -4.76049445    h      0.000     0
        -16.90275375   -2.51841171    3.76648086    h      0.000     0
        -16.89564084    2.14897336    4.01175509    h      0.000     0
        -16.12896987    2.57316407   -4.06993635    h      0.000     0
        -16.14424958   -2.09499577   -4.31521838    h      0.000     0
         -9.85366624   13.32838293   -3.41486792    h      0.000     0
        -13.19572089   10.07364854   -3.63442070    h      0.000     0
        -13.47335329    9.80031939    4.48561643    h      0.000     0
        -10.12428912   13.05476129    4.70573538    h      0.000     0
          2.33992891   15.23274541    4.90094171    h      0.000     0
         -2.33436555   15.23295341    4.89975471    h      0.000     0
         -2.33029594   17.16866387   -2.99711721    h      0.000     0
          2.33996508   17.16857470   -2.99589914    h      0.000     0
         16.16220589   -2.09902459   -4.30480185    h      0.000     0
         16.14702687    2.56800284   -4.05906409    h      0.000     0
         16.87777085    2.14314271    4.02597588    h      0.000     0
         16.87815314   -2.52426943    3.78079140    h      0.000     0
         13.20653066   10.07295125   -3.62631047    h      0.000     0
          9.86967430   13.33311592   -3.40869543    h      0.000     0
         10.12324666   13.04644202    4.71207867    h      0.000     0
         13.47150633    9.79133858    4.49387658    h      0.000     0
          7.06839993    6.96662517   -3.78282179    c      6.000     0
          6.81718081    7.58624969    0.75447461    c      6.000     0
         10.17303030   -1.43304544    2.62964269    c      6.000     0
          9.70834447   -2.36461127   -1.83626270    c      6.000     0
         -5.00896409    8.50740321   -4.09532670    c      6.000     0
          1.30817425  -10.04908875   -0.02953448    c      6.000     0
         -4.74928211    9.12599951    0.44257543    c      6.000     0
          1.32279305   -9.97229958    4.55789608    c      6.000     0
          9.40934030   -3.86510789    3.21789820    c      6.000     0
          4.73874471    9.13268269    0.42922251    c      6.000     0
          4.99225691    8.52445581   -4.11025873    c      6.000     0
          8.92860109   -4.78595200   -1.24952035    c      6.000     0
         -6.82423621    7.57620864    0.77429402    c      6.000     0
         -7.08072231    6.94529403   -3.76115623    c      6.000     0
         -1.29863211  -10.05112860   -0.02475216    c      6.000     0
         -1.29707533   -9.97556841    4.56260240    c      6.000     0
        -10.17182887   -1.45470232    2.65839043    c      6.000     0
         -9.70929495   -2.38199560   -1.80843383    c      6.000     0
         -8.92601185   -4.80297303   -1.22445828    c      6.000     0
         -9.40460375   -3.88631024    3.24395407    c      6.000     0
          8.59147749   -5.52500980    1.29553001    c      6.000     0
          3.67605532    9.48575233   -1.99562647    c      6.000     0
         -3.69134146    9.47593848   -1.98485974    c      6.000     0
          2.66883361   -9.82058930    2.26041780    c      6.000     0
          7.90939811    6.32569026   -1.33195061    c      6.000     0
         10.16237149   -0.58235295    0.10017574    c      6.000     0
         -8.58582867   -5.54375848    1.31957459    c      6.000     0
        -10.16377251   -0.60168653    0.12953389    c      6.000     0
         -7.91719765    6.30880092   -1.30754564    c      6.000     0
         -2.65134307   -9.82529570    2.26997467    c      6.000     0
          5.19716430   -8.97798077    2.15723224    c      6.000     0
         -1.16353247   10.30126916   -2.20317014    c      6.000     0
          1.14564358   10.30505673   -2.20670023    c      6.000     0
          7.04101419   -7.62509432    1.84150883    c      6.000     0
         10.13192133    2.02414166   -0.46072061    c      6.000     0
          9.43243498    4.17490263   -0.92302053    c      6.000     0
         -9.43624045    4.15626523   -0.89249933    c      6.000     0
         -5.18189961   -8.98846013    2.17474426    c      6.000     0
        -10.13470555    2.00518631   -0.43002818    c      6.000     0
         -7.03056744   -7.64132393    1.86252041    c      6.000     0
         -2.32233259   -9.90386800    6.33777271    h      1.000     0
         -2.33879897  -10.06371925   -1.79041794    h      1.000     0
         -7.52949657    7.18402772    2.65816162    h      1.000     0
         -7.97472597    6.05924165   -5.38069845    h      1.000     0
          7.52535643    7.19094807    2.63656613    h      1.000     0
          7.96234585    6.08679348   -5.40578345    h      1.000     0
          9.80574470   -1.75544537   -3.79185535    h      1.000     0
         10.62937047   -0.10426406    4.12298185    h      1.000     0
          2.34173743  -10.06155354   -1.79896486    h      1.000     0
          2.35406582   -9.89411812    6.32930690    h      1.000     0
         -4.26511071    8.84349768   -5.97709621    h      1.000     0
         -3.81158480    9.96097977    2.06298225    h      1.000     0
          3.80182284    9.96221555    2.05284690    h      1.000     0
          4.24303803    8.86039803   -5.98992748    h      1.000     0
          8.41516165   -6.10037887   -2.73595956    h      1.000     0
          9.25474763   -4.45089355    5.17750227    h      1.000     0
         -9.24557238   -4.47283137    5.20299795    h      1.000     0
         -9.81004931   -1.77129815   -3.76336716    h      1.000     0
        -10.62720319   -0.12733547    4.15332518    h      1.000     0
         -8.41146537   -6.11458465   -2.71305491    h      1.000     0
 
       center of nuclear mass  :    0.00001562    0.00072594    0.00119925
       center of nuclear charge:   -0.00010135   -0.03088717    0.07510929

              +--------------------------------------------------+
              |               basis set information              |
              +--------------------------------------------------+

              we will work with the 1s 3p 5d 7f 9g ... basis set
              ...i.e. with spherical basis functions...

   type   atoms  prim   cont   basis
   ---------------------------------------------------------------------------
    c      104     77     55   cc-pVQZ   [5s4p3d2f1g|21s6p3d2f1g]
    h       52     32     30   cc-pVQZ   [4s3p2d1f|6s3p2d1f]
   ---------------------------------------------------------------------------
   total:  156   9672   7280
   ---------------------------------------------------------------------------

   total number of primitive shells          :   45
   total number of contracted shells         : 2080
   total number of cartesian basis functions : 9100
   total number of SCF-basis functions       : 7280


 integral neglect threshold       :  0.37E-14
 integral storage threshold THIZE :  0.10E-04
 integral storage threshold THIME :         5

 RI-J AUXILIARY BASIS SET information:

              we will work with the 1s 3p 5d 7f 9g ... basis set
              ...i.e. with spherical basis functions...

   type   atoms  prim   cont   basis
   ---------------------------------------------------------------------------
    c      104     70     49   cc-pVQZ   [6s4p3d1f1g|12s5p4d2f1g]
    h       52     16     11   cc-pVQZ   [3s1p1d|5s2p1d]
   ---------------------------------------------------------------------------
   total:  156   8112   5668
   ---------------------------------------------------------------------------

   total number of primitive shells          :   32
   total number of contracted shells         : 1820
   total number of cartesian basis functions : 6968
   total number of SCF-basis functions       : 5668


 symmetry group of the molecule :   c1 

 the group has the following generators :
   c1(z)

    1 symmetry operations found

 there are 1 real representations :   a   

 maximum number of shells which are related by symmetry :  1


    mo occupation :
   irrep   mo's   occupied
    a     7280      130
 
 number of basis functions   :         7280
 number of occupied orbitals :          130
 
  
           ------------------
           density functional
           ------------------
 Dummy atoms with grid-point found.
 DFT quadrature threshold dgrenze tightened by factor 1/10.

 TPSS meta-GGA functional
 exchange:    LDA + TPSS
 correlation: LDA (PW) + TPSS
 Dummy atoms with grid-point found.
 DFT quadrature threshold dgrenze tightened by factor 1/10.

 Dummy atoms with grid-point found.
 DFT quadrature threshold dgrenze tightened by factor 1/10.

 grinp -> nfun, dfgga, dfhybrid 
           5 F F
 iterations will be done with small grid
  
 spherical integration : Lebedev's spherical grid
 spherical gridsize    :           5
    i.e. gridpoints    :         590
 value for diffuse not defined
 radial integration    : Chebyshev 2nd kind (scaling 3)
 radial gridsize       :           8
 integration cells     :         156
 partition function    : becke
 partition sharpness   :           3
  
 found dummy atom(s) with basis: included in dft

 <rddim> : input of entry tasksize
           from data group '$pardft' failed !

               Default values taken

 <rddim> : input of entry memdiv
           from data group '$pardft' failed !

               Default values taken
  RIDFT: memory allocation for DFT gridpoints
  MEMORY is divided by 1 as DEFAULT
 Each node can hold at most  the            1 -th part
 of the gridpoints    

 biggest AO integral is expected to be     3.537514283
  
           ------------------------
               RI-J - INFORMATION
           ------------------------
 
 
 **************************************************
 *      MEMORY ALLOCATION FOR PARALLEL RI-DFT     *
 **************************************************
 
 
MEMORY FOR (MU NU/ ALPHA), SEQUENTIAL RUN              24746 MByte
 
            DIFFERENCE IN MEMORY NEED:       DIAG./SLAVE  
 
      TOTAL DIFFERENCE :                   2407 MByte
 
      difference in xcore:                  255 MByte
      difference in fatmat:                 712 MByte
      getcor calls skipped by slaves:      1441 MByte
 
 
           Integral memory available for diagonal.     24746 MByte
 
           Integral memory available for slave             0 MByte
 
         MEMORY FOR (MU NU/ ALPHA) ON DIAGONALIZER     24746 MByte
 
         MEMORY FOR (MU NU/ ALPHA) ON ONE SLAVE            0 MByte
 
         TOTAL MEMORY FOR (MU NU/ ALPHA),ALL NODES     24746 MByte
 
 Contributions to RI integral batches: 
  neglected integral batches:     1716927
  direct contribution:             332682
  memory contribution:      114631
 Memory core needed for (P|Q) and Cholesky    246 MByte
 Memory core minimum needed except of (P|Q)    13 MByte
 Total minimum memory core needed (sum)       258 MByte
     number of direct tasks:         140
  
 ****************************************
 Memory allocated for RI-J 25004 MByte
 ****************************************
                                            

          ------------------------
          nuclear repulsion energy  :   3382.45308235    
          ------------------------

 
          -----------------
          -S integrals
          -----------------

 1e-integrals will be neglected if expon. factor < 0.367249E-15
 
          -----------------
          -T+V integrals
          -----------------

 1e-integrals will be neglected if expon. factor < 0.367249E-15
 Difference densities >>NOT<< switched on in parallel ridft!

 automatic virtual orbital shift switched on 
      shift if e(lumo)-e(homo) < 0.10000000    


 DIIS switched on: error vector is FDS-SDF
 Max. Iterations for DIIS is     :   4
 DIIS matrix (see manual) 
    Scaling factor of diagonals  :  1.200
    threshold for scaling factor :  0.000

 scf convergence criterion : increment of total energy < .1000000D-08
                  and increment of one-electron energy < .1000000D-05


 <geterg> : there is no data group $energy 

  MOs are in ASCII format !


 reading orbital data $scfmo  from file mos . 

 orbital characterization : expanded
 
 mo provided and orthogonalized by Cholesky decomposition

 DSCF restart information will be dumped onto file mos


 Starting SCF iterations


 ITERATION  ENERGY          1e-ENERGY        2e-ENERGY     RMS[dD(SAO)]   TOL
   1  -1531.8192324604    -8732.1868940     3817.9145792    0.000D+00 0.366D-14
                            Exc = -218.698396807     Coul =  4036.61297600    
                              N = 260.00062323    
                            current damping = 0.700
 
          max. resid. norm for Fia-block=  3.033D-01 for orbital      7a         
          max. resid. fock norm         =  1.640D+01 for orbital   6741a         

 ITERATION  ENERGY          1e-ENERGY        2e-ENERGY     RMS[dD(SAO)]   TOL
   2  -1535.7632360251    -8777.3870594     3859.1707410    0.760D-02 0.366D-14
                            Exc = -222.714964183     Coul =  4081.88570518    
                              N = 260.00051016    
                            current damping = 0.650
 
          Norm of current diis error:  7.2934    
          max. resid. norm for Fia-block=  1.347D-01 for orbital     36a         
          max. resid. fock norm         =  1.668D-01 for orbital   6967a         

 ITERATION  ENERGY          1e-ENERGY        2e-ENERGY     RMS[dD(SAO)]   TOL
   3  -1536.5923765846    -8788.0159005     3868.9704416    0.195D-02 0.366D-14
                            Exc = -223.890482017     Coul =  4092.86092357    
                              N = 260.00046484    
                            current damping = 0.550
 
          Norm of current diis error:  3.4744    
          max. resid. norm for Fia-block=  5.710D-02 for orbital     36a         
          max. resid. fock norm         =  6.398D-02 for orbital     44a         

 ITERATION  ENERGY          1e-ENERGY        2e-ENERGY     RMS[dD(SAO)]   TOL
   4  -1536.8346219982    -8796.1360466     3876.8483423    0.488D-03 0.366D-14
                            Exc = -224.602486065     Coul =  4101.45082833    
                              N = 260.00045168    
                            current damping = 0.450
 
          Norm of current diis error:  1.3172    
          max. resid. norm for Fia-block=  2.221D-02 for orbital     56a         
          max. resid. fock norm         =  2.834D-02 for orbital   6971a         

 ITERATION  ENERGY          1e-ENERGY        2e-ENERGY     RMS[dD(SAO)]   TOL
   5  -1536.8754529720    -8797.6267822     3878.2982469    0.224D-03 0.366D-14
                            Exc = -224.859259160     Coul =  4103.15750606    
                              N = 260.00044449    
                            current damping = 0.350
 
          Norm of current diis error: 0.57392    
          max. resid. norm for Fia-block=  8.896D-03 for orbital     85a         
          max. resid. fock norm         =  1.288D-02 for orbital   6809a         
          mo-orthogonalization: Cholesky decomposition

 ITERATION  ENERGY          1e-ENERGY        2e-ENERGY     RMS[dD(SAO)]   TOL
   6  -1536.8822326591    -8799.5619593     3880.2266443    0.114D-03 0.366D-14
                            Exc = -224.990636328     Coul =  4105.21728062    
                              N = 260.00044605    
                            current damping = 0.250
 
          Norm of current diis error: 0.26954    
          max. resid. norm for Fia-block=  3.437D-03 for orbital     80a         
          max. resid. fock norm         =  6.044D-03 for orbital   7183a         
          irrep a   : virtual orbitals shifted by    0.00072

 ITERATION  ENERGY          1e-ENERGY        2e-ENERGY     RMS[dD(SAO)]   TOL
   7  -1536.8838992500    -8799.3093994     3879.9724178    0.444D-04 0.366D-14
                            Exc = -224.998127389     Coul =  4104.97054517    
                              N = 260.00044397    
                            current damping = 0.300
 
          Norm of current diis error: 0.66169E-01
          max. resid. norm for Fia-block=  9.129D-04 for orbital     85a         
          max. resid. fock norm         =  1.777D-03 for orbital   7207a         

 ITERATION  ENERGY          1e-ENERGY        2e-ENERGY     RMS[dD(SAO)]   TOL
   8  -1536.8839578920    -8799.3091578     3879.9721176    0.110D-04 0.366D-14
                            Exc = -225.002927749     Coul =  4104.97504535    
                              N = 260.00044422    
                            current damping = 0.150
 
          Norm of current diis error: 0.45538E-01
          max. resid. norm for Fia-block=  4.271D-04 for orbital    127a         
          max. resid. fock norm         =  9.376D-04 for orbital   7207a         
          irrep a   : virtual orbitals shifted by    0.01124

 ITERATION  ENERGY          1e-ENERGY        2e-ENERGY     RMS[dD(SAO)]   TOL
   9  -1536.8839943191    -8799.3755082     3880.0384315    0.352D-05 0.366D-14
                            Exc = -225.005602611     Coul =  4105.04403414    
                              N = 260.00044431    
                            current damping = 0.200
 
          Norm of current diis error: 0.19899E-01
          max. resid. norm for Fia-block=  2.927D-04 for orbital    127a         
          max. resid. fock norm         =  8.001D-04 for orbital     37a         
          irrep a   : virtual orbitals shifted by    0.00740

 ITERATION  ENERGY          1e-ENERGY        2e-ENERGY     RMS[dD(SAO)]   TOL
  10  -1536.8839947071    -8799.4047399     3880.0676628    0.139D-05 0.366D-14
                            Exc = -225.006501049     Coul =  4105.07416386    
                              N = 260.00044406    
                            current damping = 0.050
 
          Norm of current diis error: 0.19747E-01
          max. resid. norm for Fia-block=  1.585D-04 for orbital    120a         
          max. resid. fock norm         =  4.434D-04 for orbital     39a         
          irrep a   : virtual orbitals shifted by    0.01900
          mo-orthogonalization: Cholesky decomposition

 ITERATION  ENERGY          1e-ENERGY        2e-ENERGY     RMS[dD(SAO)]   TOL
  11  -1536.8840026767    -8799.3761613     3880.0390763    0.888D-06 0.366D-14
                            Exc = -225.005424089     Coul =  4105.04450041    
                              N = 260.00044418    
                            current damping = 0.100
 
          Norm of current diis error: 0.50125E-02
          max. resid. norm for Fia-block=  7.041D-05 for orbital    130a         
          max. resid. fock norm         =  1.630D-04 for orbital     38a         
          irrep a   : virtual orbitals shifted by    0.01515

 ITERATION  ENERGY          1e-ENERGY        2e-ENERGY     RMS[dD(SAO)]   TOL
  12  -1536.8840028259    -8799.3730636     3880.0359784    0.453D-06 0.366D-14
                            Exc = -225.005358583     Coul =  4105.04133701    
                              N = 260.00044417    
                            current damping = 0.050
 
          Norm of current diis error: 0.42719E-02
          max. resid. norm for Fia-block=  3.680D-05 for orbital    130a         
          max. resid. fock norm         =  8.578D-05 for orbital   7193a         
          irrep a   : virtual orbitals shifted by    0.01900

 ITERATION  ENERGY          1e-ENERGY        2e-ENERGY     RMS[dD(SAO)]   TOL
  13  -1536.8840032081    -8799.3786001     3880.0415145    0.220D-06 0.366D-14
                            Exc = -225.005542062     Coul =  4105.04705656    
                              N = 260.00044419    
                            current damping = 0.100
 
          Norm of current diis error: 0.12943E-02
          max. resid. norm for Fia-block=  1.752D-05 for orbital    127a         
          max. resid. fock norm         =  4.296D-05 for orbital   7180a         
          irrep a   : virtual orbitals shifted by    0.01514

 ITERATION  ENERGY          1e-ENERGY        2e-ENERGY     RMS[dD(SAO)]   TOL
  14  -1536.8840032309    -8799.3767243     3880.0396387    0.104D-06 0.366D-14
                            Exc = -225.005470097     Coul =  4105.04510882    
                              N = 260.00044417    
                            current damping = 0.150
 
          Norm of current diis error: 0.79287E-03
          max. resid. norm for Fia-block=  8.613D-06 for orbital    129a         
          max. resid. fock norm         =  1.916D-05 for orbital   7191a         
          irrep a   : virtual orbitals shifted by    0.01129

 DENSITY CONVERGED !


 ITERATION  ENERGY          1e-ENERGY        2e-ENERGY     RMS[dD(SAO)]   TOL
  15  -1536.8840032426    -8799.3765777     3880.0394921    0.524D-07 0.366D-14
                            Exc = -225.005472159     Coul =  4105.04496428    
                              N = 260.00044418    
                            current damping = 0.050
 
          Norm of current diis error: 0.37863E-03
          max. resid. norm for Fia-block=  4.381D-06 for orbital    128a         
          max. resid. fock norm         =  1.049D-05 for orbital     39a         
          irrep a   : virtual orbitals shifted by    0.01900
          mo-orthogonalization: Cholesky decomposition

 DENSITY CONVERGED !


 ITERATION  ENERGY          1e-ENERGY        2e-ENERGY     RMS[dD(SAO)]   TOL
  16  -1536.8840032448    -8799.3770588     3880.0399732    0.267D-07 0.366D-14
                            Exc = -225.005486445     Coul =  4105.04545966    
                              N = 260.00044418    
                            current damping = 0.100
 
          Norm of current diis error: 0.21850E-03
          max. resid. norm for Fia-block=  2.189D-06 for orbital    121a         
          max. resid. fock norm         =  6.362D-06 for orbital     39a         
          irrep a   : virtual orbitals shifted by    0.01514

 DENSITY CONVERGED !


 ITERATION  ENERGY          1e-ENERGY        2e-ENERGY     RMS[dD(SAO)]   TOL
  17  -1536.8840032456    -8799.3770380     3880.0399524    0.111D-07 0.366D-14
                            Exc = -225.005484657     Coul =  4105.04543701    
                              N = 260.00044418    
                            current damping = 0.150
 
          Norm of current diis error: 0.11986E-03
          max. resid. norm for Fia-block=  1.252D-06 for orbital    127a         
          max. resid. fock norm         =  3.972D-06 for orbital     37a         
          irrep a   : virtual orbitals shifted by    0.01129

 DENSITY CONVERGED !


 ITERATION  ENERGY          1e-ENERGY        2e-ENERGY     RMS[dD(SAO)]   TOL
  18  -1536.8840032458    -8799.3769515     3880.0398659    0.601D-08 0.366D-14
                            Exc = -225.005482755     Coul =  4105.04534865    
                              N = 260.00044418    
                            current damping = 0.050
 
          Norm of current diis error: 0.60247E-04
          max. resid. norm for Fia-block=  7.425D-07 for orbital    129a         
          max. resid. fock norm         =  1.934D-06 for orbital     37a         
          irrep a   : virtual orbitals shifted by    0.01900

 ENERGY & DENSITY CONVERGED !


 ITERATION  ENERGY          1e-ENERGY        2e-ENERGY     RMS[dD(SAO)]   TOL
  19  -1536.8832214668    -8799.3769453     3880.0406415    0.427D-08 0.366D-14
                            Exc = -225.004701130     Coul =  4105.04534263    
                              N = 259.99995585    
                            current damping = 0.100
 
          Norm of current diis error: 0.37868E-04
          max. resid. norm for Fia-block=  2.816D-07 for orbital    127a         
          max. resid. fock norm         =  7.089D-07 for orbital   7180a         

 End of SCF iterations

   convergence criteria satisfied after   19 iterations


                  ------------------------------------------ 
                 |  total energy      =  -1536.88322146678  |
                  ------------------------------------------ 
                 :  kinetic energy    =   1529.94917087415  :
                 :  potential energy  =  -3066.83239234093  :
                 :  virial theorem    =      1.99548823847  :
                 :  wavefunction norm =      1.00000000000  :
                  .......................................... 


 <geterg> : there is no data group $energy 


 <skperg> : $end is missing 


 orbitals $scfmo  will be written to file mos

    irrep                126a        127a        128a        129a        130a   
 eigenvalues H         -0.24090    -0.22444    -0.22380    -0.18481    -0.18470
            eV          -6.5553     -6.1073     -6.0899     -5.0291     -5.0259
 occupation              2.0000      2.0000      2.0000      2.0000      2.0000 

    irrep                131a        132a        133a        134a        135a   
 eigenvalues H         -0.10755    -0.10750    -0.06519    -0.06414    -0.05087
            eV          -2.9267     -2.9252     -1.7739     -1.7454     -1.3843
 
 
 ! grave: sending quit signal to master process
 
 
 
 
 ==============================================================================
                           electrostatic moments
 ==============================================================================

 reference point for electrostatic moments:    0.00000   0.00000   0.00000

 
              nuc           elec       ->  total
 ------------------------------------------------------------------------------
                          charge      
 ------------------------------------------------------------------------------
         260.000000    -260.000000      -0.000000
 
 ------------------------------------------------------------------------------
                       dipole moment  
 ------------------------------------------------------------------------------
   x      -0.026350       0.026966       0.000616
   y      -8.030664       8.034047       0.003383
   z      19.528416     -19.517427       0.010989
 
   | dipole moment | =     0.0115 a.u. =     0.0293 debye 
 
 ------------------------------------------------------------------------------
                     quadrupole moment
 ------------------------------------------------------------------------------
  xx   13576.824640  -13757.790609    -180.965969
  yy   13432.198439  -13612.693374    -180.494935
  zz    1588.176232   -1737.664745    -149.488513
  xy       3.812256      -3.817061      -0.004805
  xz     -17.011538      17.038875       0.027337
  yz   -2827.746561    2832.296127       4.549566
 
     1/3  trace=    -170.316472
     anisotropy=      32.223022
 
 ==============================================================================
 

    ridft profiling
  --------------------------------------------------------------------
             module   cpu total (s)       %  wall total (s)       %

               RIDFT         18748.0  100.00         20517.3  100.00
         Ridft_b_scf          4209.0   22.45          4231.0   20.62
        b_scf_prelim             0.0    0.00             0.1    0.00
        b_scf_molinp             0.0    0.00             0.2    0.00
         b_scf_init0             0.0    0.00             0.1    0.00
        b_scf_auxbas             0.0    0.00             0.8    0.00
      b_scf_symmetry             0.0    0.00             0.1    0.00
         b_scf_cosmo             0.0    0.00             0.0    0.00
        b_scf_params          2306.8   12.30          2313.7   11.28
          b_scf_ri-j          1593.2    8.50          1592.9    7.76
    b_scf_ri-j_auxpq          1593.1    8.50          1592.8    7.76
     ri-j_auxpq_chol            12.4    0.07            12.4    0.06
         b_scf_1elec             7.1    0.04             8.0    0.04
       b_scf_moinput           301.8    1.61           315.1    1.54
     moinput_orthmos           301.0    1.61           300.9    1.47
    b_scf_dft-dstmax             0.0    0.00             0.0    0.00
           Ridft_scf         14535.9   77.53         16283.0   79.36
          Scf_b_loop             0.0    0.00             0.5    0.00
                noga             0.0    0.00             0.0    0.00
            Scf_loop         14516.9   77.43         16263.5   79.27
     scf_loop_mkdmat            55.6    0.30           589.5    2.87
       scf_loop_ri-j          2565.5   13.68          2564.8   12.50
      parlp1.bc.dens             4.4    0.02             4.4    0.02
        parlp1.gs.gp            61.3    0.33            61.3    0.30
        parlp2.bc.gq             0.0    0.00             0.0    0.00
        scf_loop_dft          8716.7   46.49          8715.6   42.48
      pardft.bc.dens             0.0    0.00             0.0    0.00
        dft_grid_con           100.4    0.54           100.4    0.49
          dft_xcmrhf          8329.3   44.43          8328.2   40.59
          dft_getval           162.3    0.87           162.6    0.79
          funct2 dst             6.7    0.04             6.8    0.03
      funct2 f2loop1            37.7    0.20            37.9    0.18
      funct2 f2loop2            64.2    0.34            64.0    0.31
          funct2 s+c            48.3    0.26            48.7    0.24
        funct2 cmf_2            43.6    0.23            43.7    0.21
          dft_mkdens          4017.2   21.43          4017.0   19.58
        dft_mgga-fun             3.7    0.02             3.6    0.02
          dft_mkfock          4137.7   22.07          4137.0   20.16
     pardft.red.fock           858.7    4.58           858.5    4.18
     scf_loop_energy             0.7    0.00             3.7    0.02
     scf_loop_mkfock             1.0    0.01             1.0    0.01
       scf_loop_diis          1448.3    7.73          2588.4   12.62
       scf_loop_diag          1076.9    5.74          1077.0    5.25
         diag_tritrn           353.4    1.88           353.4    1.72
          diag_rdiag           718.3    3.83           718.4    3.50
     scf_loop_modump           317.7    1.69           389.3    1.90
      scf_loop_ortho           322.0    1.72           321.9    1.57
          Scf_a_loop            19.0    0.10            19.0    0.09
         Ridft_a_scf             3.2    0.02             3.3    0.02
         a_scf_fanal             3.1    0.02             3.2    0.02
 


    ------------------------------------------------------------------------
         total  cpu-time :  5 hours 12 minutes and 54 seconds
         total wall-time :  5 hours 42 minutes and 26 seconds
    ------------------------------------------------------------------------


   ****  ridft : all done  ****


    2017-11-08 05:38:08.914 

