Using Slurm to start processes with PMI2
STARTING ridft ON 8 PROCESSORS!
RUNNING PROGRAM /beegfs/modfac/apps/TURBOMOLE/7.0_intel_GA/bin/em64t-unknown-linux-gnu_mpi/ridft_mpi.
PLEASE WAIT UNTIL ridft HAS FINISHED.
Look for the output in slave1.output.
  this is node-proc. number 1 running on node c-5-25.local
  the total number of node-proc. spawned is            8
  parallel platform: MPP, or cluster with fast interconnect

 ridft (c-5-25.local) : TURBOMOLE V7.0.2( ) 15 Jan 2016 at 17:47:42
 Copyright (C) 2016 TURBOMOLE GmbH, Karlsruhe


    2018-02-01 20:16:04.457 



                                  r i d f t

                        DFT program with RI approximation 
                                for coulomb part 




                                                 
                                 References:     
                                                 
          TURBOMOLE:                             
              R. Ahlrichs, M. Baer, M. Haeser, H. Horn, and
              C. Koelmel
              Electronic structure calculations on workstation
              computers: the program system TURBOMOLE
              Chem. Phys. Lett. 162: 165 (1989)
          Density Functional:                              
              O. Treutler and R. Ahlrichs                      
              Efficient Molecular Numerical Integration Schemes
              J. Chem. Phys. 102: 346 (1995)                   
          Parallel Version:                                
              Performance of parallel TURBOMOLE for Density    
              Functional Calculations                          
              M. v. Arnim and R. Ahlrichs                      
              J. Comp. Chem. 19: 1746 (1998)                   
          RI-J Method:                                     
              Auxiliary Basis Sets to approximate Coulomb      
              Potentials                                       
              Chem. Phys. Lett. 240: 283 (1995)                
              K. Eichkorn, O. Treutler, H. Oehm, M. Haeser     
              and R. Ahlrichs                                  
              Chem. Phys. Lett. 242: 652 (1995)                
                                                           
              Auxiliary Basis Sets for Main Row Atoms and their
              Use to approximate Coulomb Potentials            
              K. Eichkorn, F. Weigend, O. Treutler and         
              R. Ahlrichs                                      
              Theo. Chem. Acc. 97: 119 (1997)                   
                                                           
              Accurate Coulomb-fitting basis sets for H to Rn 
              F. Weigend                                        
              Phys. Chem. Chem. Phys. 8: 1057 (2006)            
                                                           
          Multipole accelerated RI-J (MARI-J):             
              Fast evaluation of the Coulomb potential for     
              electron densities using multipole accelerated   
              resolution of identity approximation             
              M. Sierka, A. Hogekamp and R. Ahlrichs           
              J. Chem. Phys. 118: 9136 (2003)                  
          RI-JK Method:                                     
              A fully direct RI-HF algorithm: Implementation,
              optimised auxiliary basis sets, demonstration of
              accuracy and efficiency                         
              F. Weigend                                      
              Phys. Chem. Chem. Phys. 4: 4285 (2002)           
          Two-component HF and DFT with spin-orbit coupling:  
              Self-consistent treatment of spin-orbit         
              interactions with efficient Hartree-Fock and    
              density functional methods                      
              M. K. Armbruster, F. Weigend, C. van Wüllen and 
              W. Klopper                                      
              Phys. Chem. Chem. Phys. 10: 1748 (2008)         
          Relativistic all-electron 2c calculations           
              An efficient implementation of two-component    
              relativistic exact-decoupling methods for large 
              molecules                                       
              D. Peng, N. Middendorf, F. Weigend, M. Reiher   
              J. Chem. Phys. 138, 184105 (2013)               
                                         


 


              +--------------------------------------------------+
              |      general information about current run       |
              +--------------------------------------------------+

 

 SCF run will be profiled !


 DENSITY CONVERGENCE CHECK SWITCHED ON !
 SCF CONVERGENCE IF RMS(delta[D]) <     0.1000000000E-06

 TPSS meta-GGA functional
 exchange:    LDA + TPSS
 correlation: LDA (PW) + TPSS
 A DFT calculation using the RI-J approximation will be carried out.
 Allocatable memory for RI due to $ricore (MB):        5000


              +--------------------------------------------------+
              | Atomic coordinate, charge and isotop information |
              +--------------------------------------------------+

                    atomic coordinates            atom    charge  isotop
         -2.81102809   -2.32727899   -3.26733648    c      6.000     0
         -0.12371659   -2.32727899   -3.26733648    c      6.000     0
          1.21993916    0.00000000   -3.26733648    c      6.000     0
         -0.12371659    2.32727899   -3.26733648    c      6.000     0
         -2.81102809    2.32727899   -3.26733648    c      6.000     0
         -4.15468385    0.00000000   -3.26733648    c      6.000     0
          1.21375598   -4.64385079   -3.26733648    c      6.000     0
         -0.17645885   -6.93685015   -3.26733648    c      6.000     0
         -2.75828584   -6.93685015   -3.26733648    c      6.000     0
         -4.14850066   -4.64385079   -3.26733648    c      6.000     0
         -6.82962898    0.00000000   -3.26733648    c      6.000     0
         -8.12031760   -2.35046026   -3.26733648    c      6.000     0
         -6.82940410   -4.58638989   -3.26733648    c      6.000     0
         -8.12031760    2.35046026   -3.26733648    c      6.000     0
         -6.82940410    4.58638989   -3.26733648    c      6.000     0
         -4.14850066    4.64385079   -3.26733648    c      6.000     0
         -2.75828584    6.93685015   -3.26733648    c      6.000     0
         -0.17645885    6.93685015   -3.26733648    c      6.000     0
          1.21375598    4.64385079   -3.26733648    c      6.000     0
          3.89465942    4.58638989   -3.26733648    c      6.000     0
          5.18557291    2.35046026   -3.26733648    c      6.000     0
          3.89488430    0.00000000   -3.26733648    c      6.000     0
          5.18557291   -2.35046026   -3.26733648    c      6.000     0
          3.89465942   -4.58638989   -3.26733648    c      6.000     0
          0.84958307   -8.70675631   -3.26733648    h      1.000     0
         -3.78432965   -8.70675631   -3.26733648    h      1.000     0
         -7.84916647   -6.35992054   -3.26733648    h      1.000     0
        -10.16612188   -2.34683577   -3.26733648    h      1.000     0
        -10.16612188    2.34683577   -3.26733648    h      1.000     0
         -7.84916647    6.35992054   -3.26733648    h      1.000     0
         -3.78432965    8.70675631   -3.26733648    h      1.000     0
          0.84958307    8.70675631   -3.26733648    h      1.000     0
          4.91442178    6.35992054   -3.26733648    h      1.000     0
          7.23137720    2.34683577   -3.26733648    h      1.000     0
          7.23137720   -2.34683577   -3.26733648    h      1.000     0
          4.91442178   -6.35992054   -3.26733648    h      1.000     0
          0.12371659   -2.32727899    3.26733648    c      6.000     0
          2.81102809   -2.32727899    3.26733648    c      6.000     0
          4.15468385    0.00000000    3.26733648    c      6.000     0
          2.81102809    2.32727899    3.26733648    c      6.000     0
          0.12371659    2.32727899    3.26733648    c      6.000     0
         -1.21993916    0.00000000    3.26733648    c      6.000     0
          4.14850066   -4.64385079    3.26733648    c      6.000     0
          2.75828584   -6.93685015    3.26733648    c      6.000     0
          0.17645885   -6.93685015    3.26733648    c      6.000     0
         -1.21375598   -4.64385079    3.26733648    c      6.000     0
         -3.89488430    0.00000000    3.26733648    c      6.000     0
         -5.18557291   -2.35046026    3.26733648    c      6.000     0
         -3.89465942   -4.58638989    3.26733648    c      6.000     0
         -5.18557291    2.35046026    3.26733648    c      6.000     0
         -3.89465942    4.58638989    3.26733648    c      6.000     0
         -1.21375598    4.64385079    3.26733648    c      6.000     0
          0.17645885    6.93685015    3.26733648    c      6.000     0
          2.75828584    6.93685015    3.26733648    c      6.000     0
          4.14850066    4.64385079    3.26733648    c      6.000     0
          6.82940410    4.58638989    3.26733648    c      6.000     0
          8.12031760    2.35046026    3.26733648    c      6.000     0
          6.82962898    0.00000000    3.26733648    c      6.000     0
          8.12031760   -2.35046026    3.26733648    c      6.000     0
          6.82940410   -4.58638989    3.26733648    c      6.000     0
          3.78432965   -8.70675631    3.26733648    h      1.000     0
         -0.84958307   -8.70675631    3.26733648    h      1.000     0
         -4.91442178   -6.35992054    3.26733648    h      1.000     0
         -7.23137720   -2.34683577    3.26733648    h      1.000     0
         -7.23137720    2.34683577    3.26733648    h      1.000     0
         -4.91442178    6.35992054    3.26733648    h      1.000     0
         -0.84958307    8.70675631    3.26733648    h      1.000     0
          3.78432965    8.70675631    3.26733648    h      1.000     0
          7.84916647    6.35992054    3.26733648    h      1.000     0
         10.16612188    2.34683577    3.26733648    h      1.000     0
         10.16612188   -2.34683577    3.26733648    h      1.000     0
          7.84916647   -6.35992054    3.26733648    h      1.000     0
 
       center of nuclear mass  :   -0.00000000   -0.00000000    0.00000000
       center of nuclear charge:    0.00000000    0.00000000    0.00000000

              +--------------------------------------------------+
              |               basis set information              |
              +--------------------------------------------------+

              we will work with the 1s 3p 5d 7f 9g ... basis set
              ...i.e. with spherical basis functions...

   type   atoms  prim   cont   basis
   ---------------------------------------------------------------------------
    c       48     77     55   cc-pVQZ   [5s4p3d2f1g|21s6p3d2f1g]
    h       24     32     30   cc-pVQZ   [4s3p2d1f|6s3p2d1f]
   ---------------------------------------------------------------------------
   total:   72   4464   3360
   ---------------------------------------------------------------------------

   total number of primitive shells          :   45
   total number of contracted shells         :  960
   total number of cartesian basis functions : 4200
   total number of SCF-basis functions       : 3360


 integral neglect threshold       :  0.79E-14
 integral storage threshold THIZE :  0.10E-04
 integral storage threshold THIME :         5

 RI-J AUXILIARY BASIS SET information:

              we will work with the 1s 3p 5d 7f 9g ... basis set
              ...i.e. with spherical basis functions...

   type   atoms  prim   cont   basis
   ---------------------------------------------------------------------------
    c       48     70     49   cc-pVQZ   [6s4p3d1f1g|12s5p4d2f1g]
    h       24     16     11   cc-pVQZ   [3s1p1d|5s2p1d]
   ---------------------------------------------------------------------------
   total:   72   3744   2616
   ---------------------------------------------------------------------------

   total number of primitive shells          :   32
   total number of contracted shells         :  840
   total number of cartesian basis functions : 3216
   total number of SCF-basis functions       : 2616


 symmetry group of the molecule :   c1 

 the group has the following generators :
   c1(z)

    1 symmetry operations found

 there are 1 real representations :   a   

 maximum number of shells which are related by symmetry :  1


    mo occupation :
   irrep   mo's   occupied
    a     3360      156
 
 number of basis functions   :         3360
 number of occupied orbitals :          156
 
  
           ------------------
           density functional
           ------------------
 TPSS meta-GGA functional
 exchange:    LDA + TPSS
 correlation: LDA (PW) + TPSS
 grinp -> nfun, dfgga, dfhybrid 
           5 F F
 iterations will be done with small grid
  
 spherical integration : Lebedev's spherical grid
 spherical gridsize    :           5
    i.e. gridpoints    :         590
 value for diffuse not defined
 radial integration    : Chebyshev 2nd kind (scaling 3)
 radial gridsize       :           8
 integration cells     :          72
 partition function    : becke
 partition sharpness   :           3
  

 <rddim> : input of entry tasksize
           from data group '$pardft' failed !

               Default values taken

 <rddim> : input of entry memdiv
           from data group '$pardft' failed !

               Default values taken
  RIDFT: memory allocation for DFT gridpoints
  MEMORY is divided by 1 as DEFAULT
 Each node can hold at most  the            1 -th part
 of the gridpoints    

 biggest AO integral is expected to be     3.537514283
  
           ------------------------
               RI-J - INFORMATION
           ------------------------
 
 
 **************************************************
 *      MEMORY ALLOCATION FOR PARALLEL RI-DFT     *
 **************************************************
 
 
MEMORY FOR (MU NU/ ALPHA), SEQUENTIAL RUN               4943 MByte
 
            DIFFERENCE IN MEMORY NEED:       DIAG./SLAVE  
 
      TOTAL DIFFERENCE :                    516 MByte
 
      difference in xcore:                   58 MByte
      difference in fatmat:                 152 MByte
      getcor calls skipped by slaves:       307 MByte
 
 
           Integral memory available for diagonal.      4943 MByte
 
           Integral memory available for slave             0 MByte
 
         MEMORY FOR (MU NU/ ALPHA) ON DIAGONALIZER      4943 MByte
 
         MEMORY FOR (MU NU/ ALPHA) ON ONE SLAVE            0 MByte
 
         TOTAL MEMORY FOR (MU NU/ ALPHA),ALL NODES      4943 MByte
 
 Contributions to RI integral batches: 
  neglected integral batches:      220401
  direct contribution:             191464
  memory contribution:       49415
 Memory core needed for (P|Q) and Cholesky     53 MByte
 Memory core minimum needed except of (P|Q)     7 MByte
 Total minimum memory core needed (sum)        59 MByte
     number of direct tasks:         160
  
 ****************************************
 Memory allocated for RI-J  5002 MByte
 ****************************************
                                            

          ------------------------
          nuclear repulsion energy  :   6088.16999679    
          ------------------------

 
          -----------------
          -S integrals
          -----------------

 1e-integrals will be neglected if expon. factor < 0.795705E-15
 
          -----------------
          -T+V integrals
          -----------------

 1e-integrals will be neglected if expon. factor < 0.795705E-15
 Difference densities >>NOT<< switched on in parallel ridft!

 automatic virtual orbital shift switched on 
      shift if e(lumo)-e(homo) < 0.10000000    


 DIIS switched on: error vector is FDS-SDF
 Max. Iterations for DIIS is     :   4
 DIIS matrix (see manual) 
    Scaling factor of diagonals  :  1.200
    threshold for scaling factor :  0.000

 scf convergence criterion : increment of total energy < .1000000D-08
                  and increment of one-electron energy < .1000000D-05


 <geterg> : there is no data group $energy 

  MOs are in ASCII format !


 reading orbital data $scfmo  from file mos . 

 orbital characterization : expanded
 
 mo provided and orthogonalized by Cholesky decomposition

 DSCF restart information will be dumped onto file mos


 Starting SCF iterations


 ITERATION  ENERGY          1e-ENERGY        2e-ENERGY     RMS[dD(SAO)]   TOL
   1  -1839.5730393280    -14538.696605     6610.9535688    0.000D+00 0.794D-14
                            Exc = -264.021519064     Coul =  6874.97508787    
                              N = 311.99317208    
                            current damping = 0.700
 
          max. resid. norm for Fia-block=  2.709D-01 for orbital     30a         
          max. resid. fock norm         =  6.669D+00 for orbital   3034a         

 ITERATION  ENERGY          1e-ENERGY        2e-ENERGY     RMS[dD(SAO)]   TOL
   2  -1843.6700338933    -14595.686521     6663.8464906    0.475D-01 0.794D-14
                            Exc = -268.336841931     Coul =  6932.18333255    
                              N = 311.99432479    
                            current damping = 0.650
 
          Norm of current diis error:  7.9162    
          max. resid. norm for Fia-block=  1.245D-01 for orbital     51a         
          max. resid. fock norm         =  1.851D-01 for orbital   3211a         

 ITERATION  ENERGY          1e-ENERGY        2e-ENERGY     RMS[dD(SAO)]   TOL
   3  -1844.5306461615    -14605.297441     6672.5967976    0.132D-01 0.794D-14
                            Exc = -269.573149803     Coul =  6942.16994741    
                              N = 311.99499832    
                            current damping = 0.550
 
          Norm of current diis error:  3.7895    
          max. resid. norm for Fia-block=  6.120D-02 for orbital     51a         
          max. resid. fock norm         =  6.835D-02 for orbital     51a         

 ITERATION  ENERGY          1e-ENERGY        2e-ENERGY     RMS[dD(SAO)]   TOL
   4  -1844.7701478924    -14620.203277     6687.2631324    0.254D-02 0.794D-14
                            Exc = -270.359509557     Coul =  6957.62264200    
                              N = 311.99528702    
                            current damping = 0.450
 
          Norm of current diis error:  1.4931    
          max. resid. norm for Fia-block=  2.412D-02 for orbital     51a         
          max. resid. fock norm         =  3.525D-02 for orbital    227a         

 ITERATION  ENERGY          1e-ENERGY        2e-ENERGY     RMS[dD(SAO)]   TOL
   5  -1844.7958416425    -14615.068122     6682.1022834    0.204D-02 0.794D-14
                            Exc = -270.618932377     Coul =  6952.72121575    
                              N = 311.99559179    
                            current damping = 0.500
 
          Norm of current diis error:  1.1011    
          max. resid. norm for Fia-block=  1.127D-02 for orbital    152a         
          max. resid. fock norm         =  2.002D-02 for orbital   3357a         
          mo-orthogonalization: Cholesky decomposition

 ITERATION  ENERGY          1e-ENERGY        2e-ENERGY     RMS[dD(SAO)]   TOL
   6  -1844.8176997701    -14622.653178     6689.6654813    0.457D-03 0.794D-14
                            Exc = -270.762095263     Coul =  6960.42757661    
                              N = 311.99559341    
                            current damping = 0.550
 
          Norm of current diis error: 0.29348    
          max. resid. norm for Fia-block=  3.503D-03 for orbital    151a         
          max. resid. fock norm         =  6.362D-03 for orbital   3320a         

 ITERATION  ENERGY          1e-ENERGY        2e-ENERGY     RMS[dD(SAO)]   TOL
   7  -1844.8193461039    -14621.923605     6688.9342623    0.335D-03 0.794D-14
                            Exc = -270.780942745     Coul =  6959.71520504    
                              N = 311.99560706    
                            current damping = 0.600
 
          Norm of current diis error: 0.10149    
          max. resid. norm for Fia-block=  1.117D-03 for orbital     81a         
          max. resid. fock norm         =  1.978D-03 for orbital   3320a         

 ITERATION  ENERGY          1e-ENERGY        2e-ENERGY     RMS[dD(SAO)]   TOL
   8  -1844.8195374267    -14621.764991     6688.7754565    0.171D-03 0.794D-14
                            Exc = -270.786027070     Coul =  6959.56148359    
                              N = 311.99562960    
                            current damping = 0.450
 
          Norm of current diis error: 0.29423E-01
          max. resid. norm for Fia-block=  3.778D-04 for orbital     51a         
          max. resid. fock norm         =  8.147D-04 for orbital   3309a         

 ITERATION  ENERGY          1e-ENERGY        2e-ENERGY     RMS[dD(SAO)]   TOL
   9  -1844.8195514113    -14621.950296     6688.9607476    0.372D-04 0.794D-14
                            Exc = -270.792509369     Coul =  6959.75325696    
                              N = 311.99563474    
                            current damping = 0.500
 
          Norm of current diis error: 0.16185E-01
          max. resid. norm for Fia-block=  2.872D-04 for orbital    153a         
          max. resid. fock norm         =  6.188D-04 for orbital   3323a         

 ITERATION  ENERGY          1e-ENERGY        2e-ENERGY     RMS[dD(SAO)]   TOL
  10  -1844.8195514841    -14621.997474     6689.0079261    0.127D-04 0.794D-14
                            Exc = -270.793784671     Coul =  6959.80171074    
                              N = 311.99563448    
                            current damping = 0.350
 
          Norm of current diis error: 0.16747E-01
          max. resid. norm for Fia-block=  1.557D-04 for orbital    153a         
          max. resid. fock norm         =  2.955D-04 for orbital   3323a         
          mo-orthogonalization: Cholesky decomposition

 ITERATION  ENERGY          1e-ENERGY        2e-ENERGY     RMS[dD(SAO)]   TOL
  11  -1844.8195559169    -14621.901812     6688.9122589    0.150D-04 0.794D-14
                            Exc = -270.793045956     Coul =  6959.70530487    
                              N = 311.99563622    
                            current damping = 0.400
 
          Norm of current diis error: 0.83956E-02
          max. resid. norm for Fia-block=  8.627D-05 for orbital    150a         
          max. resid. fock norm         =  1.900D-04 for orbital      4a         

 ITERATION  ENERGY          1e-ENERGY        2e-ENERGY     RMS[dD(SAO)]   TOL
  12  -1844.8195572327    -14621.934806     6688.9452517    0.296D-05 0.794D-14
                            Exc = -270.792977561     Coul =  6959.73822927    
                              N = 311.99563670    
                            current damping = 0.450
 
          Norm of current diis error: 0.27768E-02
          max. resid. norm for Fia-block=  3.174D-05 for orbital    124a         
          max. resid. fock norm         =  8.872D-05 for orbital     18a         

 ITERATION  ENERGY          1e-ENERGY        2e-ENERGY     RMS[dD(SAO)]   TOL
  13  -1844.8195573576    -14621.944104     6688.9545502    0.145D-05 0.794D-14
                            Exc = -270.793273039     Coul =  6959.74782328    
                              N = 311.99563671    
                            current damping = 0.300
 
          Norm of current diis error: 0.10686E-02
          max. resid. norm for Fia-block=  1.138D-05 for orbital    150a         
          max. resid. fock norm         =  2.037D-05 for orbital   3322a         

 ITERATION  ENERGY          1e-ENERGY        2e-ENERGY     RMS[dD(SAO)]   TOL
  14  -1844.8195573799    -14621.939494     6688.9499394    0.761D-06 0.794D-14
                            Exc = -270.793210782     Coul =  6959.74315023    
                              N = 311.99563683    
                            current damping = 0.350
 
          Norm of current diis error: 0.25503E-03
          max. resid. norm for Fia-block=  4.711D-06 for orbital    150a         
          max. resid. fock norm         =  9.578D-06 for orbital   3322a         

 ITERATION  ENERGY          1e-ENERGY        2e-ENERGY     RMS[dD(SAO)]   TOL
  15  -1844.8195573801    -14621.938418     6688.9488638    0.257D-06 0.794D-14
                            Exc = -270.793186154     Coul =  6959.74204995    
                              N = 311.99563688    
                            current damping = 0.200
 
          Norm of current diis error: 0.23733E-03
          max. resid. norm for Fia-block=  1.969D-06 for orbital    150a         
          max. resid. fock norm         =  4.344D-06 for orbital   3313a         
          mo-orthogonalization: Cholesky decomposition

 ITERATION  ENERGY          1e-ENERGY        2e-ENERGY     RMS[dD(SAO)]   TOL
  16  -1844.8195573811    -14621.939337     6688.9497830    0.114D-06 0.794D-14
                            Exc = -270.793195412     Coul =  6959.74297840    
                              N = 311.99563689    
                            current damping = 0.250
 
          Norm of current diis error: 0.74115E-04
          max. resid. norm for Fia-block=  7.997D-07 for orbital    156a         
          max. resid. fock norm         =  2.127D-06 for orbital      1a         

 DENSITY CONVERGED !


 ITERATION  ENERGY          1e-ENERGY        2e-ENERGY     RMS[dD(SAO)]   TOL
  17  -1844.8195573812    -14621.939284     6688.9497301    0.352D-07 0.794D-14
                            Exc = -270.793199742     Coul =  6959.74292988    
                              N = 311.99563691    
                            current damping = 0.300
 
          Norm of current diis error: 0.41701E-04
          max. resid. norm for Fia-block=  4.439D-07 for orbital    153a         
          max. resid. fock norm         =  8.301D-07 for orbital   3323a         

 DENSITY CONVERGED !


 ITERATION  ENERGY          1e-ENERGY        2e-ENERGY     RMS[dD(SAO)]   TOL
  18  -1844.8195573812    -14621.939125     6688.9495704    0.187D-07 0.794D-14
                            Exc = -270.793198982     Coul =  6959.74276934    
                              N = 311.99563691    
                            current damping = 0.150
 
          Norm of current diis error: 0.24570E-04
          max. resid. norm for Fia-block=  1.616D-07 for orbital    151a         
          max. resid. fock norm         =  2.912D-07 for orbital      3a         

 DENSITY CONVERGED !


 ITERATION  ENERGY          1e-ENERGY        2e-ENERGY     RMS[dD(SAO)]   TOL
  19  -1844.8195573813    -14621.939221     6688.9496666    0.911D-08 0.794D-14
                            Exc = -270.793199212     Coul =  6959.74286581    
                              N = 311.99563691    
                            current damping = 0.200
 
          Norm of current diis error: 0.66968E-05
          max. resid. norm for Fia-block=  7.696D-08 for orbital    156a         
          max. resid. fock norm         =  1.454D-07 for orbital   3347a         

 ENERGY & DENSITY CONVERGED !


 ITERATION  ENERGY          1e-ENERGY        2e-ENERGY     RMS[dD(SAO)]   TOL
  20  -1844.8196959399    -14621.939231     6688.9495383    0.358D-08 0.794D-14
                            Exc = -270.793337621     Coul =  6959.74287596    
                              N = 311.99971043    
                            current damping = 0.250
 
          Norm of current diis error: 0.38641E-05
          max. resid. norm for Fia-block=  3.736D-08 for orbital    150a         
          max. resid. fock norm         =  7.865D-08 for orbital   3322a         

 End of SCF iterations

   convergence criteria satisfied after   20 iterations


                  ------------------------------------------ 
                 |  total energy      =  -1844.81969593993  |
                  ------------------------------------------ 
                 :  kinetic energy    =   1837.11178320534  :
                 :  potential energy  =  -3681.93147914527  :
                 :  virial theorem    =      1.99582186121  :
                 :  wavefunction norm =      1.00000000000  :
                  .......................................... 


 <geterg> : there is no data group $energy 


 <skperg> : $end is missing 


 orbitals $scfmo  will be written to file mos

    irrep                152a        153a        154a        155a        156a   
 eigenvalues H         -0.21864    -0.19023    -0.18587    -0.18258    -0.17945
            eV          -5.9496     -5.1766     -5.0579     -4.9682     -4.8832
 occupation              2.0000      2.0000      2.0000      2.0000      2.0000 

    irrep                157a        158a        159a        160a        161a   
 eigenvalues H         -0.07751    -0.07700    -0.07186    -0.07145    -0.04499
            eV          -2.1093     -2.0954     -1.9553     -1.9443     -1.2242
 
 
 ! grave: sending quit signal to master process
 
 
 
 
 ==============================================================================
                           electrostatic moments
 ==============================================================================

 reference point for electrostatic moments:    0.00000   0.00000   0.00000

 
              nuc           elec       ->  total
 ------------------------------------------------------------------------------
                          charge      
 ------------------------------------------------------------------------------
         312.000000    -312.000000      -0.000000
 
 ------------------------------------------------------------------------------
                       dipole moment  
 ------------------------------------------------------------------------------
   x      -0.000000       0.000000       0.000000
   y       0.000000      -0.000000      -0.000000
   z       0.000000       0.000000       0.000000
 
   | dipole moment | =     0.0000 a.u. =     0.0000 debye 
 
 ------------------------------------------------------------------------------
                     quadrupole moment
 ------------------------------------------------------------------------------
  xx    6525.636206   -6705.459549    -179.823343
  yy    5853.843626   -6032.728988    -178.885361
  zz    3330.752162   -3544.810146    -214.057984
  xy      -0.000000       0.000000       0.000000
  xz    1495.852572   -1496.958579      -1.106008
  yz      -0.000000       0.000000       0.000000
 
     1/3  trace=    -190.922230
     anisotropy=      34.765956
 
 ==============================================================================
 

    ridft profiling
  --------------------------------------------------------------------
             module   cpu total (s)       %  wall total (s)       %

               RIDFT         10337.8  100.00         10331.3  100.00
         Ridft_b_scf           172.1    1.66           172.2    1.67
        b_scf_prelim             0.0    0.00             0.0    0.00
        b_scf_molinp             0.0    0.00             0.0    0.00
         b_scf_init0             0.0    0.00             0.0    0.00
        b_scf_auxbas             0.0    0.00             0.0    0.00
      b_scf_symmetry             0.0    0.00             0.0    0.00
         b_scf_cosmo             0.0    0.00             0.0    0.00
        b_scf_params            16.4    0.16            16.4    0.16
          b_scf_ri-j            60.0    0.58            60.1    0.58
    b_scf_ri-j_auxpq            59.9    0.58            60.0    0.58
     ri-j_auxpq_chol             2.7    0.03             2.7    0.03
         b_scf_1elec             8.3    0.08             8.3    0.08
       b_scf_moinput            87.5    0.85            87.4    0.85
     moinput_orthmos            86.8    0.84            86.8    0.84
    b_scf_dft-dstmax             0.0    0.00             0.0    0.00
           Ridft_scf         10163.8   98.32         10157.2   98.31
          Scf_b_loop             0.0    0.00             0.0    0.00
                noga             0.0    0.00             0.0    0.00
            Scf_loop         10155.8   98.24         10149.3   98.24
     scf_loop_mkdmat            23.3    0.23            23.3    0.23
       scf_loop_ri-j          1255.3   12.14          1254.3   12.14
      parlp1.bc.dens             2.3    0.02             2.3    0.02
        parlp1.gs.gp             0.2    0.00             0.2    0.00
        parlp2.bc.gq             0.0    0.00             0.0    0.00
        scf_loop_dft          7780.3   75.26          7774.7   75.25
      pardft.bc.dens             0.0    0.00             0.0    0.00
        dft_grid_con             3.2    0.03             3.2    0.03
          dft_xcmrhf          7609.3   73.61          7603.8   73.60
          dft_getval            77.1    0.75            77.1    0.75
          funct2 dst             0.6    0.01             0.7    0.01
      funct2 f2loop1            13.9    0.13            14.0    0.14
      funct2 f2loop2            36.1    0.35            36.2    0.35
          funct2 s+c            25.5    0.25            25.4    0.25
        funct2 cmf_2            23.2    0.22            23.3    0.23
          dft_mkdens          3716.8   35.95          3714.2   35.95
        dft_mgga-fun             1.6    0.02             1.7    0.02
          dft_mkfock          3813.0   36.88          3810.2   36.88
     pardft.red.fock           668.1    6.46           667.6    6.46
     scf_loop_energy             0.2    0.00             0.2    0.00
     scf_loop_mkfock             0.4    0.00             0.4    0.00
       scf_loop_diis           576.2    5.57           576.2    5.58
       scf_loop_diag           301.7    2.92           301.4    2.92
         diag_tritrn           102.3    0.99           102.2    0.99
          diag_rdiag           198.5    1.92           198.4    1.92
     scf_loop_modump           134.4    1.30           134.7    1.30
      scf_loop_ortho            78.7    0.76            78.6    0.76
          Scf_a_loop             7.9    0.08             8.0    0.08
         Ridft_a_scf             1.9    0.02             1.9    0.02
         a_scf_fanal             1.9    0.02             1.9    0.02
 


    ------------------------------------------------------------------------
         total  cpu-time :  2 hours 52 minutes and 29 seconds
         total wall-time :  2 hours 52 minutes and 22 seconds
    ------------------------------------------------------------------------


   ****  ridft : all done  ****


    2018-02-01 23:08:26.654 

