 operating system is UNIX !

 ridft (c-12-251.gp.local) : TURBOMOLE V7.2 ( 21454 ) 4 Oct 2017 at 12:48:15
 Copyright (C) 2017 TURBOMOLE GmbH, Karlsruhe


    2018-04-28 11:01:52.065 



                                  r i d f t

                        DFT program with RI approximation 
                                for coulomb part 




                                                 
                                 References:     
                                                 
          TURBOMOLE:                             
              R. Ahlrichs, M. Baer, M. Haeser, H. Horn, and
              C. Koelmel
              Electronic structure calculations on workstation
              computers: the program system TURBOMOLE
              Chem. Phys. Lett. 162: 165 (1989)
          Density Functional:                              
              O. Treutler and R. Ahlrichs                      
              Efficient Molecular Numerical Integration Schemes
              J. Chem. Phys. 102: 346 (1995)                   
          Parallel Version:                                
              Performance of parallel TURBOMOLE for Density    
              Functional Calculations                          
              M. v. Arnim and R. Ahlrichs                      
              J. Comp. Chem. 19: 1746 (1998)                   
          RI-J Method:                                     
              Auxiliary Basis Sets to approximate Coulomb      
              Potentials                                       
              Chem. Phys. Lett. 240: 283 (1995)                
              K. Eichkorn, O. Treutler, H. Oehm, M. Haeser     
              and R. Ahlrichs                                  
              Chem. Phys. Lett. 242: 652 (1995)                
                                                           
              Auxiliary Basis Sets for Main Row Atoms and their
              Use to approximate Coulomb Potentials            
              K. Eichkorn, F. Weigend, O. Treutler and         
              R. Ahlrichs                                      
              Theo. Chem. Acc. 97: 119 (1997)                   
                                                           
              Accurate Coulomb-fitting basis sets for H to Rn 
              F. Weigend                                        
              Phys. Chem. Chem. Phys. 8: 1057 (2006)            
                                                           
          Multipole accelerated RI-J (MARI-J):             
              Fast evaluation of the Coulomb potential for     
              electron densities using multipole accelerated   
              resolution of identity approximation             
              M. Sierka, A. Hogekamp and R. Ahlrichs           
              J. Chem. Phys. 118: 9136 (2003)                  
          RI-JK Method:                                     
              A fully direct RI-HF algorithm: Implementation,
              optimised auxiliary basis sets, demonstration of
              accuracy and efficiency                         
              F. Weigend                                      
              Phys. Chem. Chem. Phys. 4: 4285 (2002)           
          Two-component HF and DFT with spin-orbit coupling:  
              Self-consistent treatment of spin-orbit         
              interactions with efficient Hartree-Fock and    
              density functional methods                      
              M. K. Armbruster, F. Weigend, C. van Wüllen and 
              W. Klopper                                      
              Phys. Chem. Chem. Phys. 10: 1748 (2008)         
          Relativistic all-electron 2c calculations           
              An efficient implementation of two-component    
              relativistic exact-decoupling methods for large 
              molecules                                       
              D. Peng, N. Middendorf, F. Weigend, M. Reiher   
              J. Chem. Phys. 138, 184105 (2013)               
                                         




              +--------------------------------------------------+
              |      general information about current run       |
              +--------------------------------------------------+

 

 DENSITY CONVERGENCE CHECK SWITCHED ON !
 SCF CONVERGENCE IF RMS(delta[D]) <     0.1000000000E-06

 A HF calculation using the RI-JK approximation will be carried out.
 Allocatable memory for RI due to $ricore (MB):                   500


              +--------------------------------------------------+
              | Atomic coordinate, charge and isotop information |
              +--------------------------------------------------+

                    atomic coordinates            atom    charge  isotop
         -4.89018803   -0.61058122    0.88714758    c      6.000     0
         -4.93292050   -1.65609180   -0.88745217    h      1.000     0
         -5.02618793   -1.98777749    2.41452974    h      1.000     0
         -6.56875430    0.57754679    0.96179744    h      1.000     0
         -2.47470942    0.93993890    1.10560809    c      6.000     0
         -2.48924287    2.04706832    2.84657210    h      1.000     0
         -2.38554629    2.29710149   -0.44744211    h      1.000     0
         -0.10739249   -0.69591110    1.05529898    c      6.000     0
         -0.16284764   -2.02835421    2.63782216    h      1.000     0
         -0.10168464   -1.84596637   -0.66418946    h      1.000     0
          2.32737925    0.83160344    1.19436826    c      6.000     0
          2.29277334    1.99094351    2.89996058    h      1.000     0
          2.39295516    2.13799197   -0.40271129    h      1.000     0
          4.67249002   -0.83742156    1.17015902    c      6.000     0
          4.76346834   -1.95636434   -0.55727448    h      1.000     0
          6.40189018    0.27229016    1.29240016    h      1.000     0
          4.64739787   -2.15308636    2.75638896    h      1.000     0
          0.07967505    0.38029242    7.77907310    c      6.000     0
          0.13053186    2.61975675    7.22757319    o      8.000     0
          2.21994159   -1.04055042    7.97337464    n      7.000     0
          3.86578014   -0.24198897    7.46567656    h      1.000     0
          2.14635950   -2.91494457    8.22172798    h      1.000     0
         -2.35848925   -1.01609706    8.27881842    c      6.000     0
         -2.08022707   -2.83159732    9.19935006    h      1.000     0
         -3.31512064   -1.31525758    6.48204159    h      1.000     0
         -3.56402860    0.16920801    9.44151372    h      1.000     0
 
       center of nuclear mass  :   -0.03057277    0.04356050    4.10983421
       center of nuclear charge:   -0.05458783   -0.02451533    4.00159136

              +--------------------------------------------------+
              |               basis set information              |
              +--------------------------------------------------+

              we will work with the 1s 3p 5d 7f 9g ... basis set
              ...i.e. with spherical basis functions...

   type   atoms  prim   cont   basis
   ---------------------------------------------------------------------------
    c        7     77     57   def2-QZVP   [7s4p3d2f1g|15s8p3d2f1g]
    h       17     33     30   def2-QZVP   [4s3p2d1f|7s3p2d1f]
    o        1     77     57   def2-QZVP   [7s4p3d2f1g|15s8p3d2f1g]
    n        1     77     57   def2-QZVP   [7s4p3d2f1g|15s8p3d2f1g]
   ---------------------------------------------------------------------------
   total:   26   1254   1023
   ---------------------------------------------------------------------------

   total number of primitive shells          :  100
   total number of contracted shells         :  323
   total number of cartesian basis functions : 1243
   total number of SCF-basis functions       : 1023


 integral neglect threshold       :  0.27E-13
 integral storage threshold THIZE :  0.10E-04
 integral storage threshold THIME :         5

 RI-JK AUXILIARY BASIS SET information:

              we will work with the 1s 3p 5d 7f 9g ... basis set
              ...i.e. with spherical basis functions...

   type   atoms  prim   cont   basis
   ---------------------------------------------------------------------------
    c        7     97     75   def2-QZVP   [10s8p5d1f1g|14s10p6d2f1g]
    h       17     20     18   def2-QZVP   [2s2p2d|4s2p2d]
    o        1     97     77   def2-QZVP   [10s8p4d2f1g|14s10p6d2f1g]
    n        1     97     77   def2-QZVP   [10s8p4d2f1g|14s10p6d2f1g]
   ---------------------------------------------------------------------------
   total:   26   1213    985
   ---------------------------------------------------------------------------

   total number of primitive shells          :  107
   total number of contracted shells         :  327
   total number of cartesian basis functions : 1149
   total number of SCF-basis functions       :  985


 symmetry group of the molecule :   c1 

 the group has the following generators :
   c1(z)

    1 symmetry operations found

 there are 1 real representations :   a   

 maximum number of shells which are related by symmetry :  1


    mo occupation :
   irrep   mo's   occupied
    a     1023       37
 
 number of basis functions   :                   1023
 number of occupied orbitals :                     37
 

 biggest AO integral is expected to be     6.990327543
  
           ------------------------
               RI-JK - INFORMATION
           ------------------------
 Contributions to RI integral batches: 
  neglected integral batches:                 13652
  direct contribution:                        38674
  memory contribution:                     0
 Memory core needed for (P|Q) and Cholesky      8 MByte
 Memory core minimum needed except of (P|Q)     1 MByte
 Total minimum memory core needed (sum)         8 MByte
  
 ****************************************
 Memory allocated for RI-J     8 MByte
 ****************************************
                                            
 total memory allocated for calculation of  (Q|P)**(-1/2) :   12 MiB

  forming (P|Q)**(-1/2) 
 eigenvalues of original matrix 
 smallest =0.1564617127971E-06  largest = 39.27651669368    
  The symmetry information takes                      1  MB

          ------------------------
          nuclear repulsion energy  :   478.481687286    
          ------------------------


         -----------------
         -S,T+V- integrals
         -----------------

 1e-integrals will be neglected if expon. factor < 0.268863E-14
 
   Difference densities algorithm switched on.
   The maximal number of linear combinations of
   difference densities is                    20 .

 DIIS switched on: error vector is FDS-SDF
 Max. Iterations for DIIS is     :   5
 DIIS matrix (see manual) 
    Scaling factor of diagonals  :  1.200
    threshold for scaling factor :  0.000

 scf convergence criterion : increment of total energy < .1000000D-08
                  and increment of one-electron energy < .1000000D-05

  MOs are in ASCII format !


 automatic virtual orbital shift switched on 
      shift if e(lumo)-e(homo) < 0.10000000    


 reading orbital data $scfmo  from file mos
 orbital characterization : scfconv=9

 DSCF restart information will be dumped onto file mos


 Starting SCF iterations

 
 BLOCKING OF MOS FOR RI-K
 
 
 occupied MOs partitioned into blocks of maximum length 37
 this requires 347 MiB core memory.
 
            MULTIPLE PASS Statistics 
 ----------------------------------------------------
  pass       irrep     lambda      batch : MO  to  MO
 ----------------------------------------------------
   1       1  ->  1    1  -> 37             1  ->  37



 ENERGY & DENSITY CONVERGED !


 ITERATION  ENERGY          1e-ENERGY        2e-ENERGY     RMS[dD(SAO)]   TOL
   1  -404.39287682527    -1498.7714896     615.89692545    0.000D+00 0.268D-13
                           RI-K = -57.1283821853     Coul =  673.025307635    
                            current damping = 0.700
 
          max. resid. norm for Fia-block=  2.598D-01 for orbital      1a         
          max. resid. fock norm         =  8.032D-01 for orbital   1023a         

 End of SCF iterations

   convergence criteria satisfied after     1 iterations


                  ------------------------------------------ 
                 |  total energy      =   -404.39287682527  |
                  ------------------------------------------ 
                 :  kinetic energy    =    404.99016999089  :
                 :  potential energy  =   -809.38304681616  :
                 :  virial theorem    =      2.00147701208  :
                 :  wavefunction norm =      1.00000000000  :
                  .......................................... 


 orbitals $scfmo  will be written to file mos

    irrep                 33a         34a         35a         36a         37a   
 eigenvalues H         -0.44588    -0.44800    -0.42742    -0.41176    -0.42854
            eV         -12.1332    -12.1908    -11.6307    -11.2047    -11.6611
 occupation              2.0000      2.0000      2.0000      2.0000      2.0000 

    irrep                 38a         39a         40a         41a         42a   
 eigenvalues H          0.16153     0.12326     0.12598     0.13358     0.14266
            eV           4.3955      3.3542      3.4281      3.6349      3.8819
 
 
 
 
 ==============================================================================
                           electrostatic moments
 ==============================================================================

 reference point for electrostatic moments:    0.00000   0.00000   0.00000

 
              nuc           elec       ->  total
 ------------------------------------------------------------------------------
                          charge      
 ------------------------------------------------------------------------------
          74.000000     -74.000000       0.000000
 
 ------------------------------------------------------------------------------
                       dipole moment  
 ------------------------------------------------------------------------------
   x      -4.039499       4.276563       0.237064
   y      -1.814135       0.565295      -1.248839
   z     296.117760    -295.850673       0.267087
 
   | dipole moment | =     1.2989 a.u. =     3.3015 debye 
 
 ------------------------------------------------------------------------------
                     quadrupole moment
 ------------------------------------------------------------------------------
  xx     660.333094    -703.027349     -42.694255
  yy     147.767753    -194.636505     -46.868752
  zz    2053.271089   -2094.306009     -41.034920
  xy      -7.467367       6.695670      -0.771698
  xz       0.264046       1.210648       1.474694
  yz      -1.093514      -9.285936     -10.379450
 
     1/3  trace=     -43.532642
     anisotropy=      18.937170
 
 ==============================================================================
 


    ------------------------------------------------------------------------
         total  cpu-time :  1 minutes and 31 seconds
         total wall-time :  1 minutes and 34 seconds
    ------------------------------------------------------------------------

   ****  ridft : all done  ****


    2018-04-28 11:03:25.789 

