
   OpenMP run-time library returned nthreads = 28
 operating system is UNIX !

 dscf (c-19-413) : TURBOMOLE V7.3 ( 22142 ) 4 Jul 2018 at 18:12:42
 Copyright (C) 2018 TURBOMOLE GmbH, Karlsruhe


    2019-04-02 15:46:57.549 



                             d s c f - program

                   idea & directorship : reinhart ahlrichs
                   program development : marco haeser
                                         michael baer
                           dft version : oliver treutler


                          quantum chemistry group
                          universitaet  karlsruhe
                                  germany




                          References             
                                                 
          TURBOMOLE:                             
              R. Ahlrichs, M. Baer, M. Haeser, H. Horn, and
              C. Koelmel
              Electronic structure calculations on workstation
              computers: the program system TURBOMOLE
              Chem. Phys. Lett. 162: 165 (1989)
          Density Functional:                              
              O. Treutler and R. Ahlrichs                      
              Efficient Molecular Numerical Integration Schemes
              J. Chem. Phys. 102: 346 (1995)                   
          Parallel Version:                                
              Performance of parallel TURBOMOLE for Density    
              Functional Calculations                          
              M. v. Arnim and R. Ahlrichs                      
              J. Comp. Chem. 19: 1746 (1998)                   
                                         




              +--------------------------------------------------+
              | Atomic coordinate, charge and isotop information |
              +--------------------------------------------------+

                    atomic coordinates            atom    charge  isotop
         -1.07659254    1.53894091    0.19104705    n      7.000     0
          0.24732308    1.06091238   -1.11043058    h      1.000     0
         -2.76136637    0.99572467   -0.52993583    h      1.000     0
         -0.57733848    0.12417447    2.51105246    c      6.000     0
         -1.99772300    0.59388455    3.92299473    h      1.000     0
         -0.54428559   -1.93185282    2.29572672    h      1.000     0
          1.24808422    0.69638133    3.26968398    h      1.000     0
          4.26490694    5.08355208   -0.28218770    c      6.000     0
          4.50040171    5.86056349   -2.17010788    h      1.000     0
          5.22218810    6.29485245    1.07422847    h      1.000     0
          2.24968077    5.03341854    0.13056898    h      1.000     0
          5.23243101    2.40430275   -0.27785261    c      6.000     0
          4.36319500    0.76829801   -1.67469019    o      8.000     0
          7.09661366    1.88834639    1.40840805    n      7.000     0
          7.85205251    3.31496258    2.40118088    h      1.000     0
          8.20861419   -0.60531835    1.55486101    c      6.000     0
          6.71917625   -2.00622930    1.37907756    h      1.000     0
          9.57159765   -0.93034250    0.04583080    h      1.000     0
          9.14337387   -0.82427749    3.36888382    h      1.000     0
 
       center of nuclear mass  :    3.85629016    1.56268761    0.49838698
       center of nuclear charge:    3.81496367    1.55751136    0.56744146

              +--------------------------------------------------+
              |               basis set information              |
              +--------------------------------------------------+

              we will work with the 1s 3p 5d 7f 9g ... basis set
              ...i.e. with spherical basis functions...

   type   atoms  prim   cont   basis
   ---------------------------------------------------------------------------
    n        2     50     30   cc-pVTZ   [4s3p2d1f|18s5p2d1f]
    h       12     16     14   cc-pVTZ   [3s2p1d|5s2p1d]
    c        4     50     30   cc-pVTZ   [4s3p2d1f|18s5p2d1f]
    o        1     50     30   cc-pVTZ   [4s3p2d1f|18s5p2d1f]
   ---------------------------------------------------------------------------
   total:   19    542    378
   ---------------------------------------------------------------------------

   total number of primitive shells          :   86
   total number of contracted shells         :  142
   total number of cartesian basis functions :  425
   total number of SCF-basis functions       :  378


 integral neglect threshold       :  0.78E-13
 integral storage threshold THIZE :  0.10E-04
 integral storage threshold THIME :         5


 DENSITY CONVERGENCE CHECK SWITCHED ON !
 SCF CONVERGENCE IF RMS(delta[D]) <     0.1000000000E-06


 symmetry group of the molecule :   c1 

 the group has the following generators :
   c1(z)

    1 symmetry operations found

 there are 1 real representations :   a   

 maximum number of shells which are related by symmetry :  1


    mo occupation :
   irrep   mo's   occupied
    a      378       29
 
 number of basis functions   :                    378
 number of occupied orbitals :                     29
 

 automatic virtual orbital shift switched on 
      shift if e(lumo)-e(homo) < 0.10000000    


          ------------------------
          nuclear repulsion energy  :   320.509769244    
          ------------------------


         -----------------
         -S,T+V- integrals
         -----------------

 1e-integrals will be neglected if expon. factor < 0.786344E-14
 
   Difference densities algorithm switched on.
   The maximal number of linear combinations of
   difference densities is                    20 .

 DIIS switched on: error vector is FDS-SDF
 Max. Iterations for DIIS is     :   5
 DIIS matrix (see manual) 
    Scaling factor of diagonals  :  1.200
    threshold for scaling factor :  0.000

 scf convergence criterion : increment of total energy < .1000000D-08
                  and increment of one-electron energy < .1000000D-05

  MOs are in ASCII format !


 reading orbital data $scfmo  from file mos
 orbital characterization : scfconv=9

 DSCF restart information will be dumped onto file mos

 
                                              current damping :  0.700
 ITERATION  ENERGY          1e-ENERGY        2e-ENERGY     RMS[dD(SAO)]   TOL
   1  -342.28071895852    -1101.9139659     439.12347770    0.000D+00 0.784D-13
          max. resid. norm for Fia-block=  1.033D-01 for orbital      1a         
          max. resid. fock norm         =  1.728D-01 for orbital    374a         
          Delta Eig. =    28.7432431507 eV 
 
                                              current damping :  0.650
 ITERATION  ENERGY          1e-ENERGY        2e-ENERGY     RMS[dD(SAO)]   TOL
   2  -342.34057135102    -1101.1257007     438.27536009    0.925D-03 0.499D-13
          Norm of current diis error: 0.50004    
          max. resid. norm for Fia-block=  4.668D-02 for orbital      1a         
          max. resid. fock norm         =  7.260D-02 for orbital    373a         
          Delta Eig. =    11.8308634202 eV 
 
                                              current damping :  0.600
 ITERATION  ENERGY          1e-ENERGY        2e-ENERGY     RMS[dD(SAO)]   TOL
   3  -342.35276675871    -1101.2733086     438.41077258    0.459D-03 0.381D-13
          Norm of current diis error: 0.22521    
          max. resid. norm for Fia-block=  2.269D-02 for orbital      1a         
          max. resid. fock norm         =  2.678D-02 for orbital    374a         
          Delta Eig. =     5.5373561134 eV 
 
                                              current damping :  0.650
 ITERATION  ENERGY          1e-ENERGY        2e-ENERGY     RMS[dD(SAO)]   TOL
   4  -342.35554736625    -1101.2559219     438.39060526    0.230D-03 0.336D-13
          Norm of current diis error: 0.93851E-01
          max. resid. norm for Fia-block=  7.267D-03 for orbital      1a         
          max. resid. fock norm         =  1.168D-02 for orbital    373a         
          Delta Eig. =     1.6357504120 eV 
 
                                              current damping :  0.500
 ITERATION  ENERGY          1e-ENERGY        2e-ENERGY     RMS[dD(SAO)]   TOL
   5  -342.35603986229    -1101.2341270     438.36831787    0.903D-04 0.312D-13
          Norm of current diis error: 0.40672E-01
          max. resid. norm for Fia-block=  3.133D-03 for orbital     26a         
          max. resid. fock norm         =  3.920D-03 for orbital     33a         
 mo-orthogonalization: Cholesky decomposition
          Delta Eig. =     0.8138521297 eV 
 
                                              current damping :  0.350
 ITERATION  ENERGY          1e-ENERGY        2e-ENERGY     RMS[dD(SAO)]   TOL
   6  -342.35614677865    -1101.2316375     438.36572147    0.463D-04 0.294D-13
          Norm of current diis error: 0.16086E-01
          max. resid. norm for Fia-block=  1.330D-03 for orbital     26a         
          max. resid. fock norm         =  1.646D-03 for orbital     33a         
          Delta Eig. =     0.2791480283 eV 
 
                                              current damping :  0.200
 ITERATION  ENERGY          1e-ENERGY        2e-ENERGY     RMS[dD(SAO)]   TOL
   7  -342.35616684277    -1101.2295081     438.36357204    0.207D-04 0.276D-13
          Norm of current diis error: 0.57154E-02
          max. resid. norm for Fia-block=  5.260D-04 for orbital     26a         
          max. resid. fock norm         =  6.327D-04 for orbital     33a         
          Delta Eig. =     0.0865194367 eV 
 
                                              current damping :  0.050
 ITERATION  ENERGY          1e-ENERGY        2e-ENERGY     RMS[dD(SAO)]   TOL
   8  -342.35617007152    -1101.2291075     438.36316822    0.859D-05 0.259D-13
          Norm of current diis error: 0.18643E-02
          max. resid. norm for Fia-block=  1.928D-04 for orbital     18a         
          max. resid. fock norm         =  2.329D-04 for orbital     33a         
          Delta Eig. =     0.0139622545 eV 
 
                                              current damping :  0.050
 ITERATION  ENERGY          1e-ENERGY        2e-ENERGY     RMS[dD(SAO)]   TOL
   9  -342.35617051943    -1101.2288234     438.36288361    0.324D-05 0.244D-13
          Norm of current diis error: 0.57817E-03
          max. resid. norm for Fia-block=  6.715D-05 for orbital     26a         
          max. resid. fock norm         =  7.378D-05 for orbital     33a         
          Delta Eig. =     0.0042507046 eV 
 
                                              current damping :  0.100
 ITERATION  ENERGY          1e-ENERGY        2e-ENERGY     RMS[dD(SAO)]   TOL
  10  -342.35617056102    -1101.2288819     438.36294208    0.968D-06 0.234D-13
          Norm of current diis error: 0.22897E-03
          max. resid. norm for Fia-block=  3.124D-05 for orbital     28a         
          max. resid. fock norm         =  4.157D-05 for orbital    373a         
 mo-orthogonalization: Cholesky decomposition
          Delta Eig. =     0.0024517337 eV 
 
                                              current damping :  0.150
 ITERATION  ENERGY          1e-ENERGY        2e-ENERGY     RMS[dD(SAO)]   TOL
  11  -342.35617056574    -1101.2288275     438.36288774    0.305D-06 0.228D-13
          Norm of current diis error: 0.10851E-03
          max. resid. norm for Fia-block=  1.024D-05 for orbital     27a         
          max. resid. fock norm         =  1.567D-05 for orbital    373a         
          Delta Eig. =     0.0008134763 eV 
 
                                              current damping :  0.200
 ITERATION  ENERGY          1e-ENERGY        2e-ENERGY     RMS[dD(SAO)]   TOL
  12  -342.35617056668    -1101.2288347     438.36289492    0.130D-06 0.223D-13
          Norm of current diis error: 0.28193E-04
          max. resid. norm for Fia-block=  4.537D-06 for orbital     28a         
          max. resid. fock norm         =  4.688D-06 for orbital     28a         
          Delta Eig. =     0.0000625755 eV 

 ENERGY & DENSITY CONVERGED !

 
                                              current damping :  0.050
 ITERATION  ENERGY          1e-ENERGY        2e-ENERGY     RMS[dD(SAO)]   TOL
  13  -342.35617056680    -1101.2288358     438.36289595    0.547D-07 0.224D-13
          max. resid. norm for Fia-block=  1.374D-06 for orbital     27a         
          max. resid. fock norm         =  1.476D-06 for orbital     27a         

 convergence criteria satisfied after    13 iterations


                  ------------------------------------------ 
                 |  total energy      =   -342.35617056680  |
                  ------------------------------------------ 
                 :  kinetic energy    =    341.94402227407  :
                 :  potential energy  =   -684.30019284086  :
                 :  virial theorem    =      1.99879614177  :
                 :  wavefunction norm =      1.00000000000  :
                  .......................................... 


 orbitals $scfmo  will be written to file mos

    irrep                 25a         26a         27a         28a         29a   
 eigenvalues H         -0.50269    -0.50010    -0.42178    -0.39393    -0.37703
            eV         -13.6790    -13.6085    -11.4774    -10.7194    -10.2596
 occupation              2.0000      2.0000      2.0000      2.0000      2.0000 

    irrep                 30a         31a         32a         33a         34a   
 eigenvalues H          0.12481     0.15498     0.16039     0.18114     0.18629
            eV           3.3963      4.2172      4.3644      4.9291      5.0694
 
 
 
 
 ==============================================================================
                           electrostatic moments
 ==============================================================================

 reference point for electrostatic moments:    0.00000   0.00000   0.00000

 
              nuc           elec       ->  total
 ------------------------------------------------------------------------------
                          charge      
 ------------------------------------------------------------------------------
          58.000000     -58.000000      -0.000000
 
 ------------------------------------------------------------------------------
                       dipole moment  
 ------------------------------------------------------------------------------
   x     221.267893    -220.391047       0.876846
   y      90.335659     -89.962017       0.373642
   z      32.911605     -32.049681       0.861924
 
   | dipole moment | =     1.2851 a.u. =     3.2663 debye 
 
 ------------------------------------------------------------------------------
                     quadrupole moment
 ------------------------------------------------------------------------------
  xx    1540.777121   -1563.000019     -22.222898
  yy     360.843893    -391.638555     -30.794662
  zz     147.620695    -181.281152     -33.660457
  xy     349.276417    -343.424452       5.851966
  xz     113.688076    -107.263708       6.424369
  yz     -10.469077      10.962788       0.493711
 
     1/3  trace=     -28.892672
     anisotropy=      18.263027
 
 ==============================================================================
 


    ------------------------------------------------------------------------
         total  cpu-time : 11 minutes and 31 seconds
         total wall-time :  38.81 seconds
    ------------------------------------------------------------------------

   ****  dscf : all done  ****


    2019-04-02 15:47:36.322 

