 operating system is UNIX !

 ridft (c-18-414.gp.local) : TURBOMOLE V7.2 ( 21454 ) 4 Oct 2017 at 12:48:15
 Copyright (C) 2017 TURBOMOLE GmbH, Karlsruhe


    2018-05-19 18:10:15.707 



                                  r i d f t

                        DFT program with RI approximation 
                                for coulomb part 




                                                 
                                 References:     
                                                 
          TURBOMOLE:                             
              R. Ahlrichs, M. Baer, M. Haeser, H. Horn, and
              C. Koelmel
              Electronic structure calculations on workstation
              computers: the program system TURBOMOLE
              Chem. Phys. Lett. 162: 165 (1989)
          Density Functional:                              
              O. Treutler and R. Ahlrichs                      
              Efficient Molecular Numerical Integration Schemes
              J. Chem. Phys. 102: 346 (1995)                   
          Parallel Version:                                
              Performance of parallel TURBOMOLE for Density    
              Functional Calculations                          
              M. v. Arnim and R. Ahlrichs                      
              J. Comp. Chem. 19: 1746 (1998)                   
          RI-J Method:                                     
              Auxiliary Basis Sets to approximate Coulomb      
              Potentials                                       
              Chem. Phys. Lett. 240: 283 (1995)                
              K. Eichkorn, O. Treutler, H. Oehm, M. Haeser     
              and R. Ahlrichs                                  
              Chem. Phys. Lett. 242: 652 (1995)                
                                                           
              Auxiliary Basis Sets for Main Row Atoms and their
              Use to approximate Coulomb Potentials            
              K. Eichkorn, F. Weigend, O. Treutler and         
              R. Ahlrichs                                      
              Theo. Chem. Acc. 97: 119 (1997)                   
                                                           
              Accurate Coulomb-fitting basis sets for H to Rn 
              F. Weigend                                        
              Phys. Chem. Chem. Phys. 8: 1057 (2006)            
                                                           
          Multipole accelerated RI-J (MARI-J):             
              Fast evaluation of the Coulomb potential for     
              electron densities using multipole accelerated   
              resolution of identity approximation             
              M. Sierka, A. Hogekamp and R. Ahlrichs           
              J. Chem. Phys. 118: 9136 (2003)                  
          RI-JK Method:                                     
              A fully direct RI-HF algorithm: Implementation,
              optimised auxiliary basis sets, demonstration of
              accuracy and efficiency                         
              F. Weigend                                      
              Phys. Chem. Chem. Phys. 4: 4285 (2002)           
          Two-component HF and DFT with spin-orbit coupling:  
              Self-consistent treatment of spin-orbit         
              interactions with efficient Hartree-Fock and    
              density functional methods                      
              M. K. Armbruster, F. Weigend, C. van Wüllen and 
              W. Klopper                                      
              Phys. Chem. Chem. Phys. 10: 1748 (2008)         
          Relativistic all-electron 2c calculations           
              An efficient implementation of two-component    
              relativistic exact-decoupling methods for large 
              molecules                                       
              D. Peng, N. Middendorf, F. Weigend, M. Reiher   
              J. Chem. Phys. 138, 184105 (2013)               
                                         




              +--------------------------------------------------+
              |      general information about current run       |
              +--------------------------------------------------+

 
 A HF calculation using the RI-JK approximation will be carried out.
 Allocatable memory for RI due to $ricore (MB):                   500


              +--------------------------------------------------+
              | Atomic coordinate, charge and isotop information |
              +--------------------------------------------------+

                    atomic coordinates            atom    charge  isotop
          5.35633348   -1.21212963    0.88049149    c      6.000     0
          4.87600467    0.59464177   -0.44012046    o      8.000     0
          3.56505335   -2.67542059    1.95326370    o      8.000     0
          1.93800031   -1.98132610    1.44724958    h      1.000     0
          7.95590718   -2.12193796    1.54218081    c      6.000     0
          9.35125414   -0.91714289    0.65240265    h      1.000     0
          8.19441049   -2.09953577    3.58315179    h      1.000     0
          8.18697749   -4.06428265    0.91245919    h      1.000     0
 
       center of nuclear mass  :    5.37589243   -1.37331590    0.99838995
       center of nuclear charge:    5.47101720   -1.42852886    1.03863884

              +--------------------------------------------------+
              |               basis set information              |
              +--------------------------------------------------+

              we will work with the 1s 3p 5d 7f 9g ... basis set
              ...i.e. with spherical basis functions...

   type   atoms  prim   cont   basis
   ---------------------------------------------------------------------------
    c        2     77     57   def2-QZVP   [7s4p3d2f1g|15s8p3d2f1g]
    o        2     77     57   def2-QZVP   [7s4p3d2f1g|15s8p3d2f1g]
    h        4     33     30   def2-QZVP   [4s3p2d1f|7s3p2d1f]
   ---------------------------------------------------------------------------
   total:    8    440    348
   ---------------------------------------------------------------------------

   total number of primitive shells          :   71
   total number of contracted shells         :  108
   total number of cartesian basis functions :  428
   total number of SCF-basis functions       :  348


 integral neglect threshold       :  0.78E-13
 integral storage threshold THIZE :  0.10E-04
 integral storage threshold THIME :         5

 RI-JK AUXILIARY BASIS SET information:

              we will work with the 1s 3p 5d 7f 9g ... basis set
              ...i.e. with spherical basis functions...

   type   atoms  prim   cont   basis
   ---------------------------------------------------------------------------
    c        2     97     75   def2-QZVP   [10s8p5d1f1g|14s10p6d2f1g]
    o        2     97     77   def2-QZVP   [10s8p4d2f1g|14s10p6d2f1g]
    h        4     20     18   def2-QZVP   [2s2p2d|4s2p2d]
   ---------------------------------------------------------------------------
   total:    8    468    376
   ---------------------------------------------------------------------------

   total number of primitive shells          :   74
   total number of contracted shells         :  124
   total number of cartesian basis functions :  444
   total number of SCF-basis functions       :  376


 symmetry group of the molecule :   c1 

 the group has the following generators :
   c1(z)

    1 symmetry operations found

 there are 1 real representations :   a   

 maximum number of shells which are related by symmetry :  1


    mo occupation :
   irrep   mo's   occupied
    a      348       16
 
 number of basis functions   :                    348
 number of occupied orbitals :                     16
 

 biggest AO integral is expected to be     6.990327543
  
           ------------------------
               RI-JK - INFORMATION
           ------------------------
 Contributions to RI integral batches: 
  neglected integral batches:                   441
  direct contribution:                         3914
  memory contribution:                  1531
 Memory core needed for (P|Q) and Cholesky      2 MByte
 Memory core minimum needed except of (P|Q)     1 MByte
 Total minimum memory core needed (sum)         2 MByte
  
 ****************************************
 Memory allocated for RI-J    25 MByte
 ****************************************
                                            
 total memory allocated for calculation of  (Q|P)**(-1/2) :    2 MiB

  forming (P|Q)**(-1/2) 
 eigenvalues of original matrix 
 smallest =0.1925016175353E-06  largest = 23.86761667975    
  The symmetry information takes                      1  MB

          ------------------------
          nuclear repulsion energy  :   121.227953366    
          ------------------------


         -----------------
         -S,T+V- integrals
         -----------------

 1e-integrals will be neglected if expon. factor < 0.780832E-14
 
   Difference densities algorithm switched on.
   The maximal number of linear combinations of
   difference densities is                    20 .

 DIIS switched on: error vector is FDS-SDF
 Max. Iterations for DIIS is     :   5
 DIIS matrix (see manual) 
    Scaling factor of diagonals  :  1.200
    threshold for scaling factor :  0.000

 scf convergence criterion : increment of total energy < .1000000D-08
                  and increment of one-electron energy < .1000000D-05

  MOs are in ASCII format !


 automatic virtual orbital shift switched on 
      shift if e(lumo)-e(homo) < 0.10000000    


 reading orbital data $scfmo  from file mos
 orbital characterization : scfconv=9

 DSCF restart information will be dumped onto file mos


 Starting SCF iterations

 
 BLOCKING OF MOS FOR RI-K
 
 
 occupied MOs partitioned into blocks of maximum length 16
 this requires 20 MiB core memory.
 
            MULTIPLE PASS Statistics 
 ----------------------------------------------------
  pass       irrep     lambda      batch : MO  to  MO
 ----------------------------------------------------
   1       1  ->  1    1  -> 16             1  ->  16



 ITERATION  ENERGY          1e-ENERGY        2e-ENERGY     NORM[dD(SAO)]  TOL
   1  -227.88337270682    -552.35510910     203.24378303    0.000D+00 0.779D-13
                           RI-K = -28.2395524238     Coul =  231.483335451    
                            current damping = 0.700
 
          max. resid. norm for Fia-block=  1.173D-01 for orbital      1a         
          max. resid. fock norm         =  6.835D-01 for orbital    344a         

 End of SCF iterations

   convergence criteria cannot be satisfied within     1 iterations !


                  ------------------------------------------ 
                 |  total energy      =   -227.88337270682  |
                  ------------------------------------------ 
                 :  kinetic energy    =    228.39156631219  :
                 :  potential energy  =   -456.27493901901  :
                 :  virial theorem    =      2.00223006005  :
                 :  wavefunction norm =      1.00000000000  :
                  .......................................... 


 ATTENTION : $energy will not be updated since 
 this calculation did not converge (sob) 

 A POSSIBLE REASON MAY BE THAT ...
 - THE GEOMETRY IS FAR FROM BEING REASONABLE

    irrep                 12a         13a         14a         15a         16a   
 eigenvalues H         -0.49118    -0.48246    -0.47276    -0.40269    -0.36507
            eV         -13.3659    -13.1284    -12.8646    -10.9578     -9.9340
 occupation              2.0000      2.0000      2.0000      2.0000      2.0000 

    irrep                 17a         18a         19a         20a         21a   
 eigenvalues H          0.06281     0.08569     0.08811     0.12991     0.13535
            eV           1.7090      2.3317      2.3976      3.5351      3.6830
 
 
 
 
 ==============================================================================
                           electrostatic moments
 ==============================================================================

 reference point for electrostatic moments:    0.00000   0.00000   0.00000

 
              nuc           elec       ->  total
 ------------------------------------------------------------------------------
                          charge      
 ------------------------------------------------------------------------------
          32.000000     -32.000000      -0.000000
 
 ------------------------------------------------------------------------------
                       dipole moment  
 ------------------------------------------------------------------------------
   x     175.072551    -174.923605       0.148945
   y     -45.712923      45.094850      -0.618074
   z      33.236443     -32.784755       0.451688
 
   | dipole moment | =     0.7799 a.u. =     1.9823 debye 
 
 ------------------------------------------------------------------------------
                     quadrupole moment
 ------------------------------------------------------------------------------
  xx    1069.177583   -1081.605165     -12.427583
  yy     121.616315    -140.275853     -18.659538
  zz      67.184802     -85.220353     -18.035552
  xy    -256.250296     252.562395      -3.687901
  xz     186.191252    -183.499818       2.691434
  yz     -84.635486      85.630541       0.995055
 
     1/3  trace=     -16.374224
     anisotropy=      10.041995
 
 ==============================================================================
 

 ATTENTION: ridft did not converge! 



    ------------------------------------------------------------------------
         total  cpu-time :   2.55 seconds
         total wall-time :   2.59 seconds
    ------------------------------------------------------------------------

   ****  ridft : all done  ****


    2018-05-19 18:10:18.282 

