STARTING ridft ON 32 PROCESSORS!
RUNNING PROGRAM /sopt/TURBOMOLE/7.3-official/bin/em64t-unknown-linux-gnu_smp/ridft_mpi.
           SMPCPUS    set: Shared-memory Parallelization with  32 CPUs.

           SMP Parallelization Reference:
           C. van Wullen, J. Comput. Chem. 32 (2011) 1195--1201
 operating system is UNIX !

 ridft (c-16-18) : TURBOMOLE V7.3 ( 22118 ) 1 Jul 2018 at 20:38:15
 Copyright (C) 2018 TURBOMOLE GmbH, Karlsruhe


    2019-03-12 22:48:33.927 



                                  r i d f t

                        DFT program with RI approximation 
                                for coulomb part 




                                                 
                                 References:     
                                                 
          TURBOMOLE:                             
              R. Ahlrichs, M. Baer, M. Haeser, H. Horn, and
              C. Koelmel
              Electronic structure calculations on workstation
              computers: the program system TURBOMOLE
              Chem. Phys. Lett. 162: 165 (1989)
          Density Functional:                              
              O. Treutler and R. Ahlrichs                      
              Efficient Molecular Numerical Integration Schemes
              J. Chem. Phys. 102: 346 (1995)                   
          Parallel Version:                                
              Performance of parallel TURBOMOLE for Density    
              Functional Calculations                          
              M. v. Arnim and R. Ahlrichs                      
              J. Comp. Chem. 19: 1746 (1998)                   
          RI-J Method:                                     
              Auxiliary Basis Sets to approximate Coulomb      
              Potentials                                       
              Chem. Phys. Lett. 240: 283 (1995)                
              K. Eichkorn, O. Treutler, H. Oehm, M. Haeser     
              and R. Ahlrichs                                  
              Chem. Phys. Lett. 242: 652 (1995)                
                                                           
              Auxiliary Basis Sets for Main Row Atoms and their
              Use to approximate Coulomb Potentials            
              K. Eichkorn, F. Weigend, O. Treutler and         
              R. Ahlrichs                                      
              Theo. Chem. Acc. 97: 119 (1997)                   
                                                           
              Accurate Coulomb-fitting basis sets for H to Rn 
              F. Weigend                                        
              Phys. Chem. Chem. Phys. 8: 1057 (2006)            
                                                           
          Multipole accelerated RI-J (MARI-J):             
              Fast evaluation of the Coulomb potential for     
              electron densities using multipole accelerated   
              resolution of identity approximation             
              M. Sierka, A. Hogekamp and R. Ahlrichs           
              J. Chem. Phys. 118: 9136 (2003)                  
          RI-JK Method:                                     
              A fully direct RI-HF algorithm: Implementation,
              optimised auxiliary basis sets, demonstration of
              accuracy and efficiency                         
              F. Weigend                                      
              Phys. Chem. Chem. Phys. 4: 4285 (2002)           
          Two-component HF and DFT with spin-orbit coupling:  
              Self-consistent treatment of spin-orbit         
              interactions with efficient Hartree-Fock and    
              density functional methods                      
              M. K. Armbruster, F. Weigend, C. van Wüllen and 
              W. Klopper                                      
              Phys. Chem. Chem. Phys. 10: 1748 (2008)         
          Two-component difference density and DIIS algorithm 
              Efficient two-component self-consistent field   
              procedures and gradients: implementation in     
              TURBOMOLE and application to Au20-              
              A. Baldes, F. Weigend                           
              Mol. Phys. 111: 2617 (2013)                     
          Relativistic all-electron 2c calculations           
              An efficient implementation of two-component    
              relativistic exact-decoupling methods for large 
              molecules                                       
              D. Peng, N. Middendorf, F. Weigend, M. Reiher   
              J. Chem. Phys. 138: 184105 (2013)               
          Finite nucleus model and SNSO approximation         
              Efficient implementation of one- and two-       
              component analytical energy gradients in exact  
              two-component theory                            
              Y. J. Franzke, N. Middendorf, F. Weigend        
              J. Chem. Phys. 148: 104110 (2018)               
                                         




              +--------------------------------------------------+
              |      general information about current run       |
              +--------------------------------------------------+

 
 PBE functional
 exchange:    LDA + PBE
 correlation: LDA (PW) + PBE
 A DFT calculation using the RI-J approximation will be carried out.
 Allocatable memory for RI due to $ricore (MB):                  8000


              +--------------------------------------------------+
              | Atomic coordinate, charge and isotop information |
              +--------------------------------------------------+

                    atomic coordinates            atom    charge  isotop
         -0.15690867    0.00135038    1.99403899    n      7.000     0
         -0.38333806   -2.15754918    0.68962473    c      6.000     0
         -0.18611086   -3.88357231    1.77149093    h      1.000     0
         -0.84429456   -2.25210695   -1.89825307    c      6.000     0
         -1.00845085   -4.05507848   -2.84247229    h      1.000     0
         -1.08599176    0.00649978   -3.22067816    c      6.000     0
         -1.44315344    0.00846617   -5.23213520    h      1.000     0
         -0.85690908    2.26246052   -1.89145802    c      6.000     0
         -1.03109278    4.06720586   -2.83042251    h      1.000     0
         -0.39554067    2.16280590    0.69611331    c      6.000     0
         -0.20818559    3.88659456    1.78309637    h      1.000     0
          0.89164086   -0.01144831   10.47233114    c      6.000     0
          1.10973424   -0.01036325   12.46601833    h      1.000     0
          0.64206518   -0.01248716    8.19285409    c      6.000     0
          0.41879760   -0.01199125    6.18123028    h      1.000     0
 
       center of nuclear mass  :   -0.27559331   -0.00001654    1.86368224
       center of nuclear charge:   -0.27930412   -0.00000426    1.84818362

              +--------------------------------------------------+
              |               basis set information              |
              +--------------------------------------------------+

              we will work with the 1s 3p 5d 7f 9g ... basis set
              ...i.e. with spherical basis functions...

   type   atoms  prim   cont   basis
   ---------------------------------------------------------------------------
    n        1     68     48   def2-QZVP   [7s4p3d2f|15s8p3d2f]
    c        7     68     48   def2-QZVP   [7s4p3d2f|15s8p3d2f]
    h        7     26     23   def2-QZVP   [4s3p2d|7s3p2d]
   ---------------------------------------------------------------------------
   total:   15    726    545
   ---------------------------------------------------------------------------

   total number of primitive shells          :   68
   total number of contracted shells         :  191
   total number of cartesian basis functions :  631
   total number of SCF-basis functions       :  545


 integral neglect threshold       :  0.53E-11
 integral storage threshold THIZE :  0.10E-04
 integral storage threshold THIME :         5

 RI-J AUXILIARY BASIS SET information:

              we will work with the 1s 3p 5d 7f 9g ... basis set
              ...i.e. with spherical basis functions...

   type   atoms  prim   cont   basis
   ---------------------------------------------------------------------------
    n        1     70     49   def2-QZVP   [6s4p3d1f1g|12s5p4d2f1g]
    c        7     70     49   def2-QZVP   [6s4p3d1f1g|12s5p4d2f1g]
    h        7     16     11   def2-QZVP   [3s1p1d|5s2p1d]
   ---------------------------------------------------------------------------
   total:   15    672    469
   ---------------------------------------------------------------------------

   total number of primitive shells          :   56
   total number of contracted shells         :  155
   total number of cartesian basis functions :  572
   total number of SCF-basis functions       :  469


 symmetry group of the molecule :   c1 

 the group has the following generators :
   c1(z)

    1 symmetry operations found

 there are 1 real representations :   a   

 maximum number of shells which are related by symmetry :  1


    mo occupation :
   irrep   mo's   occupied
    a      545       28
 
 number of basis functions   :                    545
 number of occupied orbitals :                     28
 
  
           ------------------
           density functional
           ------------------
 PBE functional
 exchange:    LDA + PBE
 correlation: LDA (PW) + PBE

 iterations will be done with small grid
  
 spherical integration : Lebedev's spherical grid
 spherical gridsize    :                     4
    i.e. gridpoints    :                   434
 value for diffuse not defined
 radial integration    : Chebyshev 2nd kind (scaling 3)
 radial gridsize       :                     6
 integration cells     :                    15
 partition function    : becke
 partition sharpness   :                     3
  

 biggest AO integral is expected to be     6.129561670
  
           ------------------------
               RI-J - INFORMATION
           ------------------------
 Contributions to RI integral batches: 
  neglected integral batches:                  4671
  direct contribution:                            0
  memory contribution:                 13665
 Memory core needed for (P|Q) and Cholesky      2 MByte
 Memory core minimum needed except of (P|Q)     2 MByte
 Total minimum memory core needed (sum)         3 MByte
  
 ****************************************
 Memory allocated for RI-J   663 MByte
 ****************************************
                                            

          ------------------------
          nuclear repulsion energy  :   292.145254074    
          ------------------------

  _________________________________
 |                                 |
 |         DFTD3 V3.1 Rev 0        |
 | S.Grimme, University Bonn       |
 |            June  2014           |
 |   see standalone version        |
 |       dftd3 -h for options      |
 |_________________________________|
 
 Please cite DFT-D3 work done with this code as:
 S. Grimme, J. Antony, S. Ehrlich and H. Krieg,
 J. Chem. Phys, 132 (2010), 154104.
 If used with BJ-damping cite also
 S. Grimme, S. Ehrlich and L. Goerigk,
 J. Comput. Chem. 32 (2011), 1456-1465
 For DFT-D2 the reference is
 S. Grimme, J. Comput. Chem., 27 (2006), 1787-1799
 
C6 coefficients used:
                     2  C6 for element                      1
Z=  1 CN= 0.912     C6(AA)=    3.03
Z=  1 CN= 0.000     C6(AA)=    7.59
                     5  C6 for element                      6
Z=  6 CN= 0.000     C6(AA)=   49.11
Z=  6 CN= 0.987     C6(AA)=   43.25
Z=  6 CN= 1.998     C6(AA)=   29.36
Z=  6 CN= 2.999     C6(AA)=   25.78
Z=  6 CN= 3.984     C6(AA)=   18.21
                     4  C6 for element                      7
Z=  7 CN= 0.000     C6(AA)=   25.27
Z=  7 CN= 0.994     C6(AA)=   22.12
Z=  7 CN= 2.014     C6(AA)=   19.68
Z=  7 CN= 2.990     C6(AA)=   15.58

#           XYZ [au]              R0(AA) [Ang.]  CN          C6(AA)     C8(AA)   C10(AA) [au]
  1  -0.15691   0.00135   1.99404   n   0.533  2.109        19.5       430.2     11626.4
  2  -0.38334  -2.15755   0.68962   c   0.610  3.198        25.0       724.2     25659.0
  3  -0.18611  -3.88357   1.77149   h   0.395  1.003         3.1        37.3       552.9
  4  -0.84429  -2.25211  -1.89825   c   0.610  3.129        25.3       733.1     25971.8
  5  -1.00845  -4.05508  -2.84247   h   0.395  1.003         3.1        37.3       553.0
  6  -1.08599   0.00650  -3.22068   c   0.610  3.143        25.3       731.6     25919.9
  7  -1.44315   0.00847  -5.23214   h   0.395  1.003         3.1        37.3       553.0
  8  -0.85691   2.26246  -1.89146   c   0.610  3.129        25.3       733.1     25971.7
  9  -1.03109   4.06721  -2.83042   h   0.395  1.003         3.1        37.3       553.0
 10  -0.39554   2.16281   0.69611   c   0.610  3.198        25.0       724.2     25659.0
 11  -0.20819   3.88659   1.78310   h   0.395  1.003         3.1        37.3       552.9
 12   0.89164  -0.01145  10.47233   c   0.610  1.999        29.5       853.0     30220.7
 13   1.10973  -0.01036  12.46602   h   0.395  0.999         3.1        37.4       553.4
 14   0.64207  -0.01249   8.19285   c   0.610  2.000        29.5       852.9     30218.5
 15   0.41880  -0.01199   6.18123   h   0.395  1.000         3.1        37.4       553.2

molecular C6(AA) [au] =      2772.46

           DFT-D V3(BJ)
 DF pbe                                               
 parameters
 s6       :    1.0000
 s8       :    0.7875
 a1       :    0.4289
 a2       :    4.4407
 k1-k3    :   16.0000    1.3333   -4.0000
 
 Edisp /kcal,au:    -7.9392 -0.01265187

 E6    /kcal :    -5.5812
 E8    /kcal :    -2.3580
 % E8        : 29.70
 nuclear repulsion energy                  =     292.145254074
 empirical dispersive energy correction    =      -0.012651871
 nuclear repulsion + dispersion correction =     292.132602202


         -----------------
         -S,T+V- integrals
         -----------------

 1e-integrals will be neglected if expon. factor < 0.529629E-12
 Difference densities >>NOT<< switched on in parallel ridft!

 DIIS switched on: error vector is FDS-SDF
 Max. Iterations for DIIS is     :   4
 DIIS matrix (see manual) 
    Scaling factor of diagonals  :  1.200
    threshold for scaling factor :  0.000

 scf convergence criterion : increment of total energy < .1000000D-06
                  and increment of one-electron energy < .1000000D-03

  MOs are in ASCII format !


 automatic virtual orbital shift switched on 
      shift if e(lumo)-e(homo) < 0.10000000    


 reading orbital data $scfmo  from file mos
 orbital characterization : expanded
 mo provided and orthogonalized by Cholesky decomposition

 DSCF restart information will be dumped onto file mos


 Starting SCF iterations

          Overall gridpoints after grid construction =         41249

 ITERATION  ENERGY          1e-ENERGY        2e-ENERGY     NORM[dD(SAO)]  TOL
   1  -324.05346173685    -1004.2748673     388.08880335    0.000D+00 0.528D-11
                            Exc = -45.7523301035     Coul =  433.841133452    
                              N = 56.000218540    
                            current damping = 0.700
 
          max. resid. norm for Fia-block=  5.837D-01 for orbital      9a         
          max. resid. fock norm         =  5.698D+01 for orbital    475a         

 ITERATION  ENERGY          1e-ENERGY        2e-ENERGY     NORM[dD(SAO)]  TOL
   2  -325.10304546837    -1012.5834655     395.34781784    0.000D+00 0.528D-11
                            Exc = -46.5149702738     Coul =  441.862788114    
                              N = 56.000187459    
                            current damping = 0.650
 
          Norm of current diis error:  3.2720    
          max. resid. norm for Fia-block=  1.371D-01 for orbital      1a         
          max. resid. fock norm         =  1.978D-01 for orbital    526a         

 ITERATION  ENERGY          1e-ENERGY        2e-ENERGY     NORM[dD(SAO)]  TOL
   3  -325.28112427417    -1014.6956155     397.28188902    0.000D+00 0.528D-11
                            Exc = -46.7771976945     Coul =  444.059086714    
                              N = 56.000162017    
                            current damping = 0.550
 
          Norm of current diis error:  1.5992    
          max. resid. norm for Fia-block=  5.907D-02 for orbital     28a         
          max. resid. fock norm         =  6.116D-02 for orbital      9a         

 ITERATION  ENERGY          1e-ENERGY        2e-ENERGY     NORM[dD(SAO)]  TOL
   4  -325.33840414950    -1015.5087578     398.03775140    0.000D+00 0.528D-11
                            Exc = -46.8698120136     Coul =  444.907563413    
                              N = 56.000156546    
                            current damping = 0.450
 
          Norm of current diis error: 0.65209    
          max. resid. norm for Fia-block=  2.959D-02 for orbital      9a         
          max. resid. fock norm         =  5.550D-02 for orbital    524a         

 ITERATION  ENERGY          1e-ENERGY        2e-ENERGY     NORM[dD(SAO)]  TOL
   5  -325.34550173301    -1016.5105387     399.03243477    0.000D+00 0.528D-11
                            Exc = -46.9702347862     Coul =  446.002669561    
                              N = 56.000142715    
                            current damping = 0.350
 
          Norm of current diis error: 0.42356    
          max. resid. norm for Fia-block=  1.489D-02 for orbital     28a         
          max. resid. fock norm         =  1.658D-02 for orbital     28a         
          mo-orthogonalization: Cholesky decomposition

 ITERATION  ENERGY          1e-ENERGY        2e-ENERGY     NORM[dD(SAO)]  TOL
   6  -325.34979326495    -1016.2098092     398.72741374    0.000D+00 0.528D-11
                            Exc = -46.9587074897     Coul =  445.686121226    
                              N = 56.000144732    
                            current damping = 0.400
 
          Norm of current diis error: 0.16882    
          max. resid. norm for Fia-block=  5.300D-03 for orbital     26a         
          max. resid. fock norm         =  1.076D-02 for orbital    544a         

 ITERATION  ENERGY          1e-ENERGY        2e-ENERGY     NORM[dD(SAO)]  TOL
   7  -325.35019799053    -1016.3268093     398.84400908    0.000D+00 0.528D-11
                            Exc = -46.9614928294     Coul =  445.805501914    
                              N = 56.000143343    
                            current damping = 0.450
 
          Norm of current diis error: 0.11114    
          max. resid. norm for Fia-block=  3.039D-03 for orbital     27a         
          max. resid. fock norm         =  6.472D-03 for orbital    544a         

 ITERATION  ENERGY          1e-ENERGY        2e-ENERGY     NORM[dD(SAO)]  TOL
   8  -325.35047434034    -1016.3539427     398.87086619    0.000D+00 0.528D-11
                            Exc = -46.9670725257     Coul =  445.837938712    
                              N = 56.000142623    
                            current damping = 0.300
 
          Norm of current diis error: 0.28631E-01
          max. resid. norm for Fia-block=  1.001D-03 for orbital     27a         
          max. resid. fock norm         =  2.879D-03 for orbital    540a         

 ITERATION  ENERGY          1e-ENERGY        2e-ENERGY     NORM[dD(SAO)]  TOL
   9  -325.35047043020    -1016.3645580     398.88148538    0.000D+00 0.528D-11
                            Exc = -46.9685601041     Coul =  445.850045480    
                              N = 56.000142658    
                            current damping = 0.350
 
          Norm of current diis error: 0.32164E-01
          max. resid. norm for Fia-block=  4.167D-04 for orbital     21a         
          max. resid. fock norm         =  1.176D-03 for orbital    540a         

 ITERATION  ENERGY          1e-ENERGY        2e-ENERGY     NORM[dD(SAO)]  TOL
  10  -325.35049184438    -1016.3520197     398.86892569    0.000D+00 0.528D-11
                            Exc = -46.9675886908     Coul =  445.836514385    
                              N = 56.000142670    
                            current damping = 0.400
 
          Norm of current diis error: 0.11338E-01
          max. resid. norm for Fia-block=  2.433D-04 for orbital     24a         
          max. resid. fock norm         =  5.308D-04 for orbital    540a         
          mo-orthogonalization: Cholesky decomposition

 ITERATION  ENERGY          1e-ENERGY        2e-ENERGY     NORM[dD(SAO)]  TOL
  11  -325.35049486120    -1016.3536335     398.87053640    0.000D+00 0.528D-11
                            Exc = -46.9675317631     Coul =  445.838068165    
                              N = 56.000142599    
                            current damping = 0.450
 
          Norm of current diis error: 0.27058E-02
          max. resid. norm for Fia-block=  1.110D-04 for orbital     26a         
          max. resid. fock norm         =  2.319D-04 for orbital    544a         

 ITERATION  ENERGY          1e-ENERGY        2e-ENERGY     NORM[dD(SAO)]  TOL
  12  -325.35049489690    -1016.3516941     398.86859698    0.000D+00 0.528D-11
                            Exc = -46.9674158623     Coul =  445.836012847    
                              N = 56.000142627    
                            current damping = 0.500
 
          Norm of current diis error: 0.23979E-02
          max. resid. norm for Fia-block=  4.970D-05 for orbital     27a         
          max. resid. fock norm         =  1.012D-04 for orbital    544a         

 ITERATION  ENERGY          1e-ENERGY        2e-ENERGY     NORM[dD(SAO)]  TOL
  13  -325.35049502888    -1016.3524236     398.86932640    0.000D+00 0.528D-11
                            Exc = -46.9674180789     Coul =  445.836744483    
                              N = 56.000142618    
                            current damping = 0.550
 
          Norm of current diis error: 0.55819E-03
          max. resid. norm for Fia-block=  1.928D-05 for orbital     28a         
          max. resid. fock norm         =  2.785D-05 for orbital    524a         

 ENERGY CONVERGED !

          Overall gridpoints after grid construction =        148730

 ITERATION  ENERGY          1e-ENERGY        2e-ENERGY     NORM[dD(SAO)]  TOL
  14  -325.35037939076    -1016.3524547     398.86947314    0.000D+00 0.528D-11
                            Exc = -46.9673220056     Coul =  445.836795144    
                              N = 55.999993373    
                            current damping = 0.400
 
          Norm of current diis error: 0.20784E-03
          max. resid. norm for Fia-block=  4.933D-06 for orbital     27a         
          max. resid. fock norm         =  1.049D-05 for orbital    544a         

 End of SCF iterations

   convergence criteria satisfied after    14 iterations


                  ------------------------------------------ 
                 |  total energy      =   -325.35037939076  |
                  ------------------------------------------ 
                 :  kinetic energy    =    323.94813130820  :
                 :  potential energy  =   -649.29851069896  :
                 :  virial theorem    =      1.99569003705  :
                 :  wavefunction norm =      1.00000000000  :
                  .......................................... 


 orbitals $scfmo  will be written to file mos

    irrep                 24a         25a         26a         27a         28a   
 eigenvalues H         -0.27776    -0.25469    -0.24197    -0.24167    -0.23270
            eV          -7.5584     -6.9304     -6.5843     -6.5762     -6.3321
 occupation              2.0000      2.0000      2.0000      2.0000      2.0000 

    irrep                 29a         30a         31a         32a         33a   
 eigenvalues H         -0.07797    -0.06333    -0.00035     0.00202     0.00493
            eV          -2.1218     -1.7234     -0.0095      0.0549      0.1342
 
 
 
 
 ==============================================================================
                           electrostatic moments
 ==============================================================================

 reference point for electrostatic moments:    0.00000   0.00000   0.00000

 
              nuc           elec       ->  total
 ------------------------------------------------------------------------------
                          charge      
 ------------------------------------------------------------------------------
          56.000000     -56.000000      -0.000000
 
 ------------------------------------------------------------------------------
                       dipole moment  
 ------------------------------------------------------------------------------
   x     -15.641031      15.432261      -0.208770
   y      -0.000238       0.002318       0.002079
   z     103.498283    -104.754168      -1.255885
 
   | dipole moment | =     1.2731 a.u. =     3.2359 debye 
 
 ------------------------------------------------------------------------------
                     quadrupole moment
 ------------------------------------------------------------------------------
  xx      30.643097     -68.633316     -37.990219
  yy     180.316654    -212.377304     -32.060649
  zz    1443.065231   -1478.436632     -35.371400
  xy      -0.766735       0.748726      -0.018009
  xz     151.543223    -150.529077       1.014146
  yz      -1.542267       1.556805       0.014539
 
     1/3  trace=     -35.140756
     anisotropy=       5.438439
 
 ==============================================================================
 


    ------------------------------------------------------------------------
         total  cpu-time :  2 minutes and 38 seconds
         total wall-time :  38.82 seconds
    ------------------------------------------------------------------------

   ****  ridft : all done  ****


    2019-03-12 22:49:12.700 

