STARTING dscf ON 32 PROCESSORS!
RUNNING PROGRAM /beegfs/modfac/apps/TURBOMOLE/7.2.1-official/bin/em64t-unknown-linux-gnu_mpi/dscf_mpi.
PLEASE WAIT UNTIL dscf HAS FINISHED.
Look for the output in slave1.output.
MACHINEFILE is ./hostlist
 this is node-proc. number 1 running on node c-5-9.local
 the total number of node-proc. spawned is  33
  parallel platform: MPP or cluster with fast interconnect

 dscf (c-5-9.local) : TURBOMOLE V7.2 ( 21471 ) 7 Nov 2017 at 16:15:16
 Copyright (C) 2017 TURBOMOLE GmbH, Karlsruhe


    2018-02-19 19:42:58.133 


 SCF run will be profiled !



                             d s c f - program

                   idea & directorship : reinhart ahlrichs
                   program development : marco haeser
                                         michael baer
                           dft version : oliver treutler
           parallelized version : malte v. arnim, gina corongiu, GMD 


                          quantum chemistry group
                          universitaet  karlsruhe
                                  germany




                          References             
                                                 
          TURBOMOLE:                             
              R. Ahlrichs, M. Baer, M. Haeser, H. Horn, and
              C. Koelmel
              Electronic structure calculations on workstation
              computers: the program system TURBOMOLE
              Chem. Phys. Lett. 162: 165 (1989)
          Density Functional:                              
              O. Treutler and R. Ahlrichs                      
              Efficient Molecular Numerical Integration Schemes
              J. Chem. Phys. 102: 346 (1995)                   
          Parallel Version:                                
              Performance of parallel TURBOMOLE for Density    
              Functional Calculations                          
              M. v. Arnim and R. Ahlrichs                      
              J. Comp. Chem. 19: 1746 (1998)                   
                                         




              +--------------------------------------------------+
              | Atomic coordinate, charge and isotop information |
              +--------------------------------------------------+

                    atomic coordinates            atom    charge  isotop
          5.82419040   -0.61904476   -4.09973144    c      6.000     0
          7.21893589   -2.18932142   -5.66025584    c      6.000     0
          5.99310584   -4.58405427   -5.73302825    c      6.000     0
          3.87019927   -4.44732074   -4.21111498    c      6.000     0
          6.30480954    2.11410846   -3.35928439    c      6.000     0
          8.85158754    2.92571639   -4.55623210    c      6.000     0
          4.24438324    3.87332748   -4.33358737    c      6.000     0
          4.31842106    5.61013301   -6.28009020    c      6.000     0
          1.93964629   -6.45105896   -3.52074225    c      6.000     0
          1.85982000   -6.76096890   -0.61128358    c      6.000     0
          2.75528210   -8.98903858   -4.68437160    c      6.000     0
         -0.66734799   -5.77679576   -4.49562994    c      6.000     0
         -2.03456741   -6.69379149   -6.53359972    c      6.000     0
          3.78955893   -2.02485712   -3.23139234    n      7.000     0
          1.85800617    4.03586505   -3.23796400    n      7.000     0
         -2.18906671   -4.03774015   -3.28951464    n      7.000     0
         -4.15564276    4.36611957   -4.55167420    c      6.000     0
         -6.24088176    4.43394242   -6.13090535    c      6.000     0
         -7.49046877    2.05606852   -5.95473316    c      6.000     0
         -6.14734759    0.57016324   -4.27237140    c      6.000     0
         -2.31146548    6.43686163   -3.82556357    c      6.000     0
         -2.54212091    6.90425982   -0.94537824    c      6.000     0
         -3.07077018    8.89574883   -5.18390275    c      6.000     0
          0.39685660    5.80343941   -4.53472813    c      6.000     0
          1.91326139    6.81640297   -6.40547641    c      6.000     0
         -6.57119586   -2.14752546   -3.46327131    c      6.000     0
         -9.13988716   -3.04057583   -4.54419600    c      6.000     0
         -4.49096892   -3.83996324   -4.48894701    c      6.000     0
         -4.43915431   -5.47701404   -6.52939623    c      6.000     0
         -4.12199958    2.00133821   -3.43809300    n      7.000     0
          6.56632802    2.41057789   -0.50729781    c      6.000     0
          7.04902713    4.58623004    0.94462274    c      6.000     0
          6.48999450    0.41338003    1.10858581    n      7.000     0
          7.25800748    3.81716588    3.51626409    c      6.000     0
          6.88754349    1.19891753    3.57127019    c      6.000     0
         -6.67431101   -2.42194604   -0.59851895    c      6.000     0
         -6.86384502   -4.61753793    0.87727958    c      6.000     0
         -6.74670294   -0.40075877    0.99872995    n      7.000     0
         -7.08841571   -3.85555541    3.43839789    c      6.000     0
         -6.98848404   -1.20751412    3.47853116    c      6.000     0
          6.81366690   -0.53248565    5.68808226    c      6.000     0
         -6.88899101    0.51030418    5.59572846    c      6.000     0
          7.12928242    0.04960413    7.91251297    o      8.000     0
         -7.09566647   -0.10272938    7.82945932    o      8.000     0
          6.33845859   -2.94977961    4.92871738    o      8.000     0
         -6.47571038    2.94242374    4.83811164    o      8.000     0
         -6.14461399    4.80295834    6.85010157    c      6.000     0
          6.26154425   -4.82910017    6.95621897    c      6.000     0
         -4.58189401    6.95587191    5.79390771    c      6.000     0
          5.55415209   -7.33943957    5.78106426    c      6.000     0
         -7.30579126   -5.60785376    5.66113133    c      6.000     0
          7.66890660    5.52767490    5.74279796    c      6.000     0
          5.18205764    6.70937277    6.69731956    c      6.000     0
         -4.72650176   -6.36100655    6.78390332    c      6.000     0
         -6.85922483   -7.30255721   -0.04121608    c      6.000     0
          7.42619826    7.23858046   -0.02267806    c      6.000     0
          8.94052278   -1.68722974   -6.63680688    h      1.000     0
          6.61552987   -6.22932160   -6.77212015    h      1.000     0
          9.26788901    4.88808784   -4.08331538    h      1.000     0
          8.76985319    2.74466893   -6.61157908    h      1.000     0
         10.36765422    1.72510115   -3.83557650    h      1.000     0
          5.93731072    6.02239467   -7.45574660    h      1.000     0
          0.47835888   -8.20902892   -0.08672789    h      1.000     0
          1.33452364   -4.99817964    0.33121955    h      1.000     0
          3.72591517   -7.32271330    0.07683335    h      1.000     0
          2.85521857   -8.88061253   -6.74603155    h      1.000     0
          1.39425785  -10.45687939   -4.16986102    h      1.000     0
          4.61844155   -9.52604374   -3.96691936    h      1.000     0
         -1.40076431   -8.11882642   -7.85409015    h      1.000     0
          1.13020111    2.68659291   -2.02057002    h      1.000     0
         -1.66603341   -2.96724421   -1.76858408    h      1.000     0
         -6.83526706    6.02995675   -7.25866299    h      1.000     0
         -9.18433373    1.50391423   -6.95389164    h      1.000     0
         -1.32003759    8.48566110   -0.38321231    h      1.000     0
         -2.07893350    5.21139547    0.15345541    h      1.000     0
         -4.48591866    7.42319357   -0.47549853    h      1.000     0
         -3.01271469    8.67749255   -7.23770895    h      1.000     0
         -1.77762220   10.41569412   -4.64579458    h      1.000     0
         -4.98933941    9.43198190   -4.63495722    h      1.000     0
          1.37860160    8.29875262   -7.70554896    h      1.000     0
         -9.13665279   -2.92881023   -6.60744076    h      1.000     0
        -10.65638566   -1.84545356   -3.81202714    h      1.000     0
         -9.49267964   -4.99482523   -3.98645805    h      1.000     0
         -5.97179812   -5.81134608   -7.83819419    h      1.000     0
         -2.75743527    1.36354977   -2.22041139    h      1.000     0
          6.20645022   -1.40452760    0.57914962    h      1.000     0
         -6.65219272    1.43166537    0.45861267    h      1.000     0
         -5.21016734    3.87555593    8.43863063    h      1.000     0
         -8.02320974    5.42351338    7.45422858    h      1.000     0
          4.87822845   -4.20601993    8.35869991    h      1.000     0
          8.12551449   -4.88285790    7.84726747    h      1.000     0
         -2.73201262    6.25730895    5.19351981    h      1.000     0
         -4.30869097    8.38478462    7.26567817    h      1.000     0
         -5.52242773    7.84751286    4.18439544    h      1.000     0
          3.67238509   -7.26108869    4.92963859    h      1.000     0
          5.54105374   -8.79025852    7.25571837    h      1.000     0
          6.92009635   -7.89259767    4.33101599    h      1.000     0
         -8.30573496   -7.31961300    5.05861099    h      1.000     0
         -8.44149830   -4.71278838    7.13694536    h      1.000     0
          8.98772815    7.03674328    5.22162103    h      1.000     0
          8.52560970    4.44824492    7.27854515    h      1.000     0
          4.40008281    8.03747903    5.30436708    h      1.000     0
          5.49957745    7.79787891    8.42701643    h      1.000     0
          3.77735359    5.24107798    7.08725802    h      1.000     0
         -3.51019370   -7.21954975    5.34541592    h      1.000     0
         -4.97563200   -7.72863517    8.31774994    h      1.000     0
         -3.75432373   -4.70214713    7.54166998    h      1.000     0
         -6.06201122   -7.43597852   -1.94156833    h      1.000     0
         -8.77645722   -8.09381094   -0.09621437    h      1.000     0
         -5.73332354   -8.50570230    1.21024307    h      1.000     0
          6.33786291    7.58690995   -1.74880217    h      1.000     0
          9.41598177    7.60458777   -0.47167368    h      1.000     0
          6.88123140    8.64636001    1.39615231    h      1.000     0
          2.38191767   -1.35018166   -2.08267006    h      1.000     0
 
       center of nuclear mass  :   -0.03708581   -0.01112571   -0.33728481
       center of nuclear charge:   -0.03253617   -0.01150151   -0.30808246

              +--------------------------------------------------+
              |               basis set information              |
              +--------------------------------------------------+

              we will work with the 1s 3p 5d 7f 9g ... basis set
              ...i.e. with spherical basis functions...

   type   atoms  prim   cont   basis
   ---------------------------------------------------------------------------
    c       46     50     30   cc-pVTZ   [4s3p2d1f|18s5p2d1f]
    n        6     50     30   cc-pVTZ   [4s3p2d1f|18s5p2d1f]
    o        4     50     30   cc-pVTZ   [4s3p2d1f|18s5p2d1f]
    h       58     16     14   cc-pVTZ   [3s2p1d|5s2p1d]
   ---------------------------------------------------------------------------
   total:  114   3728   2492
   ---------------------------------------------------------------------------

   total number of primitive shells          :   86
   total number of contracted shells         :  908
   total number of cartesian basis functions : 2830
   total number of SCF-basis functions       : 2492


 integral neglect threshold       :  0.12E-11
 integral storage threshold THIZE :  0.10E-04
 integral storage threshold THIME :         5


 DENSITY CONVERGENCE CHECK SWITCHED ON !
 SCF CONVERGENCE IF RMS(delta[D]) <     0.1000000000E-06


 symmetry group of the molecule :   c1 

 the group has the following generators :
   c1(z)

    1 symmetry operations found

 there are 1 real representations :   a   

 maximum number of shells which are related by symmetry :  1


    mo occupation :
   irrep   mo's   occupied
    a     2492      204
 
 number of basis functions   :                   2492
 number of occupied orbitals :                    204
 

 automatic virtual orbital shift switched on 
      shift if e(lumo)-e(homo) < 0.10000000    


 keyword $2e-ints_shell_statistics missing in file <control>

 ! One task per shell generated
  No pre-computed optimal task distribution found
  ... using automatic task generation

          ------------------------
          nuclear repulsion energy  :   8518.91940229    
          ------------------------


         -----------------
         -S,T+V- integrals
         -----------------

 1e-integrals will be neglected if expon. factor < 0.118091E-12
 
   Difference densities algorithm switched on.
   The maximal number of linear combinations of
   difference densities is                    20 .

 DIIS switched on: error vector is FDS-SDF
 Max. Iterations for DIIS is     :   5
 DIIS matrix (see manual) 
    Scaling factor of diagonals  :  1.200
    threshold for scaling factor :  0.000

 scf convergence criterion : increment of total energy < .1000000D-06
                  and increment of one-electron energy < .1000000D-03

  MOs are in ASCII format !


 reading orbital data $scfmo  from file mos
 orbital characterization : expanded
 mo provided and orthogonalized by Cholesky decomposition

 DSCF restart information will be dumped onto file mos

 
                                              current damping :  0.300
 ITERATION  ENERGY          1e-ENERGY        2e-ENERGY     RMS[dD(SAO)]   TOL
   1  -2394.2344377776    -20158.723818     9245.5699783    0.000D+00 0.118D-11
          max. resid. norm for Fia-block=  3.465D-01 for orbital      1a         
          max. resid. fock norm         =  4.323D+00 for orbital   2415a         
          Delta Eig. =   268.3501935680 eV 
 
                                              current damping :  0.250
 ITERATION  ENERGY          1e-ENERGY        2e-ENERGY     RMS[dD(SAO)]   TOL
   2  -2401.5229869766    -20234.166358     9313.7239685    0.197D-02 0.788D-12
          Norm of current diis error:  5.0071    
          max. resid. norm for Fia-block=  1.335D-01 for orbital      3a         
          max. resid. fock norm         =  3.457D-01 for orbital   2443a         
          Delta Eig. =    69.9559149128 eV 
 
                                              current damping :  0.150
 ITERATION  ENERGY          1e-ENERGY        2e-ENERGY     RMS[dD(SAO)]   TOL
   3  -2402.4213359426    -20238.800014     9317.4592753    0.786D-03 0.630D-12
          Norm of current diis error:  1.8155    
          max. resid. norm for Fia-block=  4.531D-02 for orbital    191a         
          max. resid. fock norm         =  5.604D-02 for orbital   2454a         
          Delta Eig. =    15.0368652225 eV 
 
                                              current damping :  0.100
 ITERATION  ENERGY          1e-ENERGY        2e-ENERGY     RMS[dD(SAO)]   TOL
   4  -2402.5852472766    -20246.948266     9325.4436167    0.466D-03 0.539D-12
          Norm of current diis error: 0.55152    
          max. resid. norm for Fia-block=  2.053D-02 for orbital    191a         
          max. resid. fock norm         =  4.054D-02 for orbital   2454a         
          Delta Eig. =     2.9936379322 eV 
 
                                              current damping :  0.150
 ITERATION  ENERGY          1e-ENERGY        2e-ENERGY     RMS[dD(SAO)]   TOL
   5  -2402.6023062852    -20245.873002     9324.3512936    0.161D-03 0.506D-12
          Norm of current diis error: 0.20508    
          max. resid. norm for Fia-block=  6.334D-03 for orbital    202a         
          max. resid. fock norm         =  9.765D-03 for orbital   2427a         
 mo-orthogonalization: Cholesky decomposition
          Delta Eig. =     0.5670238987 eV 
 
                                              current damping :  0.200
 ITERATION  ENERGY          1e-ENERGY        2e-ENERGY     RMS[dD(SAO)]   TOL
   6  -2402.6050030077    -20247.092643     9325.5682373    0.617D-04 0.482D-12
          Norm of current diis error: 0.80583E-01
          max. resid. norm for Fia-block=  2.678D-03 for orbital    202a         
          max. resid. fock norm         =  3.171D-03 for orbital   2445a         
          Delta Eig. =     0.2526447331 eV 
 
                                              current damping :  0.250
 ITERATION  ENERGY          1e-ENERGY        2e-ENERGY     RMS[dD(SAO)]   TOL
   7  -2402.6055003515    -20246.768751     9325.2438488    0.285D-04 0.463D-12
          Norm of current diis error: 0.33188E-01
          max. resid. norm for Fia-block=  1.872D-03 for orbital    202a         
          max. resid. fock norm         =  2.032D-03 for orbital    206a         
          Delta Eig. =     0.1193539367 eV 
 
                                              current damping :  0.300
 ITERATION  ENERGY          1e-ENERGY        2e-ENERGY     RMS[dD(SAO)]   TOL
   8  -2402.6056259231    -20246.886506     9325.3614780    0.134D-04 0.444D-12
          Norm of current diis error: 0.15831E-01
          max. resid. norm for Fia-block=  1.065D-03 for orbital    202a         
          max. resid. fock norm         =  1.231D-03 for orbital    206a         
          Delta Eig. =     0.0302648273 eV 
 
                                              current damping :  0.350
 ITERATION  ENERGY          1e-ENERGY        2e-ENERGY     RMS[dD(SAO)]   TOL
   9  -2402.6056603220    -20246.868370     9325.3433078    0.665D-05 0.424D-12
          Norm of current diis error: 0.78463E-02
          max. resid. norm for Fia-block=  7.408D-04 for orbital    202a         
          max. resid. fock norm         =  8.088D-04 for orbital    206a         
          Delta Eig. =     0.0143639758 eV 
 
                                              current damping :  0.400
 ITERATION  ENERGY          1e-ENERGY        2e-ENERGY     RMS[dD(SAO)]   TOL
  10  -2402.6056708012    -20246.875963     9325.3508901    0.321D-05 0.406D-12
          Norm of current diis error: 0.48628E-02
          max. resid. norm for Fia-block=  4.543D-04 for orbital    202a         
          max. resid. fock norm         =  5.266D-04 for orbital    206a         
 mo-orthogonalization: Cholesky decomposition
          Delta Eig. =     0.0100985695 eV 
 
                                              current damping :  0.450
 ITERATION  ENERGY          1e-ENERGY        2e-ENERGY     RMS[dD(SAO)]   TOL
  11  -2402.6056747526    -20246.873812     9325.3487354    0.207D-05 0.388D-12
          Norm of current diis error: 0.24833E-02
          max. resid. norm for Fia-block=  2.965D-04 for orbital    202a         
          max. resid. fock norm         =  3.275D-04 for orbital    206a         
          Delta Eig. =     0.0030570742 eV 
 
                                              current damping :  0.500
 ITERATION  ENERGY          1e-ENERGY        2e-ENERGY     RMS[dD(SAO)]   TOL
  12  -2402.6056759906    -20246.877414     9325.3523356    0.110D-05 0.372D-12
          Norm of current diis error: 0.14735E-02
          max. resid. norm for Fia-block=  1.846D-04 for orbital    202a         
          max. resid. fock norm         =  2.074D-04 for orbital    206a         
          Delta Eig. =     0.0029398221 eV 
 
                                              current damping :  0.550
 ITERATION  ENERGY          1e-ENERGY        2e-ENERGY     RMS[dD(SAO)]   TOL
  13  -2402.6056764153    -20246.875088     9325.3500094    0.719D-06 0.358D-12
          Norm of current diis error: 0.73062E-03
          max. resid. norm for Fia-block=  9.600D-05 for orbital    202a         
          max. resid. fock norm         =  1.030D-04 for orbital    206a         
          Delta Eig. =     0.0010680838 eV 
 
                                              current damping :  0.600
 ITERATION  ENERGY          1e-ENERGY        2e-ENERGY     RMS[dD(SAO)]   TOL
  14  -2402.6056765191    -20246.876488     9325.3514095    0.343D-06 0.347D-12
          Norm of current diis error: 0.38932E-03
          max. resid. norm for Fia-block=  5.172D-05 for orbital    202a         
          max. resid. fock norm         =  5.616D-05 for orbital    206a         
          Delta Eig. =     0.0006182959 eV 
 
                                              current damping :  0.650
 ITERATION  ENERGY          1e-ENERGY        2e-ENERGY     RMS[dD(SAO)]   TOL
  15  -2402.6056765431    -20246.875991     9325.3509117    0.188D-06 0.337D-12
          Norm of current diis error: 0.19711E-03
          max. resid. norm for Fia-block=  2.528D-05 for orbital    202a         
          max. resid. fock norm         =  2.570D-05 for orbital    206a         
 mo-orthogonalization: Cholesky decomposition
          Delta Eig. =     0.0002598494 eV 

 DENSITY CONVERGED !

 
                                              current damping :  0.700
 ITERATION  ENERGY          1e-ENERGY        2e-ENERGY     RMS[dD(SAO)]   TOL
  16  -2402.6056765529    -20246.876129     9325.3510502    0.868D-07 0.336D-12
          Norm of current diis error: 0.10561E-03
          max. resid. norm for Fia-block=  1.301D-05 for orbital    197a         
          max. resid. fock norm         =  1.308D-05 for orbital    197a         
          Delta Eig. =     0.0001241294 eV 

 ENERGY & DENSITY CONVERGED !

 
                                              current damping :  0.750
 ITERATION  ENERGY          1e-ENERGY        2e-ENERGY     RMS[dD(SAO)]   TOL
  17  -2402.6056765559    -20246.876080     9325.3510008    0.433D-07 0.336D-12
          max. resid. norm for Fia-block=  2.887D-06 for orbital    197a         
          max. resid. fock norm         =  2.933D-06 for orbital    197a         

 convergence criteria satisfied after    17 iterations


                  ------------------------------------------ 
                 |  total energy      =  -2402.60567655586  |
                  ------------------------------------------ 
                 :  kinetic energy    =   2398.12917867486  :
                 :  potential energy  =  -4800.73485523072  :
                 :  virial theorem    =      1.99813681541  :
                 :  wavefunction norm =      1.00000000000  :
                  .......................................... 


 <geterg> : there is no data group $energy 


 <skperg> : $end is missing 


 orbitals $scfmo  will be written to file mos

    irrep                200a        201a        202a        203a        204a   
 eigenvalues H         -0.30581    -0.29807    -0.29732    -0.28891    -0.27355
            eV          -8.3215     -8.1111     -8.0905     -7.8617     -7.4439
 occupation              2.0000      2.0000      2.0000      2.0000      2.0000 

    irrep                205a        206a        207a        208a        209a   
 eigenvalues H          0.07395     0.10429     0.10942     0.11676     0.12247
            eV           2.0123      2.8379      2.9774      3.1771      3.3327
 
 
 
 
 ==============================================================================
                           electrostatic moments
 ==============================================================================

 reference point for electrostatic moments:    0.00000   0.00000   0.00000

 
              nuc           elec       ->  total
 ------------------------------------------------------------------------------
                          charge      
 ------------------------------------------------------------------------------
         408.000000    -408.000000      -0.000000
 
 ------------------------------------------------------------------------------
                       dipole moment  
 ------------------------------------------------------------------------------
   x     -13.274758      13.218958      -0.055801
   y      -4.692615       4.604607      -0.088008
   z    -125.697644     124.470097      -1.227547
 
   | dipole moment | =     1.2320 a.u. =     3.1313 debye 
 
 ------------------------------------------------------------------------------
                     quadrupole moment
 ------------------------------------------------------------------------------
  xx   13652.895329  -13909.358491    -256.463162
  yy   10067.568642  -10299.286517    -231.717875
  zz    9577.466413   -9851.300116    -273.833704
  xy    1427.142299   -1434.093335      -6.951035
  xz     354.701939    -354.742512      -0.040573
  yz     -82.137890      81.410320      -0.727570
 
     1/3  trace=    -254.004913
     anisotropy=      38.606317
 
 ==============================================================================
 

    dscf profiling
  --------------------------------------------------------------------
             module   cpu total (s)       %  wall total (s)       %

          dscf.total          4992.1  100.00          4471.4  100.00
        dscf.prepare            18.8    0.38            18.9    0.42
      prepare.oneint             0.2    0.00             0.2    0.01
     prepare.moinput             0.4    0.01             0.5    0.01
     moinput_orthmos            17.8    0.36            17.8    0.40
            dscf.scf          4972.0   99.60          4450.9   99.54
             scf.pre             0.0    0.00             0.0    0.00
        scf.makedmat            13.9    0.28            14.2    0.32
          scf.shloop          3964.9   79.42          3961.8   88.60
          shloop_omp          3963.8   79.40          3960.7   88.58
          scf.symcar             1.6    0.03             1.6    0.03
        scf.makefock             3.3    0.07             4.1    0.09
          scf.newerg             0.1    0.00             0.1    0.00
          scf.newcnv           162.3    3.25            20.6    0.46
           scf.fdiag           380.3    7.62            48.2    1.08
         diag_tritrn           112.3    2.25            14.0    0.31
          diag_rdiag           260.1    5.21            33.2    0.74
          scf.modump           382.3    7.66           361.7    8.09
           ortho_all            37.4    0.75            15.3    0.34
            scf.post            24.2    0.48            23.1    0.52
        dscf.postscf             1.4    0.03             1.6    0.04
 


    ------------------------------------------------------------------------
         total  cpu-time :  1 hours 23 minutes and 12 seconds
         total wall-time :  1 hours 14 minutes and 32 seconds
    ------------------------------------------------------------------------

   ****  dscf : all done  ****


    2018-02-19 20:57:29.657 

