
   OpenMP run-time library returned nthreads = 28
 operating system is UNIX !

 dscf (c-15-38) : TURBOMOLE V7.3 ( 22142 ) 4 Jul 2018 at 18:12:42
 Copyright (C) 2018 TURBOMOLE GmbH, Karlsruhe


    2019-04-01 21:58:11.849 



                             d s c f - program

                   idea & directorship : reinhart ahlrichs
                   program development : marco haeser
                                         michael baer
                           dft version : oliver treutler


                          quantum chemistry group
                          universitaet  karlsruhe
                                  germany




                          References             
                                                 
          TURBOMOLE:                             
              R. Ahlrichs, M. Baer, M. Haeser, H. Horn, and
              C. Koelmel
              Electronic structure calculations on workstation
              computers: the program system TURBOMOLE
              Chem. Phys. Lett. 162: 165 (1989)
          Density Functional:                              
              O. Treutler and R. Ahlrichs                      
              Efficient Molecular Numerical Integration Schemes
              J. Chem. Phys. 102: 346 (1995)                   
          Parallel Version:                                
              Performance of parallel TURBOMOLE for Density    
              Functional Calculations                          
              M. v. Arnim and R. Ahlrichs                      
              J. Comp. Chem. 19: 1746 (1998)                   
                                         




              +--------------------------------------------------+
              | Atomic coordinate, charge and isotop information |
              +--------------------------------------------------+

                    atomic coordinates            atom    charge  isotop
          1.34670449    2.11837487    0.11440550    c      0.000     0
          2.56594885    3.75375042    0.24138827    h      0.000     0
          2.37772094   -0.30094248    0.23476733    c      0.000     0
          4.39352686   -0.54254014    0.46627676    h      0.000     0
          0.80669567   -2.40850634    0.08059763    c      0.000     0
          1.60710748   -4.28671652    0.17905146    h      0.000     0
         -1.79444207   -2.09773596   -0.18956522    c      0.000     0
         -3.01308460   -3.73461606   -0.30937364    h      0.000     0
         -2.82613388    0.32323872   -0.30527773    c      0.000     0
         -4.84484734    0.56544602   -0.51722393    h      0.000     0
         -1.25445237    2.43140269   -0.15760587    c      0.000     0
         -2.05394465    4.31046569   -0.25111840    h      0.000     0
          3.75632288    2.09713718    7.01148787    c      6.000     0
          4.97490356    3.73398724    7.13195927    h      1.000     0
          4.78802477   -0.32388753    7.12774332    c      6.000     0
          6.80664323   -0.56605036    7.34079902    h      1.000     0
          3.21643501   -2.43206619    6.97911555    c      6.000     0
          4.01594357   -4.31111997    7.07294737    h      1.000     0
          0.61541301   -2.11906135    6.70564053    c      6.000     0
         -0.60365422   -3.75444970    6.57783338    h      1.000     0
         -0.41554573    0.30022793    6.58476263    c      6.000     0
         -2.43118060    0.54179013    6.35198851    h      1.000     0
          1.15534004    2.40780313    6.73985424    c      6.000     0
          0.35499401    4.28601145    6.64089130    h      1.000     0
 
       center of nuclear mass  :    0.98100866   -0.00033478    3.41049055
       center of nuclear charge:    2.18603784   -0.01164077    6.85733437

              +--------------------------------------------------+
              |               basis set information              |
              +--------------------------------------------------+

              we will work with the 1s 3p 5d 7f 9g ... basis set
              ...i.e. with spherical basis functions...

   type   atoms  prim   cont   basis
   ---------------------------------------------------------------------------
    c       12     50     30   cc-pVTZ   [4s3p2d1f|18s5p2d1f]
    h       12     16     14   cc-pVTZ   [3s2p1d|5s2p1d]
   ---------------------------------------------------------------------------
   total:   24    792    528
   ---------------------------------------------------------------------------

   total number of primitive shells          :   34
   total number of contracted shells         :  192
   total number of cartesian basis functions :  600
   total number of SCF-basis functions       :  528


 integral neglect threshold       :  0.56E-13
 integral storage threshold THIZE :  0.10E-04
 integral storage threshold THIME :         5


 DENSITY CONVERGENCE CHECK SWITCHED ON !
 SCF CONVERGENCE IF RMS(delta[D]) <     0.1000000000E-06


 symmetry group of the molecule :   c1 

 the group has the following generators :
   c1(z)

    1 symmetry operations found

 there are 1 real representations :   a   

 maximum number of shells which are related by symmetry :  1


    mo occupation :
   irrep   mo's   occupied
    a      528       21
 
 number of basis functions   :                    528
 number of occupied orbitals :                     21
 

 automatic virtual orbital shift switched on 
      shift if e(lumo)-e(homo) < 0.10000000    


          ------------------------
          nuclear repulsion energy  :   203.711723773    
          ------------------------


         -----------------
         -S,T+V- integrals
         -----------------

 1e-integrals will be neglected if expon. factor < 0.556994E-14
 
   Difference densities algorithm switched on.
   The maximal number of linear combinations of
   difference densities is                    20 .

 DIIS switched on: error vector is FDS-SDF
 Max. Iterations for DIIS is     :   5
 DIIS matrix (see manual) 
    Scaling factor of diagonals  :  1.200
    threshold for scaling factor :  0.000

 scf convergence criterion : increment of total energy < .1000000D-08
                  and increment of one-electron energy < .1000000D-05

  MOs are in ASCII format !


 reading orbital data $scfmo  from file mos
 orbital characterization : scfconv=9

 DSCF restart information will be dumped onto file mos

 
                                              current damping :  0.700
 ITERATION  ENERGY          1e-ENERGY        2e-ENERGY     RMS[dD(SAO)]   TOL
   1  -230.73118603155    -714.82026193     280.37735212    0.000D+00 0.556D-13
          max. resid. norm for Fia-block=  9.385D-02 for orbital      6a         
          max. resid. fock norm         =  2.453D-01 for orbital    483a         
          Delta Eig. =    20.8287677289 eV 
 
                                              current damping :  0.650
 ITERATION  ENERGY          1e-ENERGY        2e-ENERGY     RMS[dD(SAO)]   TOL
   2  -230.77008797216    -713.93993489     279.45812315    0.613D-03 0.354D-13
          Norm of current diis error: 0.41844    
          max. resid. norm for Fia-block=  4.558D-02 for orbital      6a         
          max. resid. fock norm         =  8.806D-02 for orbital    464a         
          Delta Eig. =     9.7694966395 eV 
 
                                              current damping :  0.600
 ITERATION  ENERGY          1e-ENERGY        2e-ENERGY     RMS[dD(SAO)]   TOL
   3  -230.77790766452    -714.04751043     279.55787899    0.303D-03 0.268D-13
          Norm of current diis error: 0.18669    
          max. resid. norm for Fia-block=  1.880D-02 for orbital      6a         
          max. resid. fock norm         =  3.905D-02 for orbital    369a         
          Delta Eig. =     3.7370953839 eV 
 
                                              current damping :  0.650
 ITERATION  ENERGY          1e-ENERGY        2e-ENERGY     RMS[dD(SAO)]   TOL
   4  -230.77954415845    -713.96229501     279.47102707    0.136D-03 0.236D-13
          Norm of current diis error: 0.75258E-01
          max. resid. norm for Fia-block=  7.045D-03 for orbital      6a         
          max. resid. fock norm         =  1.884D-02 for orbital    513a         
          Delta Eig. =     1.3734617013 eV 
 
                                              current damping :  0.500
 ITERATION  ENERGY          1e-ENERGY        2e-ENERGY     RMS[dD(SAO)]   TOL
   5  -230.77980855833    -713.94816572     279.45663339    0.540D-04 0.218D-13
          Norm of current diis error: 0.31650E-01
          max. resid. norm for Fia-block=  2.729D-03 for orbital      6a         
          max. resid. fock norm         =  5.646D-03 for orbital    421a         
 mo-orthogonalization: Cholesky decomposition
          Delta Eig. =     0.5884250854 eV 
 
                                              current damping :  0.350
 ITERATION  ENERGY          1e-ENERGY        2e-ENERGY     RMS[dD(SAO)]   TOL
   6  -230.77985873378    -713.93983985     279.44825734    0.250D-04 0.202D-13
          Norm of current diis error: 0.11480E-01
          max. resid. norm for Fia-block=  1.003D-03 for orbital     14a         
          max. resid. fock norm         =  1.894D-03 for orbital    421a         
          Delta Eig. =     0.2160858874 eV 
 
                                              current damping :  0.200
 ITERATION  ENERGY          1e-ENERGY        2e-ENERGY     RMS[dD(SAO)]   TOL
   7  -230.77986590140    -713.93628385     279.44469418    0.102D-04 0.187D-13
          Norm of current diis error: 0.33846E-02
          max. resid. norm for Fia-block=  3.064D-04 for orbital     14a         
          max. resid. fock norm         =  4.706D-04 for orbital    421a         
          Delta Eig. =     0.0636388040 eV 
 
                                              current damping :  0.050
 ITERATION  ENERGY          1e-ENERGY        2e-ENERGY     RMS[dD(SAO)]   TOL
   8  -230.77986659402    -713.93550447     279.44391410    0.352D-05 0.172D-13
          Norm of current diis error: 0.73797E-03
          max. resid. norm for Fia-block=  6.634D-05 for orbital     14a         
          max. resid. fock norm         =  8.002D-05 for orbital    421a         
          Delta Eig. =     0.0116496206 eV 
 
                                              current damping :  0.050
 ITERATION  ENERGY          1e-ENERGY        2e-ENERGY     RMS[dD(SAO)]   TOL
   9  -230.77986663396    -713.93511716     279.44352675    0.980D-06 0.159D-13
          Norm of current diis error: 0.11886E-03
          max. resid. norm for Fia-block=  1.082D-05 for orbital     14a         
          max. resid. fock norm         =  1.082D-05 for orbital     14a         
          Delta Eig. =     0.0006854973 eV 
 
                                              current damping :  0.100
 ITERATION  ENERGY          1e-ENERGY        2e-ENERGY     RMS[dD(SAO)]   TOL
  10  -230.77986663524    -713.93516916     279.44357875    0.188D-06 0.152D-13
          Norm of current diis error: 0.31646E-04
          max. resid. norm for Fia-block=  3.766D-06 for orbital     17a         
          max. resid. fock norm         =  3.767D-06 for orbital     17a         
 mo-orthogonalization: Cholesky decomposition
          Delta Eig. =     0.0000854690 eV 

 DENSITY CONVERGED !

 
                                              current damping :  0.150
 ITERATION  ENERGY          1e-ENERGY        2e-ENERGY     RMS[dD(SAO)]   TOL
  11  -230.77986663533    -713.93511964     279.44352923    0.497D-07 0.149D-13
          Norm of current diis error: 0.11603E-04
          max. resid. norm for Fia-block=  7.882D-07 for orbital     17a         
          max. resid. fock norm         =  8.314D-07 for orbital     15a         
          Delta Eig. =     0.0000359684 eV 

 DENSITY CONVERGED !

 
                                              current damping :  0.200
 ITERATION  ENERGY          1e-ENERGY        2e-ENERGY     RMS[dD(SAO)]   TOL
  12  -230.77986663534    -713.93513714     279.44354673    0.125D-07 0.159D-13
          Norm of current diis error: 0.33549E-05
          max. resid. norm for Fia-block=  3.940D-07 for orbital     20a         
          max. resid. fock norm         =  3.943D-07 for orbital     20a         
          Delta Eig. =     0.0000055690 eV 

 ENERGY & DENSITY CONVERGED !

 
                                              current damping :  0.250
 ITERATION  ENERGY          1e-ENERGY        2e-ENERGY     RMS[dD(SAO)]   TOL
  13  -230.77986663535    -713.93513453     279.44354412    0.398D-08 0.161D-13
          max. resid. norm for Fia-block=  1.374D-07 for orbital     21a         
          max. resid. fock norm         =  1.375D-07 for orbital     21a         

 convergence criteria satisfied after    13 iterations


                  ------------------------------------------ 
                 |  total energy      =   -230.77986663535  |
                  ------------------------------------------ 
                 :  kinetic energy    =    230.45407003106  :
                 :  potential energy  =   -461.23393666642  :
                 :  virial theorem    =      1.99858827978  :
                 :  wavefunction norm =      1.00000000000  :
                  .......................................... 


 orbitals $scfmo  will be written to file mos

    irrep                 17a         18a         19a         20a         21a   
 eigenvalues H         -0.50128    -0.49373    -0.49347    -0.33574    -0.33564
            eV         -13.6406    -13.4351    -13.4280     -9.1361     -9.1332
 occupation              2.0000      2.0000      2.0000      2.0000      2.0000 

    irrep                 22a         23a         24a         25a         26a   
 eigenvalues H          0.07498     0.11095     0.11383     0.12749     0.12869
            eV           2.0403      3.0192      3.0975      3.4691      3.5019
 
 
 
 
 ==============================================================================
                           electrostatic moments
 ==============================================================================

 reference point for electrostatic moments:    0.00000   0.00000   0.00000

 
              nuc           elec       ->  total
 ------------------------------------------------------------------------------
                          charge      
 ------------------------------------------------------------------------------
          42.000000     -42.000000      -0.000000
 
 ------------------------------------------------------------------------------
                       dipole moment  
 ------------------------------------------------------------------------------
   x      91.813589     -91.809223       0.004366
   y      -0.488912       0.489024       0.000111
   z     288.008044    -287.992777       0.015267
 
   | dipole moment | =     0.0159 a.u. =     0.0404 debye 
 
 ------------------------------------------------------------------------------
                     quadrupole moment
 ------------------------------------------------------------------------------
  xx     389.209832    -412.916138     -23.706305
  yy     190.383595    -214.047232     -23.663637
  zz    1977.040385   -2007.042835     -30.002451
  xy      -0.976373       0.980974       0.004601
  xz     649.337800    -648.584766       0.753034
  yz      -4.304894       4.272437      -0.032458
 
     1/3  trace=     -25.790798
     anisotropy=       6.451071
 
 ==============================================================================
 


    ------------------------------------------------------------------------
         total  cpu-time : 57 minutes and 55 seconds
         total wall-time :  2 minutes and 59 seconds
    ------------------------------------------------------------------------

   ****  dscf : all done  ****


    2019-04-01 22:01:10.736 

