
   OpenMP run-time library returned nthreads = 28

 ricc2 (c-15-38) : TURBOMOLE V7.3 ( 22142 ) 4 Jul 2018 at 18:12:42
 Copyright (C) 2018 TURBOMOLE GmbH, Karlsruhe


    2019-04-01 22:01:11.032 



                              R I C C 2 - PROGRAM

                          the quantum chemistry groups
                             at the universities in
                           Karlsruhe, Bochum & Mainz
                                   Germany



   *-----------------------------------------------------------------------*
   |                     program will use 28 thread(s)                     |
   *-----------------------------------------------------------------------*


              +--------------------------------------------------+
              | Atomic coordinate, charge and isotop information |
              +--------------------------------------------------+

                    atomic coordinates            atom    charge  isotop
          1.34670449    2.11837487    0.11440550    c      0.000     0
          2.56594885    3.75375042    0.24138827    h      0.000     0
          2.37772094   -0.30094248    0.23476733    c      0.000     0
          4.39352686   -0.54254014    0.46627676    h      0.000     0
          0.80669567   -2.40850634    0.08059763    c      0.000     0
          1.60710748   -4.28671652    0.17905146    h      0.000     0
         -1.79444207   -2.09773596   -0.18956522    c      0.000     0
         -3.01308460   -3.73461606   -0.30937364    h      0.000     0
         -2.82613388    0.32323872   -0.30527773    c      0.000     0
         -4.84484734    0.56544602   -0.51722393    h      0.000     0
         -1.25445237    2.43140269   -0.15760587    c      0.000     0
         -2.05394465    4.31046569   -0.25111840    h      0.000     0
          3.75632288    2.09713718    7.01148787    c      6.000     0
          4.97490356    3.73398724    7.13195927    h      1.000     0
          4.78802477   -0.32388753    7.12774332    c      6.000     0
          6.80664323   -0.56605036    7.34079902    h      1.000     0
          3.21643501   -2.43206619    6.97911555    c      6.000     0
          4.01594357   -4.31111997    7.07294737    h      1.000     0
          0.61541301   -2.11906135    6.70564053    c      6.000     0
         -0.60365422   -3.75444970    6.57783338    h      1.000     0
         -0.41554573    0.30022793    6.58476263    c      6.000     0
         -2.43118060    0.54179013    6.35198851    h      1.000     0
          1.15534004    2.40780313    6.73985424    c      6.000     0
          0.35499401    4.28601145    6.64089130    h      1.000     0
 
       center of nuclear mass  :    0.98100866   -0.00033478    3.41049055
       center of nuclear charge:    2.18603784   -0.01164077    6.85733437

              +--------------------------------------------------+
              |               basis set information              |
              +--------------------------------------------------+

              we will work with the 1s 3p 5d 7f 9g ... basis set
              ...i.e. with spherical basis functions...

   type   atoms  prim   cont   basis
   ---------------------------------------------------------------------------
    c       12     50     30   cc-pVTZ   [4s3p2d1f|18s5p2d1f]
    h       12     16     14   cc-pVTZ   [3s2p1d|5s2p1d]
   ---------------------------------------------------------------------------
   total:   24    792    528
   ---------------------------------------------------------------------------

   total number of primitive shells          :   34
   total number of contracted shells         :  192
   total number of cartesian basis functions :  600
   total number of SCF-basis functions       :  528


 symmetry group of the molecule :   c1 

 the group has the following generators :
   c1(z)

    1 symmetry operations found

 there are 1 real representations :   a   


   =========================================================================


     restricted closed shell calculation for the wavefunction models:
               MP2        - Second Order Moeller Plesset PT


     global parameters for ricc2 program:

        hard restart (reuse of interm.) :  disabled
        soft restart (reuse of vectors) :  disabled
        threshold for vector function   :    0.100000E-05
        convergence threshold energy    :    0.100000E-06
        linear dependence threshold     :    0.100000E-13
        global print level              :      1
        maximum number of iterations    :   300
        maximum number DIIS vectors     :    10
        max. dim. of reduced space      :   100
        core memory limit (MB)          : *****


     MP2 energy only: Energy will be calculated directly from T2 amplitudes!

     Scratch Directory : 


   =========================================================================

    der. integral neglect threshold  :  0.10E-07
    integral neglect threshold       :  0.56E-11
    integral storage threshold THIZE :  0.10E-04
    integral storage threshold THIME :         5


                  +------------------------------------------+
                  |     Auxiliary basis set information      |
                  +------------------------------------------+

              we will work with the 1s 3p 5d 7f 9g ... basis set
              ...i.e. with spherical basis functions...

   type   atoms  prim   cont   basis
   ---------------------------------------------------------------------------
    c       12     81     81   cc-pVTZ   [8s6p5d3f1g|8s6p5d3f1g]
    h       12     30     30   cc-pVTZ   [4s3p2d1f|4s3p2d1f]
   ---------------------------------------------------------------------------
   total:   24   1332   1332
   ---------------------------------------------------------------------------

   total number of primitive shells          :   33
   total number of contracted shells         :  396
   total number of cartesian basis functions : 1632
   total number of SCF-basis functions       : 1332


 maximum number of shells which are related by symmetry :  1


 The symmetry information takes   1 MB

*---------------------------------------------------------------------*
|               simplified C1 algorithm will be applied               |
*---------------------------------------------------------------------*
  MOs are in ASCII format !


 reading orbital data $scfmo  from file mos
 orbital characterization : scfconv=9



              +--------------------------------------------+
              | list of orbitals that will be kept frozen: |
              +--------------------------------------------+
              |   irrep   index      energy     occ/vir    |
              +--------------------------------------------+
              |   a         1      -11.2346     occupied   |
              |   a         2      -11.2340     occupied   |
              |   a         3      -11.2340     occupied   |
              |   a         4      -11.2328     occupied   |
              |   a         5      -11.2328     occupied   |
              |   a         6      -11.2321     occupied   |
              +--------------------------------------------+



   Molecular Orbital Statistic:
   ============================

   -----------------------------
   orbitals in total:
   -----------------------------
    frozen occupied :      6
    active occupied :     15
    active virtual  :    507
    frozen virtual  :      0
    all together    :    528
   -----------------------------


     time in riccmos       cpu:  7.23 sec    wall:  0.38 sec    ratio: 19.0

     total memory allocated for calculation of (Q|P)**(-1/2) : 21 MiB


     calculation of (P|Q) ...
     time in lp2sym        cpu:  2.87 sec    wall:  0.10 sec    ratio: 28.1


     calculation of the Cholesky decomposition of (P|Q)**(-1) ...
     time in invmetri      cpu:  7.15 sec    wall:  0.26 sec    ratio: 27.7

   threshold for RMS(d[D]) in SCF was     :  0.10E-06
   integral neglect threshold             :  0.56E-11
   derivative integral neglect threshold  :  0.10E-07


   =========================================================================

     Energy of reference wave function is  -230.7798666354000
     Maximum orbital residual is           0.1374900883556E-06


     Number of symmetry-nonredundant auxiliary basis functions:     1332

     Block lengths for integral files:
        frozen occupied (BOI):        1 MiB
        active occupied (BJI):        1 MiB
        active virtual  (BAI):        6 MiB
        frozen virtual  (BGI):        0 MiB
               general  (BTI):        6 MiB

   =========================================================================




   **************************************************************************
   *                                                                        *
   *          OPTIMIZATION OF THE GROUND STATE CLUSTER AMPLITUDES           *
   *                                                                        *
   **************************************************************************


   Iter.   MP2 energy       Norm(Omega)   Norm(t1)  Norm(t2)     cpu    wall
   ...........................................................................
    1   -231.7303176521     ------          0.00000   0.33965    0.74    0.03
   ...........................................................................


     time in total         cpu: 44.70 sec    wall:  1.65 sec    ratio: 27.0


     **********************************************************************
     *                                                                    *
     *   RHF  energy                             :   -230.7798666354      *
     *   MP2 correlation energy (doubles)        :     -0.9504510167      *
     *                                                                    *
     *   Final MP2 energy                        :   -231.7303176521      *
     *                                                                    *
     *    E(S)   =     -0.5937578567      E(T)   =     -0.3566931600      *
     *    E(OS)  =     -0.7126555767      E(SS)  =     -0.2377954400      *
     *                                                                    *
     *   SCS-MP2 energy                          :   -231.7143184741      *
     *   (computed with  C(OS) =   1.2000  and  C(SS) =   0.3333)         *
     *                                                                    *
     *   SOS-MP2 energy                          :   -231.7063188851      *
     *   (computed with  C(OS) =   1.3000)                                *
     *                                                                    *
     *   Norm of MP1 T2 amplitudes               :      0.3396509053      *
     *                                                                    *
     **********************************************************************



    ------------------------------------------------------------------------
         total  cpu-time :  1 minutes and 59 seconds
         total wall-time :   4.63 seconds
    ------------------------------------------------------------------------

   ****  ricc2 : all done  ****


    2019-04-01 22:01:15.608 

