 this is node-proc. number 0 running on node c-17-24.gp.local
 the total number of node-proc. spawned is  33

 dscfserver (c-17-24.gp.local) : TURBOMOLE V7.2 ( 21471 ) 7 Nov 2017 at 16:15:16
 Copyright (C) 2017 TURBOMOLE GmbH, Karlsruhe


    2018-02-12 13:01:35.757 

 
    0:00:25 ---- Start global counter...
    0:18:52 ---- ... finished.
 
    0:19:32 ---- Start global counter...
    0:31:03 ---- ... finished.
 
    0:31:42 ---- Start global counter...
    0:40:29 ---- ... finished.
 
    0:41:08 ---- Start global counter...
    0:49:01 ---- ... finished.
 
    0:49:48 ---- Start global counter...
    0:56:36 ---- ... finished.
 
    0:57:15 ---- Start global counter...
    1:03:15 ---- ... finished.
 
    1:03:54 ---- Start global counter...
    1:09:22 ---- ... finished.
 
    1:10:01 ---- Start global counter...
    1:14:31 ---- ... finished.
 
    1:15:10 ---- Start global counter...
    1:18:37 ---- ... finished.
 
    1:19:25 ---- Start global counter...
    1:22:17 ---- ... finished.
 
    1:22:53 ---- ByeBye Tag received


 ! Total wall-clock time in seconds  :     4972.9
 ! Time (sec) spent in global counter:     4542.2
 ! So-called SERIAL wall-clock time  :      430.7

  *** Regular termination of server ***
 total turnaround time of dscfserver  4973.33 sec
 cpu elapsed by dscfserver process    4541.70 sec 

   ***  dscf server : all done  ***


    2018-02-12 14:24:29.089 

