
   OpenMP run-time library returned nthreads =  8
 operating system is UNIX !

 dscf (c-7-23) : TURBOMOLE V7.3 ( 22142 ) 4 Jul 2018 at 18:12:42
 Copyright (C) 2018 TURBOMOLE GmbH, Karlsruhe


    2019-04-02 13:14:07.392 



                             d s c f - program

                   idea & directorship : reinhart ahlrichs
                   program development : marco haeser
                                         michael baer
                           dft version : oliver treutler


                          quantum chemistry group
                          universitaet  karlsruhe
                                  germany




                          References             
                                                 
          TURBOMOLE:                             
              R. Ahlrichs, M. Baer, M. Haeser, H. Horn, and
              C. Koelmel
              Electronic structure calculations on workstation
              computers: the program system TURBOMOLE
              Chem. Phys. Lett. 162: 165 (1989)
          Density Functional:                              
              O. Treutler and R. Ahlrichs                      
              Efficient Molecular Numerical Integration Schemes
              J. Chem. Phys. 102: 346 (1995)                   
          Parallel Version:                                
              Performance of parallel TURBOMOLE for Density    
              Functional Calculations                          
              M. v. Arnim and R. Ahlrichs                      
              J. Comp. Chem. 19: 1746 (1998)                   
                                         




              +--------------------------------------------------+
              | Atomic coordinate, charge and isotop information |
              +--------------------------------------------------+

                    atomic coordinates            atom    charge  isotop
         -1.07659254    1.53894091    0.19104705    n      7.000     0
          0.24732308    1.06091238   -1.11043058    h      1.000     0
         -2.76136637    0.99572467   -0.52993583    h      1.000     0
         -0.57733848    0.12417447    2.51105246    c      6.000     0
         -1.99772300    0.59388455    3.92299473    h      1.000     0
         -0.54428559   -1.93185282    2.29572672    h      1.000     0
          1.24808422    0.69638133    3.26968398    h      1.000     0
 
       center of nuclear mass  :   -0.83239664    0.78799428    1.31198236
       center of nuclear charge:   -0.82267480    0.71848241    1.34731573

              +--------------------------------------------------+
              |               basis set information              |
              +--------------------------------------------------+

              we will work with the 1s 3p 5d 7f 9g ... basis set
              ...i.e. with spherical basis functions...

   type   atoms  prim   cont   basis
   ---------------------------------------------------------------------------
    n        1     77     57   def2-QZVP   [7s4p3d2f1g|15s8p3d2f1g]
    h        5     33     30   def2-QZVP   [4s3p2d1f|7s3p2d1f]
    c        1     77     57   def2-QZVP   [7s4p3d2f1g|15s8p3d2f1g]
   ---------------------------------------------------------------------------
   total:    7    319    264
   ---------------------------------------------------------------------------

   total number of primitive shells          :   71
   total number of contracted shells         :   84
   total number of cartesian basis functions :  319
   total number of SCF-basis functions       :  264


 integral neglect threshold       :  0.10E-12
 integral storage threshold THIZE :  0.10E-04
 integral storage threshold THIME :         5


 DENSITY CONVERGENCE CHECK SWITCHED ON !
 SCF CONVERGENCE IF RMS(delta[D]) <     0.1000000000E-06


 symmetry group of the molecule :   c1 

 the group has the following generators :
   c1(z)

    1 symmetry operations found

 there are 1 real representations :   a   

 maximum number of shells which are related by symmetry :  1


    mo occupation :
   irrep   mo's   occupied
    a      264        9
 
 number of basis functions   :                    264
 number of occupied orbitals :                      9
 

 automatic virtual orbital shift switched on 
      shift if e(lumo)-e(homo) < 0.10000000    


          ------------------------
          nuclear repulsion energy  :   42.0932860640    
          ------------------------


         -----------------
         -S,T+V- integrals
         -----------------

 1e-integrals will be neglected if expon. factor < 0.104764E-13
 
   Difference densities algorithm switched on.
   The maximal number of linear combinations of
   difference densities is                    20 .

 DIIS switched on: error vector is FDS-SDF
 Max. Iterations for DIIS is     :   5
 DIIS matrix (see manual) 
    Scaling factor of diagonals  :  1.200
    threshold for scaling factor :  0.000

 scf convergence criterion : increment of total energy < .1000000D-08
                  and increment of one-electron energy < .1000000D-05

  MOs are in ASCII format !


 reading orbital data $scfmo  from file mos
 orbital characterization : scfconv=9

 DSCF restart information will be dumped onto file mos

 
                                              current damping :  0.700
 ITERATION  ENERGY          1e-ENERGY        2e-ENERGY     RMS[dD(SAO)]   TOL
   1  -95.242021217149    -211.72920676     74.393899480    0.000D+00 0.104D-12
          max. resid. norm for Fia-block=  2.295D-01 for orbital      1a         
          max. resid. fock norm         =  7.097D-01 for orbital    262a         
          Delta Eig. =    54.6105424642 eV 
 
                                              current damping :  0.650
 ITERATION  ENERGY          1e-ENERGY        2e-ENERGY     RMS[dD(SAO)]   TOL
   2  -95.258078355997    -211.51772188     74.166357456    0.977D-03 0.680D-13
          Norm of current diis error: 0.43548    
          max. resid. norm for Fia-block=  1.012D-01 for orbital      1a         
          max. resid. fock norm         =  2.905D-01 for orbital    264a         
          Delta Eig. =    22.6301033605 eV 
 
                                              current damping :  0.600
 ITERATION  ENERGY          1e-ENERGY        2e-ENERGY     RMS[dD(SAO)]   TOL
   3  -95.261310003375    -211.58345090     74.228854832    0.503D-03 0.504D-13
          Norm of current diis error: 0.18736    
          max. resid. norm for Fia-block=  4.096D-02 for orbital      1a         
          max. resid. fock norm         =  1.154D-01 for orbital    264a         
          Delta Eig. =     9.4351187450 eV 
 
                                              current damping :  0.650
 ITERATION  ENERGY          1e-ENERGY        2e-ENERGY     RMS[dD(SAO)]   TOL
   4  -95.261952997132    -211.56146892     74.206229861    0.215D-03 0.438D-13
          Norm of current diis error: 0.73539E-01
          max. resid. norm for Fia-block=  1.550D-02 for orbital      1a         
          max. resid. fock norm         =  4.322D-02 for orbital    264a         
          Delta Eig. =     3.3908589949 eV 
 
                                              current damping :  0.500
 ITERATION  ENERGY          1e-ENERGY        2e-ENERGY     RMS[dD(SAO)]   TOL
   5  -95.262055937262    -211.56085199     74.205509985    0.908D-04 0.401D-13
          Norm of current diis error: 0.30842E-01
          max. resid. norm for Fia-block=  6.097D-03 for orbital      1a         
          max. resid. fock norm         =  1.707D-02 for orbital    264a         
 mo-orthogonalization: Cholesky decomposition
          Delta Eig. =     1.4816475648 eV 
 
                                              current damping :  0.350
 ITERATION  ENERGY          1e-ENERGY        2e-ENERGY     RMS[dD(SAO)]   TOL
   6  -95.262076392596    -211.55959343     74.204230977    0.447D-04 0.370D-13
          Norm of current diis error: 0.11361E-01
          max. resid. norm for Fia-block=  2.024D-03 for orbital      1a         
          max. resid. fock norm         =  5.690D-03 for orbital    264a         
          Delta Eig. =     0.5489337141 eV 
 
                                              current damping :  0.200
 ITERATION  ENERGY          1e-ENERGY        2e-ENERGY     RMS[dD(SAO)]   TOL
   7  -95.262079698872    -211.55910590     74.203740133    0.208D-04 0.342D-13
          Norm of current diis error: 0.35827E-02
          max. resid. norm for Fia-block=  5.199D-04 for orbital      1a         
          max. resid. fock norm         =  1.473D-03 for orbital    264a         
          Delta Eig. =     0.1601341480 eV 
 
                                              current damping :  0.050
 ITERATION  ENERGY          1e-ENERGY        2e-ENERGY     RMS[dD(SAO)]   TOL
   8  -95.262080125693    -211.55900282     74.203636635    0.892D-05 0.318D-13
          Norm of current diis error: 0.97215E-03
          max. resid. norm for Fia-block=  8.437D-05 for orbital      1a         
          max. resid. fock norm         =  2.443D-04 for orbital    264a         
          Delta Eig. =     0.0306937651 eV 
 
                                              current damping :  0.050
 ITERATION  ENERGY          1e-ENERGY        2e-ENERGY     RMS[dD(SAO)]   TOL
   9  -95.262080171862    -211.55892495     74.203558712    0.352D-05 0.298D-13
          Norm of current diis error: 0.23466E-03
          max. resid. norm for Fia-block=  2.948D-05 for orbital      9a         
          max. resid. fock norm         =  2.988D-05 for orbital      9a         
          Delta Eig. =     0.0014311539 eV 
 
                                              current damping :  0.100
 ITERATION  ENERGY          1e-ENERGY        2e-ENERGY     RMS[dD(SAO)]   TOL
  10  -95.262080175649    -211.55892922     74.203562976    0.107D-05 0.285D-13
          Norm of current diis error: 0.63910E-04
          max. resid. norm for Fia-block=  1.001D-05 for orbital      9a         
          max. resid. fock norm         =  1.019D-05 for orbital      9a         
 mo-orthogonalization: Cholesky decomposition
          Delta Eig. =     0.0001383027 eV 
 
                                              current damping :  0.150
 ITERATION  ENERGY          1e-ENERGY        2e-ENERGY     RMS[dD(SAO)]   TOL
  11  -95.262080175972    -211.55891864     74.203552398    0.305D-06 0.276D-13
          Norm of current diis error: 0.18352E-04
          max. resid. norm for Fia-block=  3.274D-06 for orbital      9a         
          max. resid. fock norm         =  3.335D-06 for orbital      9a         
          Delta Eig. =     0.0000400225 eV 

 DENSITY CONVERGED !

 
                                              current damping :  0.200
 ITERATION  ENERGY          1e-ENERGY        2e-ENERGY     RMS[dD(SAO)]   TOL
  12  -95.262080176002    -211.55892363     74.203557391    0.774D-07 0.298D-13
          Norm of current diis error: 0.63233E-05
          max. resid. norm for Fia-block=  1.060D-06 for orbital      9a         
          max. resid. fock norm         =  1.084D-06 for orbital      9a         
          Delta Eig. =     0.0000193250 eV 

 ENERGY & DENSITY CONVERGED !

 
                                              current damping :  0.250
 ITERATION  ENERGY          1e-ENERGY        2e-ENERGY     RMS[dD(SAO)]   TOL
  13  -95.262080176005    -211.55892184     74.203555604    0.189D-07 0.299D-13
          max. resid. norm for Fia-block=  2.580D-07 for orbital      9a         
          max. resid. fock norm         =  2.644D-07 for orbital      9a         

 convergence criteria satisfied after    13 iterations


                  ------------------------------------------ 
                 |  total energy      =    -95.26208017600  |
                  ------------------------------------------ 
                 :  kinetic energy    =     95.16230053170  :
                 :  potential energy  =   -190.42438070771  :
                 :  virial theorem    =      1.99895257752  :
                 :  wavefunction norm =      1.00000000000  :
                  .......................................... 


 orbitals $scfmo  will be written to file mos

    irrep                  5a          6a          7a          8a          9a   
 eigenvalues H         -0.66305    -0.60383    -0.55489    -0.51651    -0.39402
            eV         -18.0425    -16.4311    -15.0995    -14.0550    -10.7220
 occupation              2.0000      2.0000      2.0000      2.0000      2.0000 

    irrep                 10a         11a         12a         13a         14a   
 eigenvalues H          0.10505     0.13672     0.14643     0.17554     0.19037
            eV           2.8585      3.7204      3.9847      4.7766      5.1802
 
 
 
 
 ==============================================================================
                           electrostatic moments
 ==============================================================================

 reference point for electrostatic moments:    0.00000   0.00000   0.00000

 
              nuc           elec       ->  total
 ------------------------------------------------------------------------------
                          charge      
 ------------------------------------------------------------------------------
          18.000000     -18.000000      -0.000000
 
 ------------------------------------------------------------------------------
                       dipole moment  
 ------------------------------------------------------------------------------
   x     -14.808146      14.799570      -0.008576
   y      12.932683     -13.490673      -0.557989
   z      24.251683     -24.374342      -0.122659
 
   | dipole moment | =     0.5714 a.u. =     1.4523 debye 
 
 ------------------------------------------------------------------------------
                     quadrupole moment
 ------------------------------------------------------------------------------
  xx      23.644450     -33.000546      -9.356096
  yy      23.357594     -36.615896     -13.258303
  zz      70.952770     -80.745044      -9.792274
  xy     -13.780797      14.424146       0.643348
  xz     -13.955157      14.009711       0.054554
  yz       2.394930      -2.613798      -0.218868
 
     1/3  trace=     -10.802224
     anisotropy=       3.887125
 
 ==============================================================================
 


    ------------------------------------------------------------------------
         total  cpu-time :  5 minutes and 18 seconds
         total wall-time :  49.82 seconds
    ------------------------------------------------------------------------

   ****  dscf : all done  ****


    2019-04-02 13:14:57.199 

