           Doing BLAS/Lapack in the master proc. with  8 CPUs.
           SMPCPUS    set: Shared-memory Parallelization with   8 CPUs.

           SMP Parallelization Reference:
           C. van Wullen, J. Comput. Chem. 32 (2011) 1195--1201
 operating system is UNIX !

 ridft (c-18-133.gp.local) : TURBOMOLE V7.2 ( 21454 ) 4 Oct 2017 at 12:48:15
 Copyright (C) 2017 TURBOMOLE GmbH, Karlsruhe


    2018-04-28 21:09:20.551 



                                  r i d f t

                        DFT program with RI approximation 
                                for coulomb part 




                                                 
                                 References:     
                                                 
          TURBOMOLE:                             
              R. Ahlrichs, M. Baer, M. Haeser, H. Horn, and
              C. Koelmel
              Electronic structure calculations on workstation
              computers: the program system TURBOMOLE
              Chem. Phys. Lett. 162: 165 (1989)
          Density Functional:                              
              O. Treutler and R. Ahlrichs                      
              Efficient Molecular Numerical Integration Schemes
              J. Chem. Phys. 102: 346 (1995)                   
          Parallel Version:                                
              Performance of parallel TURBOMOLE for Density    
              Functional Calculations                          
              M. v. Arnim and R. Ahlrichs                      
              J. Comp. Chem. 19: 1746 (1998)                   
          RI-J Method:                                     
              Auxiliary Basis Sets to approximate Coulomb      
              Potentials                                       
              Chem. Phys. Lett. 240: 283 (1995)                
              K. Eichkorn, O. Treutler, H. Oehm, M. Haeser     
              and R. Ahlrichs                                  
              Chem. Phys. Lett. 242: 652 (1995)                
                                                           
              Auxiliary Basis Sets for Main Row Atoms and their
              Use to approximate Coulomb Potentials            
              K. Eichkorn, F. Weigend, O. Treutler and         
              R. Ahlrichs                                      
              Theo. Chem. Acc. 97: 119 (1997)                   
                                                           
              Accurate Coulomb-fitting basis sets for H to Rn 
              F. Weigend                                        
              Phys. Chem. Chem. Phys. 8: 1057 (2006)            
                                                           
          Multipole accelerated RI-J (MARI-J):             
              Fast evaluation of the Coulomb potential for     
              electron densities using multipole accelerated   
              resolution of identity approximation             
              M. Sierka, A. Hogekamp and R. Ahlrichs           
              J. Chem. Phys. 118: 9136 (2003)                  
          RI-JK Method:                                     
              A fully direct RI-HF algorithm: Implementation,
              optimised auxiliary basis sets, demonstration of
              accuracy and efficiency                         
              F. Weigend                                      
              Phys. Chem. Chem. Phys. 4: 4285 (2002)           
          Two-component HF and DFT with spin-orbit coupling:  
              Self-consistent treatment of spin-orbit         
              interactions with efficient Hartree-Fock and    
              density functional methods                      
              M. K. Armbruster, F. Weigend, C. van Wüllen and 
              W. Klopper                                      
              Phys. Chem. Chem. Phys. 10: 1748 (2008)         
          Relativistic all-electron 2c calculations           
              An efficient implementation of two-component    
              relativistic exact-decoupling methods for large 
              molecules                                       
              D. Peng, N. Middendorf, F. Weigend, M. Reiher   
              J. Chem. Phys. 138, 184105 (2013)               
                                         




              +--------------------------------------------------+
              |      general information about current run       |
              +--------------------------------------------------+

 

 DENSITY CONVERGENCE CHECK SWITCHED ON !
 SCF CONVERGENCE IF RMS(delta[D]) <     0.1000000000E-06

 TPSS meta-GGA functional
 exchange:    LDA + TPSS
 correlation: LDA (PW) + TPSS
 A DFT calculation using the RI-J approximation will be carried out.
 Allocatable memory for RI due to $ricore (MB):                  5000


              +--------------------------------------------------+
              | Atomic coordinate, charge and isotop information |
              +--------------------------------------------------+

                    atomic coordinates            atom    charge  isotop
         -1.02245371    0.05589092   -0.39494346    n      7.000     0
          0.10498062   -1.48554792   -0.24621874    h      1.000     0
         -2.77727268   -0.51912374    0.10042644    h      1.000     0
         -0.14890903    1.96983231    1.39548501    c      6.000     0
         -1.36089182    3.62716636    1.26985866    h      1.000     0
         -0.09591908    1.36782711    3.37413347    h      1.000     0
          1.75070035    2.56360964    0.87305194    h      1.000     0
 
       center of nuclear mass  :   -0.59589504    0.96726400    0.53589242
       center of nuclear charge:   -0.57939071    0.98689788    0.60997542

              +--------------------------------------------------+
              |               basis set information              |
              +--------------------------------------------------+

              we will work with the 1s 3p 5d 7f 9g ... basis set
              ...i.e. with spherical basis functions...

   type   atoms  prim   cont   basis
   ---------------------------------------------------------------------------
    n        1     50     30   cc-pVTZ   [4s3p2d1f|18s5p2d1f]
    h        5     16     14   cc-pVTZ   [3s2p1d|5s2p1d]
    c        1     50     30   cc-pVTZ   [4s3p2d1f|18s5p2d1f]
   ---------------------------------------------------------------------------
   total:    7    180    130
   ---------------------------------------------------------------------------

   total number of primitive shells          :   60
   total number of contracted shells         :   50
   total number of cartesian basis functions :  145
   total number of SCF-basis functions       :  130


 integral neglect threshold       :  0.23E-12
 integral storage threshold THIZE :  0.10E-04
 integral storage threshold THIME :         5

 RI-J AUXILIARY BASIS SET information:

              we will work with the 1s 3p 5d 7f 9g ... basis set
              ...i.e. with spherical basis functions...

   type   atoms  prim   cont   basis
   ---------------------------------------------------------------------------
    n        1     70     49   cc-pVTZ   [6s4p3d1f1g|12s5p4d2f1g]
    h        5     16     11   cc-pVTZ   [3s1p1d|5s2p1d]
    c        1     70     49   cc-pVTZ   [6s4p3d1f1g|12s5p4d2f1g]
   ---------------------------------------------------------------------------
   total:    7    220    153
   ---------------------------------------------------------------------------

   total number of primitive shells          :   56
   total number of contracted shells         :   55
   total number of cartesian basis functions :  182
   total number of SCF-basis functions       :  153


 symmetry group of the molecule :   c1 

 the group has the following generators :
   c1(z)

    1 symmetry operations found

 there are 1 real representations :   a   

 maximum number of shells which are related by symmetry :  1


    mo occupation :
   irrep   mo's   occupied
    a      130        9
 
 number of basis functions   :                    130
 number of occupied orbitals :                      9
 
  
           ------------------
           density functional
           ------------------
 TPSS meta-GGA functional
 exchange:    LDA + TPSS
 correlation: LDA (PW) + TPSS

 iterations will be done with small grid
  
 spherical integration : Lebedev's spherical grid
 spherical gridsize    :                     5
    i.e. gridpoints    :                   590
 value for diffuse not defined
 radial integration    : Chebyshev 2nd kind (scaling 3)
 radial gridsize       :                     8
 integration cells     :                     7
 partition function    : becke
 partition sharpness   :                     3
  

 biggest AO integral is expected to be     4.229423036
  
           ------------------------
               RI-J - INFORMATION
           ------------------------
 Contributions to RI integral batches: 
  neglected integral batches:                     0
  direct contribution:                            0
  memory contribution:                  1275
 Memory core needed for (P|Q) and Cholesky      1 MByte
 Memory core minimum needed except of (P|Q)     1 MByte
 Total minimum memory core needed (sum)         1 MByte
  
 ****************************************
 Memory allocated for RI-J    15 MByte
 ****************************************
                                            

          ------------------------
          nuclear repulsion energy  :   42.0937646889    
          ------------------------


         -----------------
         -S,T+V- integrals
         -----------------

 1e-integrals will be neglected if expon. factor < 0.230480E-13
 Difference densities >>NOT<< switched on in parallel ridft!

 DIIS switched on: error vector is FDS-SDF
 Max. Iterations for DIIS is     :   4
 DIIS matrix (see manual) 
    Scaling factor of diagonals  :  1.200
    threshold for scaling factor :  0.000

 scf convergence criterion : increment of total energy < .1000000D-08
                  and increment of one-electron energy < .1000000D-05

  MOs are in ASCII format !


 automatic virtual orbital shift switched on 
      shift if e(lumo)-e(homo) < 0.10000000    


 reading orbital data $scfmo  from file mos
 orbital characterization : expanded
 mo provided and orthogonalized by Cholesky decomposition

 DSCF restart information will be dumped onto file mos


 Starting SCF iterations

          Overall gridpoints after grid construction =         30705

 ITERATION  ENERGY          1e-ENERGY        2e-ENERGY     RMS[dD(SAO)]   TOL
   1  -95.526375398045    -210.16479368     72.544653589    0.000D+00 0.230D-12
                            Exc = -13.9663682408     Coul =  86.5110218294    
                              N = 17.999992651    
                            current damping = 0.700
 
          max. resid. norm for Fia-block=  2.545D-01 for orbital      1a         
          max. resid. fock norm         =  4.539D+00 for orbital    130a         

 ITERATION  ENERGY          1e-ENERGY        2e-ENERGY     RMS[dD(SAO)]   TOL
   2  -95.821282452315    -211.10363262     73.188585475    0.352D-02 0.230D-12
                            Exc = -14.0848952409     Coul =  87.2734807163    
                              N = 17.999993744    
                            current damping = 0.650
 
          Norm of current diis error:  1.2248    
          max. resid. norm for Fia-block=  1.216D-01 for orbital      1a         
          max. resid. fock norm         =  1.540D-01 for orbital    130a         

 ITERATION  ENERGY          1e-ENERGY        2e-ENERGY     RMS[dD(SAO)]   TOL
   3  -95.884707314929    -211.53794140     73.559469392    0.228D-02 0.230D-12
                            Exc = -14.1779326424     Coul =  87.7374020346    
                              N = 17.999994846    
                            current damping = 0.500
 
          Norm of current diis error: 0.57918    
          max. resid. norm for Fia-block=  4.944D-02 for orbital      1a         
          max. resid. fock norm         =  5.166D-02 for orbital      1a         

 ITERATION  ENERGY          1e-ENERGY        2e-ENERGY     RMS[dD(SAO)]   TOL
   4  -95.904264595686    -211.63512908     73.637099793    0.168D-02 0.230D-12
                            Exc = -14.2142162854     Coul =  87.8513160787    
                              N = 17.999995757    
                            current damping = 0.350
 
          Norm of current diis error: 0.20657    
          max. resid. norm for Fia-block=  1.908D-02 for orbital      4a         
          max. resid. fock norm         =  2.280D-02 for orbital      4a         

 ITERATION  ENERGY          1e-ENERGY        2e-ENERGY     RMS[dD(SAO)]   TOL
   5  -95.907208437744    -211.83454503     73.833571908    0.825D-03 0.230D-12
                            Exc = -14.2495639910     Coul =  88.0831358993    
                              N = 17.999996146    
                            current damping = 0.200
 
          Norm of current diis error: 0.75202E-01
          max. resid. norm for Fia-block=  8.669D-03 for orbital      9a         
          max. resid. fock norm         =  8.752D-03 for orbital      9a         
          mo-orthogonalization: Cholesky decomposition

 ITERATION  ENERGY          1e-ENERGY        2e-ENERGY     RMS[dD(SAO)]   TOL
   6  -95.907537381399    -211.72318830     73.721886230    0.448D-03 0.230D-12
                            Exc = -14.2409224681     Coul =  87.9628086982    
                              N = 17.999996291    
                            current damping = 0.250
 
          Norm of current diis error: 0.46677E-01
          max. resid. norm for Fia-block=  2.144D-03 for orbital      5a         
          max. resid. fock norm         =  2.981D-03 for orbital     71a         

 ITERATION  ENERGY          1e-ENERGY        2e-ENERGY     RMS[dD(SAO)]   TOL
   7  -95.907615612276    -211.78651903     73.785138731    0.731D-04 0.230D-12
                            Exc = -14.2484038165     Coul =  88.0335425472    
                              N = 17.999996304    
                            current damping = 0.300
 
          Norm of current diis error: 0.41856E-02
          max. resid. norm for Fia-block=  2.857D-04 for orbital      6a         
          max. resid. fock norm         =  4.488D-04 for orbital     62a         

 ITERATION  ENERGY          1e-ENERGY        2e-ENERGY     RMS[dD(SAO)]   TOL
   8  -95.907616236477    -211.78530055     73.783919627    0.142D-04 0.230D-12
                            Exc = -14.2484862649     Coul =  88.0324058924    
                              N = 17.999996308    
                            current damping = 0.350
 
          Norm of current diis error: 0.20390E-02
          max. resid. norm for Fia-block=  1.114D-04 for orbital      6a         
          max. resid. fock norm         =  1.329D-04 for orbital     57a         

 ITERATION  ENERGY          1e-ENERGY        2e-ENERGY     RMS[dD(SAO)]   TOL
   9  -95.907616404032    -211.78830954     73.786928450    0.427D-05 0.230D-12
                            Exc = -14.2487932268     Coul =  88.0357216767    
                              N = 17.999996310    
                            current damping = 0.400
 
          Norm of current diis error: 0.25900E-03
          max. resid. norm for Fia-block=  2.617D-05 for orbital      9a         
          max. resid. fock norm         =  3.045D-05 for orbital      9a         

 ITERATION  ENERGY          1e-ENERGY        2e-ENERGY     RMS[dD(SAO)]   TOL
  10  -95.907616407669    -211.78804144     73.786660347    0.107D-05 0.230D-12
                            Exc = -14.2487721981     Coul =  88.0354325450    
                              N = 17.999996310    
                            current damping = 0.450
 
          Norm of current diis error: 0.85984E-04
          max. resid. norm for Fia-block=  6.893D-06 for orbital      5a         
          max. resid. fock norm         =  9.877D-06 for orbital    122a         
          mo-orthogonalization: Cholesky decomposition

 ITERATION  ENERGY          1e-ENERGY        2e-ENERGY     RMS[dD(SAO)]   TOL
  11  -95.907616408033    -211.78808864     73.786707547    0.291D-06 0.230D-12
                            Exc = -14.2487789151     Coul =  88.0354864617    
                              N = 17.999996310    
                            current damping = 0.500
 
          Norm of current diis error: 0.24979E-04
          max. resid. norm for Fia-block=  2.573D-06 for orbital      5a         
          max. resid. fock norm         =  3.209D-06 for orbital    124a         

 DENSITY CONVERGED !


 ITERATION  ENERGY          1e-ENERGY        2e-ENERGY     RMS[dD(SAO)]   TOL
  12  -95.907616408069    -211.78810758     73.786726484    0.939D-07 0.230D-12
                            Exc = -14.2487817009     Coul =  88.0355081848    
                              N = 17.999996310    
                            current damping = 0.350
 
          Norm of current diis error: 0.57499E-05
          max. resid. norm for Fia-block=  8.895D-07 for orbital      9a         
          max. resid. fock norm         =  9.136D-07 for orbital     86a         

 ENERGY & DENSITY CONVERGED !

          Overall gridpoints after grid construction =        103949

 ITERATION  ENERGY          1e-ENERGY        2e-ENERGY     RMS[dD(SAO)]   TOL
  13  -95.907581955088    -211.78810288     73.786756233    0.429D-07 0.230D-12
                            Exc = -14.2487468512     Coul =  88.0355030839    
                              N = 17.999999837    
                            current damping = 0.400
 
          Norm of current diis error: 0.44266E-05
          max. resid. norm for Fia-block=  2.643D-07 for orbital      5a         
          max. resid. fock norm         =  3.677D-07 for orbital    124a         

 End of SCF iterations

   convergence criteria satisfied after    13 iterations


                  ------------------------------------------ 
                 |  total energy      =    -95.90758195509  |
                  ------------------------------------------ 
                 :  kinetic energy    =     95.39486509920  :
                 :  potential energy  =   -191.30244705429  :
                 :  virial theorem    =      1.99465405294  :
                 :  wavefunction norm =      1.00000000000  :
                  .......................................... 


 <geterg> : there is no data group $energy 


 <skperg> : $end is missing 


 orbitals $scfmo  will be written to file mos

    irrep                  5a          6a          7a          8a          9a   
 eigenvalues H         -0.44390    -0.39551    -0.35882    -0.32832    -0.19828
            eV         -12.0794    -10.7624     -9.7640     -8.9341     -5.3955
 occupation              2.0000      2.0000      2.0000      2.0000      2.0000 

    irrep                 10a         11a         12a         13a         14a   
 eigenvalues H          0.02611     0.06518     0.08473     0.10635     0.12136
            eV           0.7105      1.7736      2.3056      2.8939      3.3024
 
 
 
 
 ==============================================================================
                           electrostatic moments
 ==============================================================================

 reference point for electrostatic moments:    0.00000   0.00000   0.00000

 
              nuc           elec       ->  total
 ------------------------------------------------------------------------------
                          charge      
 ------------------------------------------------------------------------------
          18.000000     -18.000000      -0.000000
 
 ------------------------------------------------------------------------------
                       dipole moment  
 ------------------------------------------------------------------------------
   x     -10.429033      10.408326      -0.020707
   y      17.764162     -17.993559      -0.229397
   z      10.979558     -10.527358       0.452199
 
   | dipole moment | =     0.5075 a.u. =     1.2899 debye 
 
 ------------------------------------------------------------------------------
                     quadrupole moment
 ------------------------------------------------------------------------------
  xx      20.101368     -29.500556      -9.399189
  yy      47.379026     -57.154118      -9.775092
  zz      26.606379     -38.395788     -11.789409
  xy      -1.453451       1.597244       0.143793
  xz       0.751786      -1.365764      -0.613978
  yz      28.111733     -27.749764       0.361969
 
     1/3  trace=     -10.321230
     anisotropy=       2.557726
 
 ==============================================================================
 


    ------------------------------------------------------------------------
         total  cpu-time :  40.13 seconds
         total wall-time :   3.22 seconds
    ------------------------------------------------------------------------

   ****  ridft : all done  ****


    2018-04-28 21:09:23.756 

