
   OpenMP run-time library returned nthreads = 28
 operating system is UNIX !

 dscf (c-19-414) : TURBOMOLE V7.3 ( 22142 ) 4 Jul 2018 at 18:12:42
 Copyright (C) 2018 TURBOMOLE GmbH, Karlsruhe


    2019-04-02 15:56:36.152 



                             d s c f - program

                   idea & directorship : reinhart ahlrichs
                   program development : marco haeser
                                         michael baer
                           dft version : oliver treutler


                          quantum chemistry group
                          universitaet  karlsruhe
                                  germany




                          References             
                                                 
          TURBOMOLE:                             
              R. Ahlrichs, M. Baer, M. Haeser, H. Horn, and
              C. Koelmel
              Electronic structure calculations on workstation
              computers: the program system TURBOMOLE
              Chem. Phys. Lett. 162: 165 (1989)
          Density Functional:                              
              O. Treutler and R. Ahlrichs                      
              Efficient Molecular Numerical Integration Schemes
              J. Chem. Phys. 102: 346 (1995)                   
          Parallel Version:                                
              Performance of parallel TURBOMOLE for Density    
              Functional Calculations                          
              M. v. Arnim and R. Ahlrichs                      
              J. Comp. Chem. 19: 1746 (1998)                   
                                         




              +--------------------------------------------------+
              | Atomic coordinate, charge and isotop information |
              +--------------------------------------------------+

                    atomic coordinates            atom    charge  isotop
         -1.32564843   -0.54920676    4.54835234    c      6.000     0
         -2.23610529    0.74766593    5.85602360    h      1.000     0
          0.66057564   -0.05729947    4.36117240    h      1.000     0
         -1.50054999   -2.44078057    5.33666085    h      1.000     0
         -2.73735570   -0.46274978    2.06323190    c      6.000     0
         -5.02752190   -0.80970813    1.95463023    o      8.000     0
         -1.26622340    0.01118067    0.01847569    n      7.000     0
          0.61732689    0.23161231    0.26757169    h      1.000     0
         -2.31879709    0.16968557   -2.49437716    c      6.000     0
         -4.33129813   -0.20125807   -2.34491876    h      1.000     0
         -2.03675002    2.04079141   -3.30426842    h      1.000     0
         -1.46761515   -1.22454100   -3.74803129    h      1.000     0
          3.85839541   -4.44406511    1.29710351    c      6.000     0
          4.91328741   -6.16372200    0.90799378    h      1.000     0
          2.10342214   -4.45640398    0.23068302    h      1.000     0
          3.36854263   -4.39975727    3.29443254    h      1.000     0
          5.30901711   -2.07356990    0.66170816    c      6.000     0
          4.27876367    0.00784402    0.55404594    o      8.000     0
          7.81622678   -2.39258168    0.25778303    n      7.000     0
          8.52737097   -4.14482211    0.40283336    h      1.000     0
          9.49286396   -0.30166402   -0.28825056    c      6.000     0
          8.33220857    1.38172250   -0.43909552    h      1.000     0
         10.86747825   -0.03811198    1.21862330    h      1.000     0
         10.48495184   -0.60398567   -2.06297238    h      1.000     0
 
       center of nuclear mass  :    1.81852207   -1.07867425    0.84533953
       center of nuclear charge:    1.89792069   -1.10478787    0.83383172

              +--------------------------------------------------+
              |               basis set information              |
              +--------------------------------------------------+

              we will work with the 1s 3p 5d 7f 9g ... basis set
              ...i.e. with spherical basis functions...

   type   atoms  prim   cont   basis
   ---------------------------------------------------------------------------
    c        6     50     30   cc-pVTZ   [4s3p2d1f|18s5p2d1f]
    h       14     16     14   cc-pVTZ   [3s2p1d|5s2p1d]
    o        2     50     30   cc-pVTZ   [4s3p2d1f|18s5p2d1f]
    n        2     50     30   cc-pVTZ   [4s3p2d1f|18s5p2d1f]
   ---------------------------------------------------------------------------
   total:   24    724    496
   ---------------------------------------------------------------------------

   total number of primitive shells          :   86
   total number of contracted shells         :  184
   total number of cartesian basis functions :  560
   total number of SCF-basis functions       :  496


 integral neglect threshold       :  0.60E-13
 integral storage threshold THIZE :  0.10E-04
 integral storage threshold THIME :         5


 DENSITY CONVERGENCE CHECK SWITCHED ON !
 SCF CONVERGENCE IF RMS(delta[D]) <     0.1000000000E-06


 symmetry group of the molecule :   c1 

 the group has the following generators :
   c1(z)

    1 symmetry operations found

 there are 1 real representations :   a   

 maximum number of shells which are related by symmetry :  1


    mo occupation :
   irrep   mo's   occupied
    a      496       40
 
 number of basis functions   :                    496
 number of occupied orbitals :                     40
 

 automatic virtual orbital shift switched on 
      shift if e(lumo)-e(homo) < 0.10000000    


          ------------------------
          nuclear repulsion energy  :   540.422436869    
          ------------------------


         -----------------
         -S,T+V- integrals
         -----------------

 1e-integrals will be neglected if expon. factor < 0.596779E-14
 
   Difference densities algorithm switched on.
   The maximal number of linear combinations of
   difference densities is                    20 .

 DIIS switched on: error vector is FDS-SDF
 Max. Iterations for DIIS is     :   5
 DIIS matrix (see manual) 
    Scaling factor of diagonals  :  1.200
    threshold for scaling factor :  0.000

 scf convergence criterion : increment of total energy < .1000000D-08
                  and increment of one-electron energy < .1000000D-05

  MOs are in ASCII format !


 reading orbital data $scfmo  from file mos
 orbital characterization : scfconv=9

 DSCF restart information will be dumped onto file mos

 
                                              current damping :  0.700
 ITERATION  ENERGY          1e-ENERGY        2e-ENERGY     RMS[dD(SAO)]   TOL
   1  -494.09227705868    -1747.1411869     712.62647300    0.000D+00 0.595D-13
          max. resid. norm for Fia-block=  1.033D-01 for orbital      2a         
          max. resid. fock norm         =  1.674D-01 for orbital    494a         
          Delta Eig. =    28.7431089567 eV 
 
                                              current damping :  0.650
 ITERATION  ENERGY          1e-ENERGY        2e-ENERGY     RMS[dD(SAO)]   TOL
   2  -494.18235178375    -1745.9555756     711.35078695    0.869D-03 0.379D-13
          Norm of current diis error: 0.60569    
          max. resid. norm for Fia-block=  4.667D-02 for orbital      2a         
          max. resid. fock norm         =  7.377D-02 for orbital    489a         
          Delta Eig. =    11.8514395214 eV 
 
                                              current damping :  0.600
 ITERATION  ENERGY          1e-ENERGY        2e-ENERGY     RMS[dD(SAO)]   TOL
   3  -494.20082250830    -1746.1181887     711.49492931    0.417D-03 0.291D-13
          Norm of current diis error: 0.27368    
          max. resid. norm for Fia-block=  2.270D-02 for orbital      1a         
          max. resid. fock norm         =  2.492D-02 for orbital    493a         
          Delta Eig. =     5.5204876336 eV 
 
                                              current damping :  0.650
 ITERATION  ENERGY          1e-ENERGY        2e-ENERGY     RMS[dD(SAO)]   TOL
   4  -494.20519137074    -1746.1135860     711.48595772    0.221D-03 0.256D-13
          Norm of current diis error: 0.11543    
          max. resid. norm for Fia-block=  7.373D-03 for orbital      1a         
          max. resid. fock norm         =  1.200D-02 for orbital    371a         
          Delta Eig. =     1.6594934483 eV 
 
                                              current damping :  0.500
 ITERATION  ENERGY          1e-ENERGY        2e-ENERGY     RMS[dD(SAO)]   TOL
   5  -494.20598873547    -1746.0797852     711.45135960    0.851D-04 0.237D-13
          Norm of current diis error: 0.50513E-01
          max. resid. norm for Fia-block=  3.482D-03 for orbital     24a         
          max. resid. fock norm         =  3.766D-03 for orbital    489a         
 mo-orthogonalization: Cholesky decomposition
          Delta Eig. =     0.8076341651 eV 
 
                                              current damping :  0.350
 ITERATION  ENERGY          1e-ENERGY        2e-ENERGY     RMS[dD(SAO)]   TOL
   6  -494.20616702603    -1746.0745719     711.44596802    0.445D-04 0.223D-13
          Norm of current diis error: 0.20253E-01
          max. resid. norm for Fia-block=  1.551D-03 for orbital     24a         
          max. resid. fock norm         =  1.566D-03 for orbital     24a         
          Delta Eig. =     0.2823213317 eV 
 
                                              current damping :  0.200
 ITERATION  ENERGY          1e-ENERGY        2e-ENERGY     RMS[dD(SAO)]   TOL
   7  -494.20620166108    -1746.0722420     711.44360348    0.202D-04 0.208D-13
          Norm of current diis error: 0.73635E-02
          max. resid. norm for Fia-block=  6.225D-04 for orbital     24a         
          max. resid. fock norm         =  6.274D-04 for orbital     24a         
          Delta Eig. =     0.0867672389 eV 
 
                                              current damping :  0.050
 ITERATION  ENERGY          1e-ENERGY        2e-ENERGY     RMS[dD(SAO)]   TOL
   8  -494.20620743769    -1746.0715010     711.44285673    0.864D-05 0.196D-13
          Norm of current diis error: 0.24476E-02
          max. resid. norm for Fia-block=  2.251D-04 for orbital     24a         
          max. resid. fock norm         =  2.277D-04 for orbital     24a         
          Delta Eig. =     0.0143231751 eV 
 
                                              current damping :  0.050
 ITERATION  ENERGY          1e-ENERGY        2e-ENERGY     RMS[dD(SAO)]   TOL
   9  -494.20620825011    -1746.0712914     711.44264632    0.337D-05 0.184D-13
          Norm of current diis error: 0.76198E-03
          max. resid. norm for Fia-block=  6.602D-05 for orbital     39a         
          max. resid. fock norm         =  7.559D-05 for orbital     39a         
          Delta Eig. =     0.0044627647 eV 
 
                                              current damping :  0.050
 ITERATION  ENERGY          1e-ENERGY        2e-ENERGY     RMS[dD(SAO)]   TOL
  10  -494.20620832354    -1746.0712746     711.44262940    0.101D-05 0.177D-13
          Norm of current diis error: 0.28254E-03
          max. resid. norm for Fia-block=  3.322D-05 for orbital     40a         
          max. resid. fock norm         =  3.992D-05 for orbital     40a         
 mo-orthogonalization: Cholesky decomposition
          Delta Eig. =     0.0024883144 eV 
 
                                              current damping :  0.050
 ITERATION  ENERGY          1e-ENERGY        2e-ENERGY     RMS[dD(SAO)]   TOL
  11  -494.20620833139    -1746.0712549     711.44260975    0.313D-06 0.173D-13
          Norm of current diis error: 0.15712E-03
          max. resid. norm for Fia-block=  1.053D-05 for orbital     39a         
          max. resid. fock norm         =  1.825D-05 for orbital    490a         
          Delta Eig. =     0.0011222226 eV 
 
                                              current damping :  0.050
 ITERATION  ENERGY          1e-ENERGY        2e-ENERGY     RMS[dD(SAO)]   TOL
  12  -494.20620833311    -1746.0712489     711.44260373    0.131D-06 0.170D-13
          Norm of current diis error: 0.34915E-04
          max. resid. norm for Fia-block=  4.755D-06 for orbital     40a         
          max. resid. fock norm         =  4.863D-06 for orbital     40a         
          Delta Eig. =     0.0000784869 eV 

 DENSITY CONVERGED !

 
                                              current damping :  0.050
 ITERATION  ENERGY          1e-ENERGY        2e-ENERGY     RMS[dD(SAO)]   TOL
  13  -494.20620833332    -1746.0712416     711.44259645    0.521D-07 0.170D-13
          Norm of current diis error: 0.14601E-04
          max. resid. norm for Fia-block=  1.725D-06 for orbital     38a         
          max. resid. fock norm         =  1.763D-06 for orbital     38a         
          Delta Eig. =     0.0000655480 eV 

 ENERGY & DENSITY CONVERGED !

 
                                              current damping :  0.100
 ITERATION  ENERGY          1e-ENERGY        2e-ENERGY     RMS[dD(SAO)]   TOL
  14  -494.20620833335    -1746.0712421     711.44259691    0.214D-07 0.170D-13
          max. resid. norm for Fia-block=  4.372D-07 for orbital     36a         
          max. resid. fock norm         =  5.860D-07 for orbital    489a         

 convergence criteria satisfied after    14 iterations


                  ------------------------------------------ 
                 |  total energy      =   -494.20620833335  |
                  ------------------------------------------ 
                 :  kinetic energy    =    493.58006869490  :
                 :  potential energy  =   -987.78627702825  :
                 :  virial theorem    =      1.99873303972  :
                 :  wavefunction norm =      1.00000000000  :
                  .......................................... 


 orbitals $scfmo  will be written to file mos

    irrep                 36a         37a         38a         39a         40a   
 eigenvalues H         -0.48290    -0.44485    -0.41333    -0.39657    -0.36439
            eV         -13.1406    -12.1051    -11.2475    -10.7914     -9.9156
 occupation              2.0000      2.0000      2.0000      2.0000      2.0000 

    irrep                 41a         42a         43a         44a         45a   
 eigenvalues H          0.11256     0.14094     0.15400     0.15686     0.17708
            eV           3.0628      3.8353      4.1906      4.2684      4.8187
 
 
 
 
 ==============================================================================
                           electrostatic moments
 ==============================================================================

 reference point for electrostatic moments:    0.00000   0.00000   0.00000

 
              nuc           elec       ->  total
 ------------------------------------------------------------------------------
                          charge      
 ------------------------------------------------------------------------------
          80.000000     -80.000000      -0.000000
 
 ------------------------------------------------------------------------------
                       dipole moment  
 ------------------------------------------------------------------------------
   x     151.833655    -148.775687       3.057968
   y     -88.383030      87.315360      -1.067669
   z      66.706538     -66.944936      -0.238398
 
   | dipole moment | =     3.2478 a.u. =     8.2550 debye 
 
 ------------------------------------------------------------------------------
                     quadrupole moment
 ------------------------------------------------------------------------------
  xx    2117.656732   -2158.654572     -40.997839
  yy     302.369319    -343.236306     -40.866987
  zz     363.862463    -408.201011     -44.338548
  xy    -359.127449     349.352062      -9.775387
  xz     -34.617407      38.583261       3.965854
  yz    -115.209084     114.261166      -0.947918
 
     1/3  trace=     -42.067792
     anisotropy=      18.659283
 
 ==============================================================================
 


    ------------------------------------------------------------------------
         total  cpu-time : 21 minutes and 56 seconds
         total wall-time :  1 minutes and  4 seconds
    ------------------------------------------------------------------------

   ****  dscf : all done  ****


    2019-04-02 15:57:39.721 

