 operating system is UNIX !
 hostname is         c-14-41.local

 ridft (c-14-41.local) : TURBOMOLE V7.0.2( ) 8 Jan 2016 at 10:54:38
 Copyright (C) 2016 TURBOMOLE GmbH, Karlsruhe


    2016-06-18 00:42:41.819 



                                  r i d f t

                        DFT program with RI approximation 
                                for coulomb part 




                                                 
                                 References:     
                                                 
          TURBOMOLE:                             
              R. Ahlrichs, M. Baer, M. Haeser, H. Horn, and
              C. Koelmel
              Electronic structure calculations on workstation
              computers: the program system TURBOMOLE
              Chem. Phys. Lett. 162: 165 (1989)
          Density Functional:                              
              O. Treutler and R. Ahlrichs                      
              Efficient Molecular Numerical Integration Schemes
              J. Chem. Phys. 102: 346 (1995)                   
          Parallel Version:                                
              Performance of parallel TURBOMOLE for Density    
              Functional Calculations                          
              M. v. Arnim and R. Ahlrichs                      
              J. Comp. Chem. 19: 1746 (1998)                   
          RI-J Method:                                     
              Auxiliary Basis Sets to approximate Coulomb      
              Potentials                                       
              Chem. Phys. Lett. 240: 283 (1995)                
              K. Eichkorn, O. Treutler, H. Oehm, M. Haeser     
              and R. Ahlrichs                                  
              Chem. Phys. Lett. 242: 652 (1995)                
                                                           
              Auxiliary Basis Sets for Main Row Atoms and their
              Use to approximate Coulomb Potentials            
              K. Eichkorn, F. Weigend, O. Treutler and         
              R. Ahlrichs                                      
              Theo. Chem. Acc. 97: 119 (1997)                   
                                                           
              Accurate Coulomb-fitting basis sets for H to Rn 
              F. Weigend                                        
              Phys. Chem. Chem. Phys. 8: 1057 (2006)            
                                                           
          Multipole accelerated RI-J (MARI-J):             
              Fast evaluation of the Coulomb potential for     
              electron densities using multipole accelerated   
              resolution of identity approximation             
              M. Sierka, A. Hogekamp and R. Ahlrichs           
              J. Chem. Phys. 118: 9136 (2003)                  
          RI-JK Method:                                     
              A fully direct RI-HF algorithm: Implementation,
              optimised auxiliary basis sets, demonstration of
              accuracy and efficiency                         
              F. Weigend                                      
              Phys. Chem. Chem. Phys. 4: 4285 (2002)           
          Two-component HF and DFT with spin-orbit coupling:  
              Self-consistent treatment of spin-orbit         
              interactions with efficient Hartree-Fock and    
              density functional methods                      
              M. K. Armbruster, F. Weigend, C. van Wüllen and 
              W. Klopper                                      
              Phys. Chem. Chem. Phys. 10: 1748 (2008)         
          Relativistic all-electron 2c calculations           
              An efficient implementation of two-component    
              relativistic exact-decoupling methods for large 
              molecules                                       
              D. Peng, N. Middendorf, F. Weigend, M. Reiher   
              J. Chem. Phys. 138, 184105 (2013)               
                                         


 


              +--------------------------------------------------+
              |      general information about current run       |
              +--------------------------------------------------+

 

 DENSITY CONVERGENCE CHECK SWITCHED ON !
 SCF CONVERGENCE IF RMS(delta[D]) <     0.1000000000E-06

 A HF calculation using the RI-JK approximation will be carried out.
 Allocatable memory for RI due to $ricore (MB):       23000


              +--------------------------------------------------+
              | Atomic coordinate, charge and isotop information |
              +--------------------------------------------------+

                    atomic coordinates            atom    charge  isotop
         -1.46652197   -0.15990863    9.49727222    c      0.000     0
          1.49517021   -0.17859802    9.46303038    c      0.000     0
          2.10343526   -2.56929055    8.29797642    n      0.000     0
         -0.02575697   -3.98499778    7.67166449    c      0.000     0
         -2.12694345   -2.49833133    8.25305763    n      0.000     0
         -2.08986703    2.13688341    8.13632925    n      0.000     0
          0.01808468    3.41424379    7.24466197    c      0.000     0
          2.12197347    2.06505492    8.00474762    n      0.000     0
         -0.00054802    5.39703894    6.06078635    o      0.000     0
         -0.05890276   -6.12080405    6.85004936    o      0.000     0
          4.65269471    3.08945656    7.77174439    c      0.000     0
          4.62359293   -3.63190245    8.10119924    c      0.000     0
         -9.08417808   -0.17132257    3.51222609    c      0.000     0
         -7.57789628   -0.15718742    6.06551066    c      0.000     0
         -6.13004481   -2.46361706    5.96499613    n      0.000     0
         -6.61475956   -3.88882961    3.80252582    c      0.000     0
         -8.26025749   -2.47106258    2.30535250    n      0.000     0
         -8.29030413    2.17314726    2.30712884    n      0.000     0
         -6.57052107    3.51260404    3.73294611    c      0.000     0
         -6.13244476    2.18119749    5.92087102    n      0.000     0
         -5.64803236    5.57045911    3.17409740    o      0.000     0
         -5.82026200   -5.98396898    3.34266097    o      0.000     0
         -4.58936999    3.20584480    7.94284019    c      0.000     0
         -4.66269136   -3.49843109    8.03991542    c      0.000     0
          9.11566092   -0.49316183   -3.51591106    c      0.000     0
          7.58197809   -0.37548858   -6.04922122    c      0.000     0
          6.12252370   -2.67912143   -6.02093202    n      0.000     0
          6.48795894   -4.10335132   -3.83580390    c      0.000     0
          8.12931836   -2.73551086   -2.29860618    n      0.000     0
          8.53536382    1.89902359   -2.31175867    n      0.000     0
          6.81815078    3.33984528   -3.66536950    c      0.000     0
          6.15755922    1.95892790   -5.79673491    n      0.000     0
          6.06352645    5.44728676   -3.12781800    o      0.000     0
          5.60048685   -6.16772595   -3.39169936    o      0.000     0
          4.65269471    3.08945656   -7.77174439    c      0.000     0
          4.62359293   -3.63190245   -8.10119924    c      0.000     0
          7.58197809   -0.37548858    6.04922122    c      0.000     0
          9.11566092   -0.49316183    3.51591106    c      0.000     0
          8.12931836   -2.73551086    2.29860618    n      0.000     0
          6.48795894   -4.10335132    3.83580390    c      0.000     0
          6.12252370   -2.67912143    6.02093202    n      0.000     0
          6.15755922    1.95892790    5.79673491    n      0.000     0
          6.81815078    3.33984528    3.66536950    c      0.000     0
          8.53536382    1.89902359    2.31175867    n      0.000     0
          6.06352645    5.44728676    3.12781800    o      0.000     0
          5.60048685   -6.16772595    3.39169936    o      0.000     0
          9.66840581    2.82997827    0.00000000    c      0.000     0
          9.13162911   -3.83119297    0.00000000    c      0.000     0
         -7.57789628   -0.15718742   -6.06551066    c      0.000     0
         -9.08417808   -0.17132257   -3.51222609    c      0.000     0
         -8.26025749   -2.47106258   -2.30535250    n      0.000     0
         -6.61475956   -3.88882961   -3.80252582    c      0.000     0
         -6.13004481   -2.46361706   -5.96499613    n      0.000     0
         -6.13244476    2.18119749   -5.92087102    n      0.000     0
         -6.57052107    3.51260404   -3.73294611    c      0.000     0
         -8.29030413    2.17314726   -2.30712884    n      0.000     0
         -5.64803236    5.57045911   -3.17409740    o      0.000     0
         -5.82026200   -5.98396898   -3.34266097    o      0.000     0
         -9.35011924    3.19163405    0.00000000    c      0.000     0
         -9.31376091   -3.50842774    0.00000000    c      0.000     0
          1.49517021   -0.17859802   -9.46303038    c      0.000     0
         -1.46652197   -0.15990863   -9.49727222    c      0.000     0
         -2.12694345   -2.49833133   -8.25305763    n      0.000     0
         -0.02575697   -3.98499778   -7.67166449    c      0.000     0
          2.10343526   -2.56929055   -8.29797642    n      0.000     0
          2.12197347    2.06505492   -8.00474762    n      0.000     0
          0.01808468    3.41424379   -7.24466197    c      0.000     0
         -2.08986703    2.13688341   -8.13632925    n      0.000     0
         -0.00054802    5.39703894   -6.06078635    o      0.000     0
         -0.05890276   -6.12080405   -6.85004936    o      0.000     0
         -4.58936999    3.20584480   -7.94284019    c      0.000     0
         -4.66269136   -3.49843109   -8.03991542    c      0.000     0
         -2.27540034   -0.09046119   11.40835225    h      0.000     0
          2.34751229   -0.04926516   11.35175496    h      0.000     0
          5.62187855    2.86968141    9.59370494    h      0.000     0
          4.45801513    5.08933483    7.29296337    h      0.000     0
          5.64202303   -3.29632488    9.87648356    h      0.000     0
          4.37509394   -5.65731092    7.77569391    h      0.000     0
        -11.14452759   -0.16293219    3.76225576    h      0.000     0
         -8.79361379   -0.12209521    7.74712125    h      0.000     0
         -4.36324536    5.21976373    7.54975826    h      0.000     0
         -5.58217541    2.92535275    9.74042328    h      0.000     0
         -4.46555513   -5.52281911    7.67215582    h      0.000     0
         -5.68650719   -3.17496667    9.81550210    h      0.000     0
         11.16584370   -0.66185768   -3.79816055    h      0.000     0
          8.78410847   -0.29829327   -7.74084736    h      0.000     0
          5.62187855    2.86968141   -9.59370494    h      0.000     0
          4.45801513    5.08933483   -7.29296337    h      0.000     0
          5.64202303   -3.29632488   -9.87648356    h      0.000     0
          4.37509394   -5.65731092   -7.77569391    h      0.000     0
          8.78410847   -0.29829327    7.74084736    h      0.000     0
         11.16584370   -0.66185768    3.79816055    h      0.000     0
          9.41087394    4.87880044    0.00000000    h      0.000     0
         11.68342079    2.34900517    0.00000000    h      0.000     0
          8.57412210   -5.82166040    0.00000000    h      0.000     0
         11.19993436   -3.65263274    0.00000000    h      0.000     0
         -8.79361379   -0.12209521   -7.74712125    h      0.000     0
        -11.14452759   -0.16293219   -3.76225576    h      0.000     0
        -11.39499189    2.85599980    0.00000000    h      0.000     0
         -8.95318227    5.21726929    0.00000000    h      0.000     0
        -11.36931051   -3.22642391    0.00000000    h      0.000     0
         -8.85580468   -5.52406633    0.00000000    h      0.000     0
          2.34751229   -0.04926516  -11.35175496    h      0.000     0
         -2.27540034   -0.09046119  -11.40835225    h      0.000     0
         -4.36324536    5.21976373   -7.54975826    h      0.000     0
         -5.58217541    2.92535275   -9.74042328    h      0.000     0
         -4.46555513   -5.52281911   -7.67215582    h      0.000     0
         -5.68650719   -3.17496667   -9.81550210    h      0.000     0
         -0.66782922    1.57591821    0.00000000    c      6.000     0
          0.56754145    4.17423495    0.00000000    c      6.000     0
          1.31660999   -0.54063175    0.00000000    c      6.000     0
          0.12929506   -3.17817920    0.00000000    c      6.000     0
         -1.40340511    6.24357955    0.00000000    n      7.000     0
         -2.58212179    6.12095523   -1.56679083    h      1.000     0
         -2.58212179    6.12095523    1.56679083    h      1.000     0
         -1.88439711    1.36939004   -1.66855259    h      1.000     0
         -1.88439711    1.36939004    1.66855259    h      1.000     0
          2.53748646   -0.31331659   -1.66122045    h      1.000     0
          2.53748646   -0.31331659    1.66122045    h      1.000     0
         -0.54907883    7.97687416    0.00000000    h      1.000     0
          1.72360031    4.48401776   -1.67596031    h      1.000     0
          1.72360031    4.48401776    1.67596031    h      1.000     0
          1.57434974   -4.65161757    0.00000000    h      1.000     0
         -1.05558212   -3.46651362    1.67068798    h      1.000     0
         -1.05558212   -3.46651362   -1.67068798    h      1.000     0
 
       center of nuclear mass  :    0.00955333   -0.12564713   -0.00000000
       center of nuclear charge:   -0.07550906    1.75831238    0.00000000

              +--------------------------------------------------+
              |               basis set information              |
              +--------------------------------------------------+

              we will work with the 1s 3p 5d 7f 9g ... basis set
              ...i.e. with spherical basis functions...

   type   atoms  prim   cont   basis
   ---------------------------------------------------------------------------
    c       40     77     57   def2-QZVP   [7s4p3d2f1g|15s8p3d2f1g]
    n       25     77     57   def2-QZVP   [7s4p3d2f1g|15s8p3d2f1g]
    o       12     77     57   def2-QZVP   [7s4p3d2f1g|15s8p3d2f1g]
    h       48     33     30   def2-QZVP   [4s3p2d1f|7s3p2d1f]
   ---------------------------------------------------------------------------
   total:  125   7513   5829
   ---------------------------------------------------------------------------

   total number of primitive shells          :  100
   total number of contracted shells         : 1789
   total number of cartesian basis functions : 7224
   total number of SCF-basis functions       : 5829


 integral neglect threshold       :  0.46E-14
 integral storage threshold THIZE :  0.10E-04
 integral storage threshold THIME :         5

 RI-JK AUXILIARY BASIS SET information:

              we will work with the 1s 3p 5d 7f 9g ... basis set
              ...i.e. with spherical basis functions...

   type   atoms  prim   cont   basis
   ---------------------------------------------------------------------------
    c       40     97     75   def2-QZVP   [10s8p5d1f1g|14s10p6d2f1g]
    n       25     97     77   def2-QZVP   [10s8p4d2f1g|14s10p6d2f1g]
    o       12     97     77   def2-QZVP   [10s8p4d2f1g|14s10p6d2f1g]
    h       48     20     18   def2-QZVP   [2s2p2d|4s2p2d]
   ---------------------------------------------------------------------------
   total:  125   8429   6713
   ---------------------------------------------------------------------------

   total number of primitive shells          :  107
   total number of contracted shells         : 2213
   total number of cartesian basis functions : 7961
   total number of SCF-basis functions       : 6713


 symmetry group of the molecule :   c1 

 the group has the following generators :
   c1(z)

    1 symmetry operations found

 there are 1 real representations :   a   

 maximum number of shells which are related by symmetry :  1


    mo occupation :
   irrep   mo's   occupied
    a     5829       21
 
 number of basis functions   :         5829
 number of occupied orbitals :           21
 

 biggest AO integral is expected to be     6.990327543
  
           ------------------------
               RI-JK - INFORMATION
           ------------------------
 Contributions to RI integral batches: 
  neglected integral batches:     1027516
  direct contribution:             573639
  memory contribution:           0
 Memory core needed for (P|Q) and Cholesky    344 MByte
 Memory core minimum needed except of (P|Q)     2 MByte
 Total minimum memory core needed (sum)       346 MByte
  
 ****************************************
 Memory allocated for RI-J   346 MByte
 ****************************************
                                            
 total memory allocated for calculation of  (Q|P)**(-1/2) :  516 MiB

  forming (P|Q)**(-1/2) 
 eigenvalues of original matrix 
 smallest =0.7937396632576E-08  largest = 134.9155704379    
  The symmetry information takes            1  MB

          ------------------------
          nuclear repulsion energy  :   194.090624652    
          ------------------------

 
          -----------------
          -S,T+V- integrals
          -----------------

 1e-integrals will be neglected if expon. factor < 0.462619E-15
 
   Difference densities algorithm switched on.
   The maximal number of linear combinations of
   difference densities is          20 .

 automatic virtual orbital shift switched on 
      shift if e(lumo)-e(homo) < 0.10000000    


 DIIS switched on: error vector is FDS-SDF
 Max. Iterations for DIIS is     :   5
 DIIS matrix (see manual) 
    Scaling factor of diagonals  :  1.200
    threshold for scaling factor :  0.000

 scf convergence criterion : increment of total energy < .1000000D-08
                  and increment of one-electron energy < .1000000D-05

  MOs are in ASCII format !


 reading orbital data $scfmo  from file mos . 

 orbital characterization : scfconv=9
 

 DSCF restart information will be dumped onto file mos


 Starting SCF iterations

 
 BLOCKING OF MOS FOR RI-K
 
 
 occupied MOs partitioned into blocks of maximum length 21
 this requires 7773 MiB core memory.
 
            MULTIPLE PASS Statistics 
 ----------------------------------------------------
  pass       irrep     lambda      batch : MO  to  MO
 ----------------------------------------------------
   1       1  ->  1    1  -> 21             1  ->  21



 ENERGY & DENSITY CONVERGED !


 ITERATION  ENERGY          1e-ENERGY        2e-ENERGY     RMS[dD(SAO)]   TOL
   1  -212.75310109336    -663.15387795     256.31015220    0.000D+00 0.461D-14
                           RI-K = -31.4030497809     Coul =  287.713201982    
                            current damping = 0.700
 
          max. resid. norm for Fia-block=  9.893D-02 for orbital      1a         
          max. resid. fock norm         =  6.140D-01 for orbital   5680a         

 End of SCF iterations

   convergence criteria satisfied after    1 iterations


                  ------------------------------------------ 
                 |  total energy      =   -212.75310109336  |
                  ------------------------------------------ 
                 :  kinetic energy    =    213.18326397734  :
                 :  potential energy  =   -425.93636507069  :
                 :  virial theorem    =      2.00202188773  :
                 :  wavefunction norm =      1.00000000000  :
                  .......................................... 


 orbitals $scfmo  will be written to file mos

    irrep                 17a         18a         19a         20a         21a   
 eigenvalues H         -0.68222    -0.66124    -0.61470    -0.60703    -0.60289
            eV         -18.5642    -17.9933    -16.7271    -16.5181    -16.4055
 occupation              2.0000      2.0000      2.0000      2.0000      2.0000 

    irrep                 22a         23a         24a         25a         26a   
 eigenvalues H         -0.08063    -0.02923    -0.02882    -0.02592     0.01369
            eV          -2.1940     -0.7955     -0.7843     -0.7052      0.3725
 
 
 
 
 ==============================================================================
                           electrostatic moments
 ==============================================================================

 reference point for electrostatic moments:    0.00000   0.00000   0.00000

 
              nuc           elec       ->  total
 ------------------------------------------------------------------------------
                          charge      
 ------------------------------------------------------------------------------
          43.000000     -42.000000       1.000000
 
 ------------------------------------------------------------------------------
                       dipole moment  
 ------------------------------------------------------------------------------
   x      -3.246890       2.289176      -0.957714
   y      75.607432     -70.557514       5.049918
   z       0.000000      -0.000000      -0.000000
 
   | dipole moment | =     5.1399 a.u. =    13.0644 debye 
 
 ------------------------------------------------------------------------------
                     quadrupole moment
 ------------------------------------------------------------------------------
  xx      73.160945     -93.294217     -20.133273
  yy     683.074478    -671.197785      11.876693
  zz      27.197192     -48.980491     -21.783299
  xy     -87.461245      80.190950      -7.270295
  xz       0.000000      -0.000000      -0.000000
  yz       0.000000       0.000000       0.000000
 
     1/3  trace=     -10.013293
     anisotropy=      35.195871
 
 ==============================================================================
 
 


    ------------------------------------------------------------------------
         total  cpu-time :  4 hours 45 minutes and 19 seconds
         total wall-time :  4 hours 45 minutes and 29 seconds
    ------------------------------------------------------------------------


   ****  ridft : all done  ****


    2016-06-18 05:28:10.364 

