 operating system is UNIX !

 ridft (c-12-253.gp.local) : TURBOMOLE V7.2 ( 21454 ) 4 Oct 2017 at 12:48:15
 Copyright (C) 2017 TURBOMOLE GmbH, Karlsruhe


    2018-04-28 11:07:54.473 



                                  r i d f t

                        DFT program with RI approximation 
                                for coulomb part 




                                                 
                                 References:     
                                                 
          TURBOMOLE:                             
              R. Ahlrichs, M. Baer, M. Haeser, H. Horn, and
              C. Koelmel
              Electronic structure calculations on workstation
              computers: the program system TURBOMOLE
              Chem. Phys. Lett. 162: 165 (1989)
          Density Functional:                              
              O. Treutler and R. Ahlrichs                      
              Efficient Molecular Numerical Integration Schemes
              J. Chem. Phys. 102: 346 (1995)                   
          Parallel Version:                                
              Performance of parallel TURBOMOLE for Density    
              Functional Calculations                          
              M. v. Arnim and R. Ahlrichs                      
              J. Comp. Chem. 19: 1746 (1998)                   
          RI-J Method:                                     
              Auxiliary Basis Sets to approximate Coulomb      
              Potentials                                       
              Chem. Phys. Lett. 240: 283 (1995)                
              K. Eichkorn, O. Treutler, H. Oehm, M. Haeser     
              and R. Ahlrichs                                  
              Chem. Phys. Lett. 242: 652 (1995)                
                                                           
              Auxiliary Basis Sets for Main Row Atoms and their
              Use to approximate Coulomb Potentials            
              K. Eichkorn, F. Weigend, O. Treutler and         
              R. Ahlrichs                                      
              Theo. Chem. Acc. 97: 119 (1997)                   
                                                           
              Accurate Coulomb-fitting basis sets for H to Rn 
              F. Weigend                                        
              Phys. Chem. Chem. Phys. 8: 1057 (2006)            
                                                           
          Multipole accelerated RI-J (MARI-J):             
              Fast evaluation of the Coulomb potential for     
              electron densities using multipole accelerated   
              resolution of identity approximation             
              M. Sierka, A. Hogekamp and R. Ahlrichs           
              J. Chem. Phys. 118: 9136 (2003)                  
          RI-JK Method:                                     
              A fully direct RI-HF algorithm: Implementation,
              optimised auxiliary basis sets, demonstration of
              accuracy and efficiency                         
              F. Weigend                                      
              Phys. Chem. Chem. Phys. 4: 4285 (2002)           
          Two-component HF and DFT with spin-orbit coupling:  
              Self-consistent treatment of spin-orbit         
              interactions with efficient Hartree-Fock and    
              density functional methods                      
              M. K. Armbruster, F. Weigend, C. van Wüllen and 
              W. Klopper                                      
              Phys. Chem. Chem. Phys. 10: 1748 (2008)         
          Relativistic all-electron 2c calculations           
              An efficient implementation of two-component    
              relativistic exact-decoupling methods for large 
              molecules                                       
              D. Peng, N. Middendorf, F. Weigend, M. Reiher   
              J. Chem. Phys. 138, 184105 (2013)               
                                         




              +--------------------------------------------------+
              |      general information about current run       |
              +--------------------------------------------------+

 

 DENSITY CONVERGENCE CHECK SWITCHED ON !
 SCF CONVERGENCE IF RMS(delta[D]) <     0.1000000000E-06

 A HF calculation using the RI-JK approximation will be carried out.
 Allocatable memory for RI due to $ricore (MB):                   500


              +--------------------------------------------------+
              | Atomic coordinate, charge and isotop information |
              +--------------------------------------------------+

                    atomic coordinates            atom    charge  isotop
          1.61677549    0.67752813    1.98374806    c      6.000     0
          2.86071562    1.70581715    3.23665834    h      1.000     0
          2.53770780   -1.27628071    0.47461869    c      6.000     0
          4.52189513   -1.76376591    0.53283295    h      1.000     0
          0.90292364   -2.60158804   -1.11081081    c      6.000     0
          1.61776430   -4.11753849   -2.28056738    h      1.000     0
         -1.65318879   -1.97014559   -1.19138121    c      6.000     0
         -2.92039359   -2.99653899   -2.42341529    h      1.000     0
         -2.57455777   -0.01325437    0.31340436    c      6.000     0
         -4.55720878    0.47898365    0.24713621    h      1.000     0
         -0.94192273    1.30987680    1.90293907    c      6.000     0
         -1.63671240    2.81633424    3.09544125    h      1.000     0
          0.15482408    0.94019681    9.07962122    c      6.000     0
          0.62062144    2.91198665    7.96989980    o      8.000     0
         -0.41974196   -1.24244923    7.84909327    n      7.000     0
         -0.37212027   -1.25570628    5.94682577    h      1.000     0
         -0.71411685   -2.85909542    8.78583375    h      1.000     0
          0.19799430    0.76087724   11.93011714    c      6.000     0
          2.14765083    0.92001539   12.56331484    h      1.000     0
         -0.59928854   -0.99022425   12.65015131    h      1.000     0
         -0.84034344    2.35551566   12.69880200    h      1.000     0
 
       center of nuclear mass  :    0.04697117   -0.01940445    4.18268453
       center of nuclear charge:    0.04024265   -0.05600261    4.24391087

              +--------------------------------------------------+
              |               basis set information              |
              +--------------------------------------------------+

              we will work with the 1s 3p 5d 7f 9g ... basis set
              ...i.e. with spherical basis functions...

   type   atoms  prim   cont   basis
   ---------------------------------------------------------------------------
    c        8     77     57   def2-QZVP   [7s4p3d2f1g|15s8p3d2f1g]
    h       11     33     30   def2-QZVP   [4s3p2d1f|7s3p2d1f]
    o        1     77     57   def2-QZVP   [7s4p3d2f1g|15s8p3d2f1g]
    n        1     77     57   def2-QZVP   [7s4p3d2f1g|15s8p3d2f1g]
   ---------------------------------------------------------------------------
   total:   21   1133    900
   ---------------------------------------------------------------------------

   total number of primitive shells          :  100
   total number of contracted shells         :  280
   total number of cartesian basis functions : 1105
   total number of SCF-basis functions       :  900


 integral neglect threshold       :  0.30E-13
 integral storage threshold THIZE :  0.10E-04
 integral storage threshold THIME :         5

 RI-JK AUXILIARY BASIS SET information:

              we will work with the 1s 3p 5d 7f 9g ... basis set
              ...i.e. with spherical basis functions...

   type   atoms  prim   cont   basis
   ---------------------------------------------------------------------------
    c        8     97     75   def2-QZVP   [10s8p5d1f1g|14s10p6d2f1g]
    h       11     20     18   def2-QZVP   [2s2p2d|4s2p2d]
    o        1     97     77   def2-QZVP   [10s8p4d2f1g|14s10p6d2f1g]
    n        1     97     77   def2-QZVP   [10s8p4d2f1g|14s10p6d2f1g]
   ---------------------------------------------------------------------------
   total:   21   1190    952
   ---------------------------------------------------------------------------

   total number of primitive shells          :  107
   total number of contracted shells         :  316
   total number of cartesian basis functions : 1118
   total number of SCF-basis functions       :  952


 symmetry group of the molecule :   c1 

 the group has the following generators :
   c1(z)

    1 symmetry operations found

 there are 1 real representations :   a   

 maximum number of shells which are related by symmetry :  1


    mo occupation :
   irrep   mo's   occupied
    a      900       37
 
 number of basis functions   :                    900
 number of occupied orbitals :                     37
 

 biggest AO integral is expected to be     6.990327543
  
           ------------------------
               RI-JK - INFORMATION
           ------------------------
 Contributions to RI integral batches: 
  neglected integral batches:                 11934
  direct contribution:                        27406
  memory contribution:                     0
 Memory core needed for (P|Q) and Cholesky      7 MByte
 Memory core minimum needed except of (P|Q)     1 MByte
 Total minimum memory core needed (sum)         8 MByte
  
 ****************************************
 Memory allocated for RI-J     8 MByte
 ****************************************
                                            
 total memory allocated for calculation of  (Q|P)**(-1/2) :   11 MiB

  forming (P|Q)**(-1/2) 
 eigenvalues of original matrix 
 smallest =0.2379528065776E-07  largest = 38.09307786386    
  The symmetry information takes                      1  MB

          ------------------------
          nuclear repulsion energy  :   475.548332746    
          ------------------------


         -----------------
         -S,T+V- integrals
         -----------------

 1e-integrals will be neglected if expon. factor < 0.302440E-14
 
   Difference densities algorithm switched on.
   The maximal number of linear combinations of
   difference densities is                    20 .

 DIIS switched on: error vector is FDS-SDF
 Max. Iterations for DIIS is     :   5
 DIIS matrix (see manual) 
    Scaling factor of diagonals  :  1.200
    threshold for scaling factor :  0.000

 scf convergence criterion : increment of total energy < .1000000D-08
                  and increment of one-electron energy < .1000000D-05

  MOs are in ASCII format !


 automatic virtual orbital shift switched on 
      shift if e(lumo)-e(homo) < 0.10000000    


 reading orbital data $scfmo  from file mos
 orbital characterization : scfconv=9

 DSCF restart information will be dumped onto file mos


 Starting SCF iterations

 
 BLOCKING OF MOS FOR RI-K
 
 
 occupied MOs partitioned into blocks of maximum length 37
 this requires 298 MiB core memory.
 
            MULTIPLE PASS Statistics 
 ----------------------------------------------------
  pass       irrep     lambda      batch : MO  to  MO
 ----------------------------------------------------
   1       1  ->  1    1  -> 37             1  ->  37



 ENERGY & DENSITY CONVERGED !


 ITERATION  ENERGY          1e-ENERGY        2e-ENERGY     RMS[dD(SAO)]   TOL
   1  -438.80127743906    -1540.0335806     625.68397041    0.000D+00 0.302D-13
                           RI-K = -60.2698055551     Coul =  685.953775962    
                            current damping = 0.700
 
          max. resid. norm for Fia-block=  1.171D-01 for orbital      1a         
          max. resid. fock norm         =  6.806D-01 for orbital    890a         

 End of SCF iterations

   convergence criteria satisfied after     1 iterations


                  ------------------------------------------ 
                 |  total energy      =   -438.80127743906  |
                  ------------------------------------------ 
                 :  kinetic energy    =    439.88334505775  :
                 :  potential energy  =   -878.68462249681  :
                 :  virial theorem    =      2.00246596278  :
                 :  wavefunction norm =      1.00000000000  :
                  .......................................... 


 orbitals $scfmo  will be written to file mos

    irrep                 33a         34a         35a         36a         37a   
 eigenvalues H         -0.47291    -0.39862    -0.33467    -0.33370    -0.41365
            eV         -12.8685    -10.8471     -9.1070     -9.0805    -11.2562
 occupation              2.0000      2.0000      2.0000      2.0000      2.0000 

    irrep                 38a         39a         40a         41a         42a   
 eigenvalues H          0.13777     0.13793     0.19102     0.10737     0.12839
            eV           3.7491      3.7532      5.1979      2.9218      3.4936
 
 
 
 
 ==============================================================================
                           electrostatic moments
 ==============================================================================

 reference point for electrostatic moments:    0.00000   0.00000   0.00000

 
              nuc           elec       ->  total
 ------------------------------------------------------------------------------
                          charge      
 ------------------------------------------------------------------------------
          74.000000     -74.000000       0.000000
 
 ------------------------------------------------------------------------------
                       dipole moment  
 ------------------------------------------------------------------------------
   x       2.977956      -3.230115      -0.252159
   y      -4.144193       2.852648      -1.291545
   z     314.049404    -313.662809       0.386595
 
   | dipole moment | =     1.3715 a.u. =     3.4861 debye 
 
 ------------------------------------------------------------------------------
                     quadrupole moment
 ------------------------------------------------------------------------------
  xx     194.950683    -237.699052     -42.748369
  yy     231.384125    -277.959779     -46.575654
  zz    2974.369852   -3010.438526     -36.068674
  xy       0.575790      -1.629088      -1.053298
  xz      64.895329     -66.141046      -1.245717
  yz     300.294998    -308.049970      -7.754972
 
     1/3  trace=     -41.797566
     anisotropy=      16.529793
 
 ==============================================================================
 


    ------------------------------------------------------------------------
         total  cpu-time :  1 minutes and  0 seconds
         total wall-time :  1 minutes and  3 seconds
    ------------------------------------------------------------------------

   ****  ridft : all done  ****


    2018-04-28 11:08:57.398 

