Using Slurm to start processes with PMI2
STARTING ridft ON 8 PROCESSORS!
RUNNING PROGRAM /modfac/apps/TURBOMOLE/7.0_intel_GA/bin/em64t-unknown-linux-gnu_mpi/ridft_mpi.
PLEASE WAIT UNTIL ridft HAS FINISHED.
Look for the output in slave1.output.
  this is node-proc. number 1 running on node c-6-29.local
  the total number of node-proc. spawned is            8
  parallel platform: MPP, or cluster with fast interconnect

 ridft (c-6-29.local) : TURBOMOLE V7.0.2( ) 15 Jan 2016 at 17:47:42
 Copyright (C) 2016 TURBOMOLE GmbH, Karlsruhe


    2016-01-31 09:16:43.065 



                                  r i d f t

                        DFT program with RI approximation 
                                for coulomb part 




                                                 
                                 References:     
                                                 
          TURBOMOLE:                             
              R. Ahlrichs, M. Baer, M. Haeser, H. Horn, and
              C. Koelmel
              Electronic structure calculations on workstation
              computers: the program system TURBOMOLE
              Chem. Phys. Lett. 162: 165 (1989)
          Density Functional:                              
              O. Treutler and R. Ahlrichs                      
              Efficient Molecular Numerical Integration Schemes
              J. Chem. Phys. 102: 346 (1995)                   
          Parallel Version:                                
              Performance of parallel TURBOMOLE for Density    
              Functional Calculations                          
              M. v. Arnim and R. Ahlrichs                      
              J. Comp. Chem. 19: 1746 (1998)                   
          RI-J Method:                                     
              Auxiliary Basis Sets to approximate Coulomb      
              Potentials                                       
              Chem. Phys. Lett. 240: 283 (1995)                
              K. Eichkorn, O. Treutler, H. Oehm, M. Haeser     
              and R. Ahlrichs                                  
              Chem. Phys. Lett. 242: 652 (1995)                
                                                           
              Auxiliary Basis Sets for Main Row Atoms and their
              Use to approximate Coulomb Potentials            
              K. Eichkorn, F. Weigend, O. Treutler and         
              R. Ahlrichs                                      
              Theo. Chem. Acc. 97: 119 (1997)                   
                                                           
              Accurate Coulomb-fitting basis sets for H to Rn 
              F. Weigend                                        
              Phys. Chem. Chem. Phys. 8: 1057 (2006)            
                                                           
          Multipole accelerated RI-J (MARI-J):             
              Fast evaluation of the Coulomb potential for     
              electron densities using multipole accelerated   
              resolution of identity approximation             
              M. Sierka, A. Hogekamp and R. Ahlrichs           
              J. Chem. Phys. 118: 9136 (2003)                  
          RI-JK Method:                                     
              A fully direct RI-HF algorithm: Implementation,
              optimised auxiliary basis sets, demonstration of
              accuracy and efficiency                         
              F. Weigend                                      
              Phys. Chem. Chem. Phys. 4: 4285 (2002)           
          Two-component HF and DFT with spin-orbit coupling:  
              Self-consistent treatment of spin-orbit         
              interactions with efficient Hartree-Fock and    
              density functional methods                      
              M. K. Armbruster, F. Weigend, C. van Wüllen and 
              W. Klopper                                      
              Phys. Chem. Chem. Phys. 10: 1748 (2008)         
          Relativistic all-electron 2c calculations           
              An efficient implementation of two-component    
              relativistic exact-decoupling methods for large 
              molecules                                       
              D. Peng, N. Middendorf, F. Weigend, M. Reiher   
              J. Chem. Phys. 138, 184105 (2013)               
                                         


 


              +--------------------------------------------------+
              |      general information about current run       |
              +--------------------------------------------------+

 

 SCF run will be profiled !


 DENSITY CONVERGENCE CHECK SWITCHED ON !
 SCF CONVERGENCE IF RMS(delta[D]) <     0.1000000000E-06

 PBE functional
 exchange:    LDA + PBE
 correlation: LDA (PW) + PBE
 A DFT calculation using the RI-J approximation will be carried out.
 Allocatable memory for RI due to $ricore (MB):        8000


              +--------------------------------------------------+
              | Atomic coordinate, charge and isotop information |
              +--------------------------------------------------+

                    atomic coordinates            atom    charge  isotop
         -1.45507023   -0.18116804   -9.52270793    c      6.000     0
          1.50694321   -0.19354575   -9.48385516    c      6.000     0
          2.12405217    2.03944913   -8.00569248    n      7.000     0
          0.01645951    3.36017873   -7.21206420    c      6.000     0
         -2.08591750    2.09778498   -8.13413717    n      7.000     0
         -2.11122093   -2.53465187   -8.30614004    n      7.000     0
         -0.00725655   -4.02169626   -7.73304279    c      6.000     0
          2.12063177   -2.59098460   -8.33444814    n      7.000     0
         -0.03645282   -6.16685667   -6.93790273    o      8.000     0
         -0.00895730    5.31224693   -5.97635338    o      8.000     0
          4.64216894   -3.65890664   -8.16070672    c      6.000     0
          4.65250574    3.05453442   -7.73168219    c      6.000     0
         -9.05653139   -0.26688602   -3.51065762    c      6.000     0
         -7.56616108   -0.22542543   -6.07306957    c      6.000     0
         -6.12363864    2.11449016   -5.91062871    n      7.000     0
         -9.37086843    3.09775246    0.00000000    c      6.000     0
         -8.30425031    2.09292838   -2.31070042    n      7.000     0
         -8.17098683   -2.54512095   -2.30450212    n      7.000     0
         -6.52184173   -3.94132621   -3.81932549    c      6.000     0
         -6.11014599   -2.52684730   -6.00348985    n      7.000     0
         -5.67367595   -6.01403452   -3.35445286    o      8.000     0
         -5.63975536    5.48396634   -3.13932644    o      8.000     0
         -4.64532478   -3.53892792   -8.09163723    c      6.000     0
         -4.58761254    3.15924415   -7.92668303    c      6.000     0
          9.10583434   -0.57311614    3.51303868    c      6.000     0
          7.58458591   -0.42533956    6.04999601    c      6.000     0
          6.13149990    1.88976393    5.75576565    n      7.000     0
          6.82701360    3.27045453    3.63360320    c      6.000     0
          8.57312055    1.83190051    2.31408303    n      7.000     0
          8.06121263   -2.79176801    2.29739675    n      7.000     0
          6.45233760   -4.16066672    3.87110398    c      6.000     0
          6.15124754   -2.74246505    6.07186014    n      7.000     0
          5.54266123   -6.21721787    3.44175821    o      8.000     0
          6.07316405    5.37345516    3.07906307    o      8.000     0
          4.64216894   -3.65890664    8.16070672    c      6.000     0
          4.65250574    3.05453442    7.73168219    c      6.000     0
          7.58458591   -0.42533956   -6.04999601    c      6.000     0
          9.10583434   -0.57311614   -3.51303868    c      6.000     0
          8.57312055    1.83190051   -2.31408303    n      7.000     0
          6.82701360    3.27045453   -3.63360320    c      6.000     0
          6.13149990    1.88976393   -5.75576565    n      7.000     0
          6.15124754   -2.74246505   -6.07186014    n      7.000     0
          6.45233760   -4.16066672   -3.87110398    c      6.000     0
          8.06121263   -2.79176801   -2.29739675    n      7.000     0
          5.54266123   -6.21721787   -3.44175821    o      8.000     0
          6.07316405    5.37345516   -3.07906307    o      8.000     0
          9.04266080   -3.90976778    0.00000000    c      6.000     0
          9.71687729    2.74495949    0.00000000    c      6.000     0
         -7.56616108   -0.22542543    6.07306957    c      6.000     0
         -9.05653139   -0.26688602    3.51065762    c      6.000     0
         -8.30425031    2.09292838    2.31070042    n      7.000     0
         -6.57074784    3.43610792    3.71760153    c      6.000     0
         -6.12363864    2.11449016    5.91062871    n      7.000     0
         -6.11014599   -2.52684730    6.00348985    n      7.000     0
         -6.52184173   -3.94132621    3.81932549    c      6.000     0
         -8.17098683   -2.54512095    2.30450212    n      7.000     0
         -5.67367595   -6.01403452    3.35445286    o      8.000     0
         -5.63975536    5.48396634    3.13932644    o      8.000     0
         -9.20056631   -3.60705255    0.00000000    c      6.000     0
         -6.57074784    3.43610792   -3.71760153    c      6.000     0
          1.50694321   -0.19354575    9.48385516    c      6.000     0
         -1.45507023   -0.18116804    9.52270793    c      6.000     0
         -2.08591750    2.09778498    8.13413717    n      7.000     0
          0.01645951    3.36017873    7.21206420    c      6.000     0
          2.12405217    2.03944913    8.00569248    n      7.000     0
          2.12063177   -2.59098460    8.33444814    n      7.000     0
         -0.00725655   -4.02169626    7.73304279    c      6.000     0
         -2.11122093   -2.53465187    8.30614004    n      7.000     0
         -0.03645282   -6.16685667    6.93790273    o      8.000     0
         -0.00895730    5.31224693    5.97635338    o      8.000     0
         -4.64532478   -3.53892792    8.09163723    c      6.000     0
         -4.58761254    3.15924415    7.92668303    c      6.000     0
         -2.26134078   -0.09000766  -11.43386356    h      1.000     0
          2.36251671   -0.04667624  -11.36963176    h      1.000     0
          5.65623377   -3.29653275   -9.93270291    h      1.000     0
          4.39138338   -5.68873706   -7.86687320    h      1.000     0
          5.63960418    2.85915564   -9.54699091    h      1.000     0
          4.45818520    5.04774196   -7.22533007    h      1.000     0
        -11.11797694   -0.30458606   -3.74736472    h      1.000     0
         -8.79102487   -0.17697285   -7.74736692    h      1.000     0
         -4.44148002   -5.56620722   -7.74468351    h      1.000     0
         -5.67764437   -3.20047797   -9.85896580    h      1.000     0
          5.63960418    2.85915564    9.54699091    h      1.000     0
         -5.58166518    2.89152665   -9.72543775    h      1.000     0
         11.15295577   -0.78688196    3.78716235    h      1.000     0
          8.79329254   -0.30078771    7.73402545    h      1.000     0
          5.65623377   -3.29653275    9.93270291    h      1.000     0
          4.39138338   -5.68873706    7.86687320    h      1.000     0
         -4.36645789    5.17032849   -7.51661246    h      1.000     0
          4.45818520    5.04774196    7.22533007    h      1.000     0
          8.79329254   -0.30078771   -7.73402545    h      1.000     0
         11.15295577   -0.78688196   -3.78716235    h      1.000     0
          8.44329636   -5.88825435    0.00000000    h      1.000     0
         11.11502896   -3.77504920    0.00000000    h      1.000     0
          9.49052589    4.79718317    0.00000000    h      1.000     0
         11.72369085    2.23367519    0.00000000    h      1.000     0
         -8.79102487   -0.17697285    7.74736692    h      1.000     0
        -11.11797694   -0.30458606    3.74736472    h      1.000     0
        -11.26238981   -3.37189503    0.00000000    h      1.000     0
         -8.69678423   -5.61186301    0.00000000    h      1.000     0
        -11.41194273    2.74206821    0.00000000    h      1.000     0
         -8.99305549    5.12697818    0.00000000    h      1.000     0
          2.36251671   -0.04667624   11.36963176    h      1.000     0
         -2.26134078   -0.09000766   11.43386356    h      1.000     0
         -4.44148002   -5.56620722    7.74468351    h      1.000     0
         -5.67764437   -3.20047797    9.85896580    h      1.000     0
         -4.36645789    5.17032849    7.51661246    h      1.000     0
         -5.58166518    2.89152665    9.72543775    h      1.000     0
          0.49539171    3.67413783    0.00000000    c      6.000     0
         -0.92366034    1.16805862    0.00000000    c      6.000     0
          0.92859252   -1.05941826    0.00000000    c      6.000     0
         -1.30209689    5.89433927    0.00000000    n      7.000     0
         -2.48357257    5.87192712    1.56883174    h      1.000     0
         -2.48357257    5.87192712   -1.56883174    h      1.000     0
         -0.30101448    7.54809530    0.00000000    h      1.000     0
         -2.14965796    1.05488292    1.66764552    h      1.000     0
         -2.14965796    1.05488292   -1.66764552    h      1.000     0
          1.67225645    3.89810817   -1.67535560    h      1.000     0
          1.67225645    3.89810817    1.67535560    h      1.000     0
         -0.07237651   -2.86559961    0.00000000    h      1.000     0
          2.14381871   -1.00455951   -1.67325800    h      1.000     0
          2.14381871   -1.00455951    1.67325800    h      1.000     0
 
       center of nuclear mass  :    0.01258556   -0.16108642    0.00000000
       center of nuclear charge:    0.01101189   -0.14217775    0.00000000

              +--------------------------------------------------+
              |               basis set information              |
              +--------------------------------------------------+

              we will work with the 1s 3p 5d 7f 9g ... basis set
              ...i.e. with spherical basis functions...

   type   atoms  prim   cont   basis
   ---------------------------------------------------------------------------
    c       39     77     55   cc-pVQZ   [5s4p3d2f1g|21s6p3d2f1g]
    n       25     77     55   cc-pVQZ   [5s4p3d2f1g|21s6p3d2f1g]
    o       12     77     55   cc-pVQZ   [5s4p3d2f1g|21s6p3d2f1g]
    h       46     32     30   cc-pVQZ   [4s3p2d1f|6s3p2d1f]
   ---------------------------------------------------------------------------
   total:  122   7324   5560
   ---------------------------------------------------------------------------

   total number of primitive shells          :  111
   total number of contracted shells         : 1600
   total number of cartesian basis functions : 6930
   total number of SCF-basis functions       : 5560


 integral neglect threshold       :  0.48E-14
 integral storage threshold THIZE :  0.10E-04
 integral storage threshold THIME :         5

 RI-J AUXILIARY BASIS SET information:

              we will work with the 1s 3p 5d 7f 9g ... basis set
              ...i.e. with spherical basis functions...

   type   atoms  prim   cont   basis
   ---------------------------------------------------------------------------
    c       39     70     49   cc-pVQZ   [6s4p3d1f1g|12s5p4d2f1g]
    n       25     70     49   cc-pVQZ   [6s4p3d1f1g|12s5p4d2f1g]
    o       12     70     49   cc-pVQZ   [6s4p3d1f1g|12s5p4d2f1g]
    h       46     16     11   cc-pVQZ   [3s1p1d|5s2p1d]
   ---------------------------------------------------------------------------
   total:  122   6056   4230
   ---------------------------------------------------------------------------

   total number of primitive shells          :   80
   total number of contracted shells         : 1370
   total number of cartesian basis functions : 5188
   total number of SCF-basis functions       : 4230


 symmetry group of the molecule :   c1 

 the group has the following generators :
   c1(z)

    1 symmetry operations found

 there are 1 real representations :   a   

 maximum number of shells which are related by symmetry :  1


    mo occupation :
   irrep   mo's   occupied
    a     5560      275
 
 number of basis functions   :         5560
 number of occupied orbitals :          275
 
  
           ------------------
           density functional
           ------------------
 PBE functional
 exchange:    LDA + PBE
 correlation: LDA (PW) + PBE
 grinp -> nfun, dfgga, dfhybrid 
           6 T F
 iterations will be done with small grid
  
 spherical integration : Lebedev's spherical grid
 spherical gridsize    :           5
    i.e. gridpoints    :         590
 value for diffuse not defined
 radial integration    : Chebyshev 2nd kind (scaling 3)
 radial gridsize       :           8
 integration cells     :         122
 partition function    : becke
 partition sharpness   :           3
  

 <rddim> : input of entry tasksize
           from data group '$pardft' failed !

               Default values taken

 <rddim> : input of entry memdiv
           from data group '$pardft' failed !

               Default values taken
  RIDFT: memory allocation for DFT gridpoints
  MEMORY is divided by 1 as DEFAULT
 Each node can hold at most  the            1 -th part
 of the gridpoints    

 biggest AO integral is expected to be     4.785886462
  
           ------------------------
               RI-J - INFORMATION
           ------------------------
 
 
 **************************************************
 *      MEMORY ALLOCATION FOR PARALLEL RI-DFT     *
 **************************************************
 
 
MEMORY FOR (MU NU/ ALPHA), SEQUENTIAL RUN               7849 MByte
 
            DIFFERENCE IN MEMORY NEED:       DIAG./SLAVE  
 
      TOTAL DIFFERENCE :                   1406 MByte
 
      difference in xcore:                  152 MByte
      difference in fatmat:                 417 MByte
      getcor calls skipped by slaves:       839 MByte
 
 
           Integral memory available for diagonal.      7849 MByte
 
           Integral memory available for slave             0 MByte
 
         MEMORY FOR (MU NU/ ALPHA) ON DIAGONALIZER      7849 MByte
 
         MEMORY FOR (MU NU/ ALPHA) ON ONE SLAVE            0 MByte
 
         TOTAL MEMORY FOR (MU NU/ ALPHA),ALL NODES      7849 MByte
 
 Contributions to RI integral batches: 
  neglected integral batches:      838541
  direct contribution:             380080
  memory contribution:       62179
 Memory core needed for (P|Q) and Cholesky    137 MByte
 Memory core minimum needed except of (P|Q)    17 MByte
 Total minimum memory core needed (sum)       153 MByte
     number of direct tasks:         160
  
 ****************************************
 Memory allocated for RI-J  8002 MByte
 ****************************************
                                            

          ------------------------
          nuclear repulsion energy  :   15491.7895460    
          ------------------------

 
          -----------------
          -S integrals
          -----------------

 1e-integrals will be neglected if expon. factor < 0.482246E-15
 
          -----------------
          -T+V integrals
          -----------------

 1e-integrals will be neglected if expon. factor < 0.482246E-15
 Difference densities >>NOT<< switched on in parallel ridft!

 automatic virtual orbital shift switched on 
      shift if e(lumo)-e(homo) < 0.10000000    


 DIIS switched on: error vector is FDS-SDF
 Max. Iterations for DIIS is     :   4
 DIIS matrix (see manual) 
    Scaling factor of diagonals  :  1.200
    threshold for scaling factor :  0.000

 scf convergence criterion : increment of total energy < .1000000D-08
                  and increment of one-electron energy < .1000000D-05


 <geterg> : there is no data group $energy 

  MOs are in ASCII format !


 reading orbital data $scfmo  from file mos . 

 orbital characterization : expanded
 
 mo provided and orthogonalized by Cholesky decomposition

 DSCF restart information will be dumped onto file mos


 Starting SCF iterations


 ITERATION  ENERGY          1e-ENERGY        2e-ENERGY     RMS[dD(SAO)]   TOL
   1  -3767.2554954475    -35894.263598     16635.218556    0.000D+00 0.481D-14
                            Exc = -497.895228349     Coul =  17133.1137848    
                              N = 550.00066151    
                            current damping = 0.700
 
          max. resid. norm for Fia-block=  4.419D-01 for orbital    198a         
          max. resid. fock norm         =  8.387D+00 for orbital   5081a         

 ITERATION  ENERGY          1e-ENERGY        2e-ENERGY     RMS[dD(SAO)]   TOL
   2  -3780.3546734136    -35975.682400     16703.538181    0.271D-02 0.481D-14
                            Exc = -499.057481365     Coul =  17202.5956619    
                              N = 550.00049863    
                            current damping = 0.650
 
          Norm of current diis error:  9.6664    
          max. resid. norm for Fia-block=  1.689D-01 for orbital      7a         
          max. resid. fock norm         =  3.698D-01 for orbital   5197a         

 ITERATION  ENERGY          1e-ENERGY        2e-ENERGY     RMS[dD(SAO)]   TOL
   3  -3782.1414206369    -35997.274955     16723.343989    0.116D-02 0.481D-14
                            Exc = -501.413650736     Coul =  17224.7576396    
                              N = 550.00044379    
                            current damping = 0.550
 
          Norm of current diis error:  4.7487    
          max. resid. norm for Fia-block=  6.654D-02 for orbital      7a         
          max. resid. fock norm         =  7.524D-02 for orbital   2902a         

 ITERATION  ENERGY          1e-ENERGY        2e-ENERGY     RMS[dD(SAO)]   TOL
   4  -3782.6861295557    -36009.180039     16734.704363    0.595D-03 0.481D-14
                            Exc = -500.945265327     Coul =  17235.6496288    
                              N = 550.00037639    
                            current damping = 0.450
 
          Norm of current diis error:  2.2259    
          max. resid. norm for Fia-block=  3.502D-02 for orbital     94a         
          max. resid. fock norm         =  8.314D-02 for orbital   5124a         

 ITERATION  ENERGY          1e-ENERGY        2e-ENERGY     RMS[dD(SAO)]   TOL
   5  -3782.7650557823    -36005.948395     16731.393794    0.293D-03 0.481D-14
                            Exc = -501.665434710     Coul =  17233.0592282    
                              N = 550.00035064    
                            current damping = 0.500
 
          Norm of current diis error:  1.5903    
          max. resid. norm for Fia-block=  1.354D-02 for orbital    252a         
          max. resid. fock norm         =  1.685D-02 for orbital    254a         
          mo-orthogonalization: Cholesky decomposition

 ITERATION  ENERGY          1e-ENERGY        2e-ENERGY     RMS[dD(SAO)]   TOL
   6  -3782.8306486784    -36012.457724     16737.837530    0.132D-03 0.481D-14
                            Exc = -501.712369632     Coul =  17239.5498994    
                              N = 550.00035114    
                            current damping = 0.550
 
          Norm of current diis error: 0.32421    
          max. resid. norm for Fia-block=  4.171D-03 for orbital    240a         
          max. resid. fock norm         =  5.879D-03 for orbital    217a         

 ITERATION  ENERGY          1e-ENERGY        2e-ENERGY     RMS[dD(SAO)]   TOL
   7  -3782.8330318106    -36011.334104     16736.711526    0.540D-04 0.481D-14
                            Exc = -501.595335009     Coul =  17238.3068611    
                              N = 550.00033798    
                            current damping = 0.600
 
          Norm of current diis error: 0.14089    
          max. resid. norm for Fia-block=  1.692D-03 for orbital    195a         
          max. resid. fock norm         =  3.813D-03 for orbital   5482a         

 ITERATION  ENERGY          1e-ENERGY        2e-ENERGY     RMS[dD(SAO)]   TOL
   8  -3782.8334447162    -36011.564266     16736.941275    0.164D-04 0.481D-14
                            Exc = -501.611264811     Coul =  17238.5525401    
                              N = 550.00033797    
                            current damping = 0.650
 
          Norm of current diis error: 0.54647E-01
          max. resid. norm for Fia-block=  1.138D-03 for orbital    242a         
          max. resid. fock norm         =  2.676D-03 for orbital   5380a         

 ITERATION  ENERGY          1e-ENERGY        2e-ENERGY     RMS[dD(SAO)]   TOL
   9  -3782.8334673343    -36011.726224     16737.103211    0.616D-05 0.481D-14
                            Exc = -501.637619843     Coul =  17238.7408304    
                              N = 550.00033781    
                            current damping = 0.500
 
          Norm of current diis error: 0.47971E-01
          max. resid. norm for Fia-block=  5.255D-04 for orbital    263a         
          max. resid. fock norm         =  8.978D-04 for orbital   5557a         

 ITERATION  ENERGY          1e-ENERGY        2e-ENERGY     RMS[dD(SAO)]   TOL
  10  -3782.8335244451    -36011.824526     16737.201456    0.344D-05 0.481D-14
                            Exc = -501.636826478     Coul =  17238.8382825    
                              N = 550.00033774    
                            current damping = 0.350
 
          Norm of current diis error: 0.12269E-01
          max. resid. norm for Fia-block=  2.094D-04 for orbital    242a         
          max. resid. fock norm         =  3.804D-04 for orbital   5273a         
          mo-orthogonalization: Cholesky decomposition

 ITERATION  ENERGY          1e-ENERGY        2e-ENERGY     RMS[dD(SAO)]   TOL
  11  -3782.8335255786    -36011.697643     16737.074571    0.193D-05 0.481D-14
                            Exc = -501.632116499     Coul =  17238.7066878    
                              N = 550.00033751    
                            current damping = 0.400
 
          Norm of current diis error: 0.10696E-01
          max. resid. norm for Fia-block=  1.246D-04 for orbital    244a         
          max. resid. fock norm         =  1.729D-04 for orbital   5240a         

 ITERATION  ENERGY          1e-ENERGY        2e-ENERGY     RMS[dD(SAO)]   TOL
  12  -3782.8335280766    -36011.731377     16737.108303    0.762D-06 0.481D-14
                            Exc = -501.630638610     Coul =  17238.7389416    
                              N = 550.00033740    
                            current damping = 0.450
 
          Norm of current diis error: 0.31942E-02
          max. resid. norm for Fia-block=  3.799D-05 for orbital    244a         
          max. resid. fock norm         =  7.001D-05 for orbital   4967a         

 ITERATION  ENERGY          1e-ENERGY        2e-ENERGY     RMS[dD(SAO)]   TOL
  13  -3782.8335283113    -36011.742676     16737.119601    0.213D-06 0.481D-14
                            Exc = -501.632272268     Coul =  17238.7518737    
                              N = 550.00033741    
                            current damping = 0.300
 
          Norm of current diis error: 0.97955E-03
          max. resid. norm for Fia-block=  1.173D-05 for orbital    246a         
          max. resid. fock norm         =  2.208D-05 for orbital   5557a         

 ITERATION  ENERGY          1e-ENERGY        2e-ENERGY     RMS[dD(SAO)]   TOL
  14  -3782.8335283251    -36011.742644     16737.119569    0.100D-06 0.481D-14
                            Exc = -501.632226849     Coul =  17238.7517963    
                              N = 550.00033744    
                            current damping = 0.350
 
          Norm of current diis error: 0.63293E-03
          max. resid. norm for Fia-block=  7.850D-06 for orbital    256a         
          max. resid. fock norm         =  1.914D-05 for orbital   5551a         

 DENSITY CONVERGED !


 ITERATION  ENERGY          1e-ENERGY        2e-ENERGY     RMS[dD(SAO)]   TOL
  15  -3782.8335283335    -36011.742995     16737.119921    0.416D-07 0.481D-14
                            Exc = -501.632291410     Coul =  17238.7522120    
                              N = 550.00033742    
                            current damping = 0.400
 
          Norm of current diis error: 0.28980E-03
          max. resid. norm for Fia-block=  3.835D-06 for orbital    256a         
          max. resid. fock norm         =  7.643D-06 for orbital   5438a         
          mo-orthogonalization: Cholesky decomposition

 DENSITY CONVERGED !


 ITERATION  ENERGY          1e-ENERGY        2e-ENERGY     RMS[dD(SAO)]   TOL
  16  -3782.8335283346    -36011.743614     16737.120540    0.199D-07 0.481D-14
                            Exc = -501.632256709     Coul =  17238.7527965    
                              N = 550.00033742    
                            current damping = 0.250
 
          Norm of current diis error: 0.99226E-04
          max. resid. norm for Fia-block=  1.254D-06 for orbital    258a         
          max. resid. fock norm         =  2.065D-06 for orbital   5221a         

 DENSITY CONVERGED !


 ITERATION  ENERGY          1e-ENERGY        2e-ENERGY     RMS[dD(SAO)]   TOL
  17  -3782.8335283349    -36011.742553     16737.119479    0.919D-08 0.481D-14
                            Exc = -501.632232008     Coul =  17238.7517110    
                              N = 550.00033742    
                            current damping = 0.300
 
          Norm of current diis error: 0.75748E-04
          max. resid. norm for Fia-block=  8.433D-07 for orbital    263a         
          max. resid. fock norm         =  1.486D-06 for orbital   5557a         

 DENSITY CONVERGED !


 ITERATION  ENERGY          1e-ENERGY        2e-ENERGY     RMS[dD(SAO)]   TOL
  18  -3782.8335283346    -36011.742912     16737.119837    0.407D-08 0.481D-14
                            Exc = -501.632238826     Coul =  17238.7520760    
                              N = 550.00033742    
                            current damping = 0.350
 
          Norm of current diis error: 0.22018E-04
          max. resid. norm for Fia-block=  2.223D-07 for orbital    263a         
          max. resid. fock norm         =  6.587D-07 for orbital   5557a         

 DENSITY CONVERGED !


 ITERATION  ENERGY          1e-ENERGY        2e-ENERGY     RMS[dD(SAO)]   TOL
  19  -3782.8335283348    -36011.743020     16737.119946    0.139D-08 0.481D-14
                            Exc = -501.632245603     Coul =  17238.7521916    
                              N = 550.00033742    
                            current damping = 0.200
 
          Norm of current diis error: 0.70897E-05
          max. resid. norm for Fia-block=  8.166D-08 for orbital    215a         
          max. resid. fock norm         =  1.986D-07 for orbital   5553a         

 ENERGY & DENSITY CONVERGED !


 ITERATION  ENERGY          1e-ENERGY        2e-ENERGY     RMS[dD(SAO)]   TOL
  20  -3782.8335161929    -36011.743009     16737.119947    0.575D-09 0.481D-14
                            Exc = -501.632232132     Coul =  17238.7521791    
                              N = 550.00016933    
                            current damping = 0.250
 
          Norm of current diis error: 0.48876E-05
          max. resid. norm for Fia-block=  2.969D-08 for orbital    264a         
          max. resid. fock norm         =  8.038D-08 for orbital   5539a         

 End of SCF iterations

   convergence criteria satisfied after   20 iterations


                  ------------------------------------------ 
                 |  total energy      =  -3782.83351619293  |
                  ------------------------------------------ 
                 :  kinetic energy    =   3766.91287229378  :
                 :  potential energy  =  -7549.74638848671  :
                 :  virial theorem    =      1.99579134428  :
                 :  wavefunction norm =      1.00000000000  :
                  .......................................... 


 <geterg> : there is no data group $energy 


 <skperg> : $end is missing 


 orbitals $scfmo  will be written to file mos

    irrep                271a        272a        273a        274a        275a   
 eigenvalues H         -0.29813    -0.29779    -0.29597    -0.29326    -0.28631
            eV          -8.1127     -8.1035     -8.0537     -7.9802     -7.7909
 occupation              2.0000      2.0000      2.0000      2.0000      2.0000 

    irrep                276a        277a        278a        279a        280a   
 eigenvalues H         -0.11704    -0.10813    -0.10456    -0.10015    -0.09466
            eV          -3.1847     -2.9423     -2.8451     -2.7253     -2.5760
 
 
 ! grave: sending quit signal to master process
 
 
 
 
 ==============================================================================
                           electrostatic moments
 ==============================================================================

 reference point for electrostatic moments:    0.00000   0.00000   0.00000

 
              nuc           elec       ->  total
 ------------------------------------------------------------------------------
                          charge      
 ------------------------------------------------------------------------------
         551.000000    -550.000000       1.000000
 
 ------------------------------------------------------------------------------
                       dipole moment  
 ------------------------------------------------------------------------------
   x       6.067552      -7.195566      -1.128014
   y     -78.339939      81.052214       2.712275
   z      -0.000000      -0.000000      -0.000000
 
   | dipole moment | =     2.9375 a.u. =     7.4664 debye 
 
 ------------------------------------------------------------------------------
                     quadrupole moment
 ------------------------------------------------------------------------------
  xx   19048.945525  -19254.021823    -205.076298
  yy    6906.476023   -7277.070124    -370.594101
  zz   18539.002229  -18746.028167    -207.025938
  xy    -276.540838     269.866696      -6.674142
  xz       0.000000       0.000000       0.000000
  yz       0.000000       0.000000       0.000000
 
     1/3  trace=    -260.898779
     anisotropy=     164.957196
 
 ==============================================================================
 

    ridft profiling
  --------------------------------------------------------------------
             module   cpu total (s)       %  wall total (s)       %

               RIDFT         13941.2  100.00         13961.3  100.00
         Ridft_b_scf           551.7    3.96           551.3    3.95
        b_scf_prelim             0.0    0.00             0.0    0.00
        b_scf_molinp             0.0    0.00             0.0    0.00
         b_scf_init0             0.0    0.00             0.0    0.00
        b_scf_auxbas             0.0    0.00             0.0    0.00
      b_scf_symmetry             0.0    0.00             0.0    0.00
         b_scf_cosmo             0.0    0.00             0.0    0.00
        b_scf_params            37.8    0.27            37.8    0.27
          b_scf_ri-j           113.3    0.81           113.2    0.81
    b_scf_ri-j_auxpq           113.1    0.81           113.0    0.81
     ri-j_auxpq_chol            11.0    0.08            11.0    0.08
         b_scf_1elec            21.0    0.15            21.0    0.15
       b_scf_moinput           379.6    2.72           379.3    2.72
     moinput_orthmos           377.8    2.71           377.5    2.70
    b_scf_dft-dstmax             0.0    0.00             0.0    0.00
           Ridft_scf         13383.8   96.00         13404.4   96.01
          Scf_b_loop             0.0    0.00             0.0    0.00
                noga             0.0    0.00             0.0    0.00
            Scf_loop         13363.3   95.85         13382.4   95.85
     scf_loop_mkdmat            80.7    0.58            80.7    0.58
       scf_loop_ri-j          3273.9   23.48          3271.8   23.44
      parlp1.bc.dens             5.2    0.04             5.2    0.04
        parlp1.gs.gp             2.3    0.02             2.3    0.02
        parlp2.bc.gq             0.0    0.00             0.0    0.00
        scf_loop_dft          5537.7   39.72          5533.9   39.64
      pardft.bc.dens             0.0    0.00             0.0    0.00
        dft_grid_con             9.5    0.07             9.5    0.07
           dft_xcrhf          5442.5   39.04          5438.6   38.96
          dft_getval           122.7    0.88           122.7    0.88
          funct2 dst             1.6    0.01             1.6    0.01
      funct2 f2loop1            21.4    0.15            21.5    0.15
      funct2 f2loop2            55.4    0.40            55.2    0.40
          funct2 s+c            42.9    0.31            43.1    0.31
        funct2 cmf_2            39.1    0.28            39.2    0.28
          dft_mkdens          2170.1   15.57          2168.4   15.53
         dft_gga-fun             0.9    0.01             0.9    0.01
          dft_mkfock          3147.7   22.58          3145.6   22.53
     pardft.red.fock           404.3    2.90           404.1    2.89
     scf_loop_energy             0.4    0.00             0.7    0.00
     scf_loop_mkfock             0.7    0.00             0.7    0.00
       scf_loop_diis          2543.5   18.24          2542.5   18.21
       scf_loop_diag          1211.8    8.69          1211.0    8.67
         diag_tritrn           440.8    3.16           440.5    3.15
          diag_rdiag           769.3    5.52           768.8    5.51
     scf_loop_modump           358.4    2.57           385.3    2.76
      scf_loop_ortho           341.9    2.45           341.7    2.45
          Scf_a_loop            20.5    0.15            22.0    0.16
         Ridft_a_scf             5.6    0.04             5.6    0.04
         a_scf_fanal             5.6    0.04             5.6    0.04
 


    ------------------------------------------------------------------------
         total  cpu-time :  3 hours 52 minutes and 46 seconds
         total wall-time :  3 hours 53 minutes and  6 seconds
    ------------------------------------------------------------------------


   ****  ridft : all done  ****


    2016-01-31 13:09:49.283 

