
   OpenMP run-time library returned nthreads =  8

 ricc2 (c-15-33.local) : TURBOMOLE V7.2 ( 21471 ) 11 Oct 2017 at 17:04:51
 Copyright (C) 2017 TURBOMOLE GmbH, Karlsruhe


    2018-04-03 18:43:45.104 



                              R I C C 2 - PROGRAM

                          the quantum chemistry groups
                             at the universities in
                           Karlsruhe, Bochum & Mainz
                                   Germany



   *-----------------------------------------------------------------------*
   |                     program will use  8 thread(s)                     |
   *-----------------------------------------------------------------------*


              +--------------------------------------------------+
              | Atomic coordinate, charge and isotop information |
              +--------------------------------------------------+

                    atomic coordinates            atom    charge  isotop
          0.17531650    2.82970293    3.32049930    c      6.000     0
          0.05606496    2.73083908    0.42240682    c      6.000     0
         -2.31188598    1.32020499   -0.49232390    c      6.000     0
         -2.26205669   -1.37279213    0.59991601    c      6.000     0
         -2.21417076   -1.26429958    3.49644773    c      6.000     0
          0.16310496    0.13303533    4.37338005    c      6.000     0
         -2.40003786    1.20834243   -3.38764760    c      6.000     0
         -0.03994704   -0.14216302   -4.37685777    c      6.000     0
          0.06863374   -2.83857696   -3.32852105    c      6.000     0
          0.08442047   -2.74111399   -0.42744024    c      6.000     0
          2.44892733   -1.32545399    0.50046013    c      6.000     0
          2.39919189    1.35655760   -0.61480319    c      6.000     0
          2.32680764    1.28695834   -3.51740980    c      6.000     0
          2.51103112   -1.25637749    3.40368698    c      6.000     0
         -0.14363725   -0.23280331   -7.35385471    n      7.000     0
          1.76591359   -2.06254630   -8.41542740    c      6.000     0
          0.19760846    0.22838963    7.35182906    n      7.000     0
          2.12567917    2.09026026    8.32066282    c      6.000     0
         -2.33576933    1.00895917    8.40537896    c      6.000     0
          0.83511146   -2.31311555    8.47340247    c      6.000     0
         -2.71107642   -1.05181922   -8.28905044    c      6.000     0
          0.40018359    2.32054320   -8.49836746    c      6.000     0
          0.11287303   -4.68449177    0.29230504    h      1.000     0
          4.14083232   -2.31880431   -0.16438877    h      1.000     0
          4.10208574    2.38055282   -0.02889287    h      1.000     0
          0.01658154    4.67403345   -0.29785577    h      1.000     0
         -4.01046209    2.30146444    0.17999548    h      1.000     0
         -3.97325103   -2.38326652    0.00791739    h      1.000     0
         -1.41308536    3.92353517    4.06394336    h      1.000     0
          1.91721395    3.79027938    3.87202836    h      1.000     0
          4.23027659   -0.30381134    4.04485360    h      1.000     0
          2.55463471   -3.19488575    4.11180657    h      1.000     0
         -2.25350995   -3.17721201    4.27483807    h      1.000     0
         -3.90957195   -0.28703947    4.14990066    h      1.000     0
         -4.10335176    0.19349043   -3.95813238    h      1.000     0
         -2.51864086    3.11830122   -4.16566558    h      1.000     0
          2.30647615    3.22540660   -4.22645233    h      1.000     0
          4.02902681    0.36169437   -4.23836521    h      1.000     0
         -1.53522507   -3.95847591   -3.99667202    h      1.000     0
          1.79851917   -3.76996685   -3.96236041    h      1.000     0
         -2.05803586    1.28351998   10.43361725    h      1.000     0
         -2.94572316    2.75117723    7.49347450    h      1.000     0
         -3.69919998   -0.49162675    8.06596960    h      1.000     0
          1.52524150    3.99622132    7.83166526    h      1.000     0
          2.18263779    1.85267967   10.37163085    h      1.000     0
          3.95240941    1.68273357    7.46848422    h      1.000     0
          0.57706045   -2.12901359   10.51441509    h      1.000     0
         -0.42518373   -3.73712724    7.68888569    h      1.000     0
          2.79167469   -2.76842364    8.03283435    h      1.000     0
          1.21875653   -3.97818706   -7.90181803    h      1.000     0
          1.72316826   -1.82232404  -10.46638593    h      1.000     0
          3.62388365   -1.62702314   -7.64893154    h      1.000     0
          0.04651718    2.13619118  -10.52495514    h      1.000     0
         -0.84275792    3.72361837   -7.65022046    h      1.000     0
          2.36852147    2.80506823   -8.15194979    h      1.000     0
         -2.52451204   -1.32030231  -10.32844612    h      1.000     0
         -3.25111776   -2.80380628   -7.35196229    h      1.000     0
         -4.08036242    0.42679650   -7.88324977    h      1.000     0
          0.27961244    0.46483227   14.85968186    cl    17.000     0
         -0.41359587   -0.45547799  -14.85632093    cl    17.000     0
 
       center of nuclear mass  :    0.02858328   -0.00227851   -0.00089866
       center of nuclear charge:    0.03081929   -0.00244131   -0.00095504

              +--------------------------------------------------+
              |               basis set information              |
              +--------------------------------------------------+

              we will work with the 1s 3p 5d 7f 9g ... basis set
              ...i.e. with spherical basis functions...

   type   atoms  prim   cont   basis
   ---------------------------------------------------------------------------
    c       20     77     55   cc-pVQZ   [5s4p3d2f1g|21s6p3d2f1g]
    n        2     77     55   cc-pVQZ   [5s4p3d2f1g|21s6p3d2f1g]
    h       36     32     30   cc-pVQZ   [4s3p2d1f|6s3p2d1f]
    cl       2    137     59   cc-pVQZ   [6s5p3d2f1g|42s19p3d2f1g]
   ---------------------------------------------------------------------------
   total:   60   3120   2408
   ---------------------------------------------------------------------------

   total number of primitive shells          :  145
   total number of contracted shells         :  724
   total number of cartesian basis functions : 2948
   total number of SCF-basis functions       : 2408


 symmetry group of the molecule :   c1 

 the group has the following generators :
   c1(z)

    1 symmetry operations found

 there are 1 real representations :   a   


   =========================================================================


     restricted closed shell calculation for the wavefunction models:
               MP2        - Second Order Moeller Plesset PT


     global parameters for ricc2 program:

        hard restart (reuse of interm.) :  disabled
        soft restart (reuse of vectors) :  disabled
        threshold for vector function   :    0.100000E-05
        convergence threshold energy    :    0.100000E-06
        linear dependence threshold     :    0.100000E-13
        global print level              :      1
        maximum number of iterations    :   300
        maximum number DIIS vectors     :    10
        max. dim. of reduced space      :   100
        core memory limit (MB)          : 15258


     MP2 energy only: Energy will be calculated directly from T2 amplitudes!

     Scratch Directory : 


   =========================================================================

    der. integral neglect threshold  :  0.10E-07
    integral neglect threshold       :  0.11E-11
    integral storage threshold THIZE :  0.10E-04
    integral storage threshold THIME :         5


                  +------------------------------------------+
                  |     Auxiliary basis set information      |
                  +------------------------------------------+

              we will work with the 1s 3p 5d 7f 9g ... basis set
              ...i.e. with spherical basis functions...

   type   atoms  prim   cont   basis
   ---------------------------------------------------------------------------
    c       20    132    132   cc-pVQZ   [8s7p6d5f3g1h|8s7p6d5f3g1h]
    n        2    132    132   cc-pVQZ   [8s7p6d5f3g1h|8s7p6d5f3g1h]
    h       36     55     55   cc-pVQZ   [5s4p3d2f1g|5s4p3d2f1g]
    cl       2    158    158   cc-pVQZ   [11s9p8d6f3g1h|11s9p8d6f3g1h]
   ---------------------------------------------------------------------------
   total:   60   5200   5200
   ---------------------------------------------------------------------------

   total number of primitive shells          :  113
   total number of contracted shells         : 1276
   total number of cartesian basis functions : 6926
   total number of SCF-basis functions       : 5200


 maximum number of shells which are related by symmetry :  1


 The symmetry information takes   1 MB

*---------------------------------------------------------------------*
|               simplified C1 algorithm will be applied               |
*---------------------------------------------------------------------*
  MOs are in ASCII format !


 reading orbital data $scfmo  from file mos
 orbital characterization : scfconv=7



              +--------------------------------------------+
              | list of orbitals that will be kept frozen: |
              +--------------------------------------------+
              |   irrep   index      energy     occ/vir    |
              +--------------------------------------------+
              |   a         1     -104.6514     occupied   |
              |   a         2     -104.6514     occupied   |
              |   a         3      -15.7313     occupied   |
              |   a         4      -15.7312     occupied   |
              |   a         5      -11.3593     occupied   |
              |   a         6      -11.3593     occupied   |
              |   a         7      -11.3108     occupied   |
              |   a         8      -11.3107     occupied   |
              |   a         9      -11.3105     occupied   |
              |   a        10      -11.3105     occupied   |
              |   a        11      -11.3105     occupied   |
              |   a        12      -11.3105     occupied   |
              |   a        13      -11.2979     occupied   |
              |   a        14      -11.2976     occupied   |
              |   a        15      -11.2974     occupied   |
              |   a        16      -11.2971     occupied   |
              |   a        17      -11.2970     occupied   |
              |   a        18      -11.2966     occupied   |
              |   a        19      -11.2965     occupied   |
              |   a        20      -11.2964     occupied   |
              |   a        21      -11.2962     occupied   |
              |   a        22      -11.2962     occupied   |
              |   a        23      -11.2956     occupied   |
              |   a        24      -11.2955     occupied   |
              |   a        25      -10.3765     occupied   |
              |   a        26      -10.3765     occupied   |
              |   a        27       -7.8429     occupied   |
              |   a        28       -7.8429     occupied   |
              |   a        29       -7.8428     occupied   |
              |   a        30       -7.8428     occupied   |
              |   a        31       -7.8428     occupied   |
              |   a        32       -7.8428     occupied   |
              +--------------------------------------------+



   Molecular Orbital Statistic:
   ============================

   -----------------------------
   orbitals in total:
   -----------------------------
    frozen occupied :     32
    active occupied :     70
    active virtual  :   2306
    frozen virtual  :      0
    all together    :   2408
   -----------------------------


     time in riccmos       cpu: 13.51 sec    wall:  7.38 sec    ratio:  1.8

     total memory allocated for calculation of (Q|P)**(-1/2) : 310 MiB


     calculation of (P|Q) ...
     time in lp2sym        cpu:  7.13 sec    wall:  0.94 sec    ratio:  7.6


     calculation of the Cholesky decomposition of (P|Q)**(-1) ...
     time in invmetri      cpu: 40.92 sec    wall:  6.32 sec    ratio:  6.5

   threshold for RMS(d[D]) in SCF was     :  0.10E-06
   integral neglect threshold             :  0.11E-11
   derivative integral neglect threshold  :  0.10E-07


   =========================================================================

     Energy of reference wave function is -1806.5502732330001
     Maximum orbital residual is           0.7440284597867E-05


     Number of symmetry-nonredundant auxiliary basis functions:     5200

     Block lengths for integral files:
        frozen occupied (BOI):        2 MiB
        active occupied (BJI):        3 MiB
        active virtual  (BAI):       92 MiB
        frozen virtual  (BGI):        0 MiB
               general  (BTI):       96 MiB

   =========================================================================




   **************************************************************************
   *                                                                        *
   *          OPTIMIZATION OF THE GROUND STATE CLUSTER AMPLITUDES           *
   *                                                                        *
   **************************************************************************


   Iter.   MP2 energy       Norm(Omega)    Norm(t1)  Norm(t2)     cpu    wall
   ...........................................................................
    1  -1811.1032189428     ------          0.00000   0.71315  173.52   22.60
   ...........................................................................


     time in total         cpu:  2 h 53 min  wall:  0 h 22 min  ratio:  7.7


     **********************************************************************
     *                                                                    *
     *   RHF  energy                             :  -1806.5502732330      *
     *   MP2 correlation energy (doubles)        :     -4.5529457098      *
     *                                                                    *
     *   Final MP2 energy                        :  -1811.1032189428      *
     *                                                                    *
     *    E(S)   =     -2.9512356318      E(T)   =     -1.6017100780      *
     *    E(OS)  =     -3.4851389911      E(SS)  =     -1.0678067186      *
     *                                                                    *
     *   SCS-MP2 energy                          :  -1811.0883755952      *
     *   (computed with  C(OS) =   1.2000  and  C(SS) =   0.3333)         *
     *                                                                    *
     *   SOS-MP2 energy                          :  -1811.0809539215      *
     *   (computed with  C(OS) =   1.3000)                                *
     *                                                                    *
     *   Norm of MP1 T2 amplitudes               :      0.7131464690      *
     *                                                                    *
     **********************************************************************



    ------------------------------------------------------------------------
         total  cpu-time :  3 hours 23 minutes and 51 seconds
         total wall-time : 26 minutes and 57 seconds
    ------------------------------------------------------------------------

   ****  ricc2 : all done  ****


    2018-04-03 19:10:41.641 

