Using Slurm to start processes with PMI2
STARTING ridft ON 8 PROCESSORS!
RUNNING PROGRAM /beegfs/modfac/apps/TURBOMOLE/7.0_intel_GA/bin/em64t-unknown-linux-gnu_mpi/ridft_mpi.
PLEASE WAIT UNTIL ridft HAS FINISHED.
Look for the output in slave1.output.
  this is node-proc. number 1 running on node c-16-32.local
  the total number of node-proc. spawned is            8
  parallel platform: MPP, or cluster with fast interconnect

 ridft (c-16-32.local) : TURBOMOLE V7.0.2( ) 15 Jan 2016 at 17:47:42
 Copyright (C) 2016 TURBOMOLE GmbH, Karlsruhe


    2017-11-02 14:05:25.546 



                                  r i d f t

                        DFT program with RI approximation 
                                for coulomb part 




                                                 
                                 References:     
                                                 
          TURBOMOLE:                             
              R. Ahlrichs, M. Baer, M. Haeser, H. Horn, and
              C. Koelmel
              Electronic structure calculations on workstation
              computers: the program system TURBOMOLE
              Chem. Phys. Lett. 162: 165 (1989)
          Density Functional:                              
              O. Treutler and R. Ahlrichs                      
              Efficient Molecular Numerical Integration Schemes
              J. Chem. Phys. 102: 346 (1995)                   
          Parallel Version:                                
              Performance of parallel TURBOMOLE for Density    
              Functional Calculations                          
              M. v. Arnim and R. Ahlrichs                      
              J. Comp. Chem. 19: 1746 (1998)                   
          RI-J Method:                                     
              Auxiliary Basis Sets to approximate Coulomb      
              Potentials                                       
              Chem. Phys. Lett. 240: 283 (1995)                
              K. Eichkorn, O. Treutler, H. Oehm, M. Haeser     
              and R. Ahlrichs                                  
              Chem. Phys. Lett. 242: 652 (1995)                
                                                           
              Auxiliary Basis Sets for Main Row Atoms and their
              Use to approximate Coulomb Potentials            
              K. Eichkorn, F. Weigend, O. Treutler and         
              R. Ahlrichs                                      
              Theo. Chem. Acc. 97: 119 (1997)                   
                                                           
              Accurate Coulomb-fitting basis sets for H to Rn 
              F. Weigend                                        
              Phys. Chem. Chem. Phys. 8: 1057 (2006)            
                                                           
          Multipole accelerated RI-J (MARI-J):             
              Fast evaluation of the Coulomb potential for     
              electron densities using multipole accelerated   
              resolution of identity approximation             
              M. Sierka, A. Hogekamp and R. Ahlrichs           
              J. Chem. Phys. 118: 9136 (2003)                  
          RI-JK Method:                                     
              A fully direct RI-HF algorithm: Implementation,
              optimised auxiliary basis sets, demonstration of
              accuracy and efficiency                         
              F. Weigend                                      
              Phys. Chem. Chem. Phys. 4: 4285 (2002)           
          Two-component HF and DFT with spin-orbit coupling:  
              Self-consistent treatment of spin-orbit         
              interactions with efficient Hartree-Fock and    
              density functional methods                      
              M. K. Armbruster, F. Weigend, C. van Wüllen and 
              W. Klopper                                      
              Phys. Chem. Chem. Phys. 10: 1748 (2008)         
          Relativistic all-electron 2c calculations           
              An efficient implementation of two-component    
              relativistic exact-decoupling methods for large 
              molecules                                       
              D. Peng, N. Middendorf, F. Weigend, M. Reiher   
              J. Chem. Phys. 138, 184105 (2013)               
                                         


 


              +--------------------------------------------------+
              |      general information about current run       |
              +--------------------------------------------------+

 

 SCF run will be profiled !


 DENSITY CONVERGENCE CHECK SWITCHED ON !
 SCF CONVERGENCE IF RMS(delta[D]) <     0.1000000000E-06

 TPSS meta-GGA functional
 exchange:    LDA + TPSS
 correlation: LDA (PW) + TPSS
 A DFT calculation using the RI-J approximation will be carried out.
 Allocatable memory for RI due to $ricore (MB):       10000


              +--------------------------------------------------+
              | Atomic coordinate, charge and isotop information |
              +--------------------------------------------------+

                    atomic coordinates            atom    charge  isotop
         -0.80414168    1.10380519    0.59515066    c      6.000     0
          2.03820702    0.62009881   -0.00426129    c      6.000     0
          0.89491681    4.76814182   -1.34475394    c      6.000     0
          3.15023497    3.30654856   -0.28466227    c      6.000     0
          4.74761880   -4.50491443    3.79840420    c      6.000     0
          6.57095680    6.02164437    5.14918813    c      6.000     0
          1.08012128   -4.77768654    0.78551667    c      6.000     0
         -7.80088970   -3.42949127   -4.36436967    c      6.000     0
          8.35644019    3.10734556    1.85043260    c      6.000     0
          5.47864265   -3.91602930   -0.87486558    c      6.000     0
          6.86517591    7.49233613    0.62668138    c      6.000     0
         -5.35679505   -2.38593723   -5.49718821    c      6.000     0
          3.63377315   -3.52475643    1.32287491    c      6.000     0
          6.45040586    5.22290801    2.37769190    c      6.000     0
          0.71229820    4.69561201   -4.22466310    c      6.000     0
         -5.38788602   -2.30972797   -8.38965691    c      6.000     0
         -2.94881103   -1.19815305   -9.48322940    c      6.000     0
         -3.50352611   -0.56384068    4.08079394    c      6.000     0
         -3.39360248   -0.50082799    6.71065625    c      6.000     0
         -0.22004169    1.64970854    5.41319644    c      6.000     0
         -1.46430474    0.81942803    3.24218855    n      7.000     0
         -6.95259411   -2.99274295    3.81077593    c      6.000     0
         -7.02862643   -3.05360293    6.39511751    n      7.000     0
         -8.80711774   -4.31031262    2.54620475    n      7.000     0
         -7.62455529   -3.35994048   -1.61681974    n      7.000     0
         -5.28326378   -1.83586232    8.12792850    c      6.000     0
         -9.24168347   -4.61719049   -0.10487584    c      6.000     0
         -5.19758719   -1.74401199    2.56066381    n      7.000     0
         -1.32686500    0.90347117    7.50196261    n      7.000     0
          3.86132429    4.29083355    2.10787995    o      8.000     0
          3.34355254   -0.81506873    1.80505970    o      8.000     0
         -1.35025198    3.58729510   -0.30504471    o      8.000     0
          2.90316022    5.96665661   -5.19467402    o      8.000     0
        -11.00161259   -5.96608669   -0.77701340    o      8.000     0
         -5.62021044   -2.09789222   10.39310565    o      8.000     0
         -6.28490975   -2.28162328   -0.72912754    h      1.000     0
        -10.09760126   -5.28297825    3.56983692    h      1.000     0
         -8.41471832   -4.02918444    7.29494779    h      1.000     0
         -2.03049566   -0.23129914   -0.39275859    h      1.000     0
          2.10740563   -0.28067478   -1.87097955    h      1.000     0
          4.73233750    3.31386808   -1.60965810    h      1.000     0
          2.71402338    6.14044366   -7.00738214    h      1.000     0
          0.93220819    6.72539222   -0.68789649    h      1.000     0
          1.47577608    2.77299980    5.25873434    h      1.000     0
         -5.03940861   -0.46575093   -4.76785901    h      1.000     0
         -8.12990367   -5.38240732   -4.96521175    h      1.000     0
         -3.76210928   -3.54691456   -4.84781561    h      1.000     0
         -7.01089645   -1.18672648   -9.02852935    h      1.000     0
         -5.67316133   -4.22785061   -9.12600149    h      1.000     0
         -9.42652584   -2.31040999   -5.00847338    h      1.000     0
         -0.24570638   -4.43361831    2.33168614    h      1.000     0
         -1.03847356    5.64435784   -4.80654267    h      1.000     0
          0.63949778    2.72469440   -4.88965583    h      1.000     0
          7.92942792    1.46409035    3.02521517    h      1.000     0
          3.44283759   -4.13831697    5.35838816    h      1.000     0
          0.24316624   -4.08354818   -0.97654957    h      1.000     0
          6.53732381   -3.55167365    4.20136254    h      1.000     0
          1.33381691   -6.82118548    0.58558280    h      1.000     0
          7.28065488   -2.98916005   -0.46725518    h      1.000     0
          6.25621344    4.39167634    6.38170589    h      1.000     0
          6.63636398    6.97337947   -1.36283094    h      1.000     0
          5.12079250    7.44087382    5.54536903    h      1.000     0
         10.26959737    3.77082848    2.27747710    h      1.000     0
          5.51259668    8.99294584    1.06984531    h      1.000     0
          5.09427293   -6.54025334    3.67590768    h      1.000     0
          8.42513546    6.82940501    5.58221208    h      1.000     0
          8.32841789    2.52344441   -0.13475321    h      1.000     0
          5.82286374   -5.93509120   -1.16866560    h      1.000     0
          8.77942820    8.23936873    0.87511363    h      1.000     0
          4.72695787   -3.14964776   -2.64591728    h      1.000     0
         -2.66380850    0.74467150   -8.82020871    h      1.000     0
         -1.30096176   -2.31277117   -8.90358411    h      1.000     0
         -2.99489773   -1.16311122  -11.55112441    h      1.000     0
 
       center of nuclear mass  :   -1.08523492   -0.10004534    1.00971776
       center of nuclear charge:   -0.93351437   -0.08479213    0.86603355

              +--------------------------------------------------+
              |               basis set information              |
              +--------------------------------------------------+

              we will work with the 1s 3p 5d 7f 9g ... basis set
              ...i.e. with spherical basis functions...

   type   atoms  prim   cont   basis
   ---------------------------------------------------------------------------
    c       23     50     30   cc-pVTZ   [4s3p2d1f|18s5p2d1f]
    n        6     50     30   cc-pVTZ   [4s3p2d1f|18s5p2d1f]
    o        6     50     30   cc-pVTZ   [4s3p2d1f|18s5p2d1f]
    h       38     16     14   cc-pVTZ   [3s2p1d|5s2p1d]
   ---------------------------------------------------------------------------
   total:   73   2358   1582
   ---------------------------------------------------------------------------

   total number of primitive shells          :   86
   total number of contracted shells         :  578
   total number of cartesian basis functions : 1795
   total number of SCF-basis functions       : 1582


 integral neglect threshold       :  0.19E-13
 integral storage threshold THIZE :  0.10E-04
 integral storage threshold THIME :         5

 RI-J AUXILIARY BASIS SET information:

              we will work with the 1s 3p 5d 7f 9g ... basis set
              ...i.e. with spherical basis functions...

   type   atoms  prim   cont   basis
   ---------------------------------------------------------------------------
    c       23     70     49   cc-pVTZ   [6s4p3d1f1g|12s5p4d2f1g]
    n        6     70     49   cc-pVTZ   [6s4p3d1f1g|12s5p4d2f1g]
    o        6     70     49   cc-pVTZ   [6s4p3d1f1g|12s5p4d2f1g]
    h       38     16     11   cc-pVTZ   [3s1p1d|5s2p1d]
   ---------------------------------------------------------------------------
   total:   73   3058   2133
   ---------------------------------------------------------------------------

   total number of primitive shells          :   80
   total number of contracted shells         :  715
   total number of cartesian basis functions : 2591
   total number of SCF-basis functions       : 2133


 symmetry group of the molecule :   c1 

 the group has the following generators :
   c1(z)

    1 symmetry operations found

 there are 1 real representations :   a   

 maximum number of shells which are related by symmetry :  1


    mo occupation :
   irrep   mo's   occupied
    a     1582      133
 
 number of basis functions   :         1582
 number of occupied orbitals :          133
 
  
           ------------------
           density functional
           ------------------
 TPSS meta-GGA functional
 exchange:    LDA + TPSS
 correlation: LDA (PW) + TPSS
 grinp -> nfun, dfgga, dfhybrid 
           5 F F
 iterations will be done with small grid
  
 spherical integration : Lebedev's spherical grid
 spherical gridsize    :           5
    i.e. gridpoints    :         590
 value for diffuse not defined
 radial integration    : Chebyshev 2nd kind (scaling 3)
 radial gridsize       :           8
 integration cells     :          73
 partition function    : becke
 partition sharpness   :           3
  

 <rddim> : input of entry tasksize
           from data group '$pardft' failed !

               Default values taken

 <rddim> : input of entry memdiv
           from data group '$pardft' failed !

               Default values taken
  RIDFT: memory allocation for DFT gridpoints
  MEMORY is divided by 1 as DEFAULT
 Each node can hold at most  the            1 -th part
 of the gridpoints    

 biggest AO integral is expected to be     4.866064444
  
           ------------------------
               RI-J - INFORMATION
           ------------------------
 
 
 **************************************************
 *      MEMORY ALLOCATION FOR PARALLEL RI-DFT     *
 **************************************************
 
 
MEMORY FOR (MU NU/ ALPHA), SEQUENTIAL RUN               9964 MByte
 
            DIFFERENCE IN MEMORY NEED:       DIAG./SLAVE  
 
      TOTAL DIFFERENCE :                    137 MByte
 
      difference in xcore:                   37 MByte
      difference in fatmat:                  37 MByte
      getcor calls skipped by slaves:        63 MByte
 
 
           Integral memory available for diagonal.      9964 MByte
 
           Integral memory available for slave             0 MByte
 
         MEMORY FOR (MU NU/ ALPHA) ON DIAGONALIZER      9964 MByte
 
         MEMORY FOR (MU NU/ ALPHA) ON ONE SLAVE            0 MByte
 
         TOTAL MEMORY FOR (MU NU/ ALPHA),ALL NODES      9964 MByte
 
 Contributions to RI integral batches: 
  neglected integral batches:       81294
  direct contribution:              18565
  memory contribution:       67472
 Memory core needed for (P|Q) and Cholesky     35 MByte
 Memory core minimum needed except of (P|Q)     6 MByte
 Total minimum memory core needed (sum)        41 MByte
     number of direct tasks:         160
  
 ****************************************
 Memory allocated for RI-J 10004 MByte
 ****************************************
                                            

          ------------------------
          nuclear repulsion energy  :   4217.56609896    
          ------------------------

 
          -----------------
          -S integrals
          -----------------

 1e-integrals will be neglected if expon. factor < 0.186182E-14
 
          -----------------
          -T+V integrals
          -----------------

 1e-integrals will be neglected if expon. factor < 0.186182E-14
 Difference densities >>NOT<< switched on in parallel ridft!

 automatic virtual orbital shift switched on 
      shift if e(lumo)-e(homo) < 0.10000000    


 DIIS switched on: error vector is FDS-SDF
 Max. Iterations for DIIS is     :   4
 DIIS matrix (see manual) 
    Scaling factor of diagonals  :  1.200
    threshold for scaling factor :  0.000

 scf convergence criterion : increment of total energy < .1000000D-08
                  and increment of one-electron energy < .1000000D-05


 <geterg> : there is no data group $energy 

  MOs are in ASCII format !


 reading orbital data $scfmo  from file mos . 

 orbital characterization : expanded
 
 mo provided and orthogonalized by Cholesky decomposition

 DSCF restart information will be dumped onto file mos


 Starting SCF iterations


 ITERATION  ENERGY          1e-ENERGY        2e-ENERGY     RMS[dD(SAO)]   TOL
   1  -1673.6033434018    -10633.527592     4742.3581501    0.000D+00 0.186D-13
                            Exc = -230.148565603     Coul =  4972.50671574    
                              N = 266.00014094    
                            current damping = 0.700
 
          max. resid. norm for Fia-block=  3.251D-01 for orbital     99a         
          max. resid. fock norm         =  4.304D+00 for orbital   1490a         

 ITERATION  ENERGY          1e-ENERGY        2e-ENERGY     RMS[dD(SAO)]   TOL
   2  -1678.9036681843    -10663.716448     4767.2466809    0.193D-02 0.186D-13
                            Exc = -230.996287893     Coul =  4998.24296882    
                              N = 266.00010339    
                            current damping = 0.650
 
          Norm of current diis error:  4.7777    
          max. resid. norm for Fia-block=  1.599D-01 for orbital      6a         
          max. resid. fock norm         =  3.314D-01 for orbital   1573a         

 ITERATION  ENERGY          1e-ENERGY        2e-ENERGY     RMS[dD(SAO)]   TOL
   3  -1679.7569073943    -10675.995663     4778.6726566    0.113D-02 0.186D-13
                            Exc = -232.349483756     Coul =  5011.02214039    
                              N = 266.00009973    
                            current damping = 0.550
 
          Norm of current diis error:  2.3485    
          max. resid. norm for Fia-block=  6.337D-02 for orbital      6a         
          max. resid. fock norm         =  7.518D-02 for orbital   1552a         

 ITERATION  ENERGY          1e-ENERGY        2e-ENERGY     RMS[dD(SAO)]   TOL
   4  -1680.0240019742    -10678.179994     4780.5898929    0.949D-03 0.186D-13
                            Exc = -232.341979179     Coul =  5012.93187205    
                              N = 266.00007803    
                            current damping = 0.450
 
          Norm of current diis error: 0.97449    
          max. resid. norm for Fia-block=  3.694D-02 for orbital     43a         
          max. resid. fock norm         =  7.481D-02 for orbital   1513a         

 ITERATION  ENERGY          1e-ENERGY        2e-ENERGY     RMS[dD(SAO)]   TOL
   5  -1680.0621409800    -10681.266323     4783.6380832    0.367D-03 0.186D-13
                            Exc = -232.835018040     Coul =  5016.47310125    
                              N = 266.00007185    
                            current damping = 0.350
 
          Norm of current diis error: 0.58184    
          max. resid. norm for Fia-block=  1.701D-02 for orbital    125a         
          max. resid. fock norm         =  2.222D-02 for orbital    135a         
          mo-orthogonalization: Cholesky decomposition

 ITERATION  ENERGY          1e-ENERGY        2e-ENERGY     RMS[dD(SAO)]   TOL
   6  -1680.0765448332    -10682.502901     4784.8602568    0.333D-03 0.186D-13
                            Exc = -232.803050505     Coul =  5017.66330729    
                              N = 266.00006862    
                            current damping = 0.250
 
          Norm of current diis error: 0.27637    
          max. resid. norm for Fia-block=  1.053D-02 for orbital    132a         
          max. resid. fock norm         =  1.667D-02 for orbital   1530a         

 ITERATION  ENERGY          1e-ENERGY        2e-ENERGY     RMS[dD(SAO)]   TOL
   7  -1680.0788481741    -10681.120961     4783.4760138    0.128D-03 0.186D-13
                            Exc = -232.778988014     Coul =  5016.25500185    
                              N = 266.00006815    
                            current damping = 0.300
 
          Norm of current diis error: 0.17943    
          max. resid. norm for Fia-block=  3.750D-03 for orbital    133a         
          max. resid. fock norm         =  5.849D-03 for orbital   1499a         

 ITERATION  ENERGY          1e-ENERGY        2e-ENERGY     RMS[dD(SAO)]   TOL
   8  -1680.0802290409    -10681.831246     4784.1849183    0.564D-04 0.186D-13
                            Exc = -232.800810836     Coul =  5016.98572909    
                              N = 266.00006879    
                            current damping = 0.350
 
          Norm of current diis error: 0.41068E-01
          max. resid. norm for Fia-block=  1.504D-03 for orbital    133a         
          max. resid. fock norm         =  2.190D-03 for orbital   1571a         

 ITERATION  ENERGY          1e-ENERGY        2e-ENERGY     RMS[dD(SAO)]   TOL
   9  -1680.0802352661    -10681.842932     4784.1965982    0.184D-04 0.186D-13
                            Exc = -232.819925135     Coul =  5017.01652333    
                              N = 266.00006836    
                            current damping = 0.200
 
          Norm of current diis error: 0.38261E-01
          max. resid. norm for Fia-block=  8.588D-04 for orbital    133a         
          max. resid. fock norm         =  1.238D-03 for orbital     42a         

 ITERATION  ENERGY          1e-ENERGY        2e-ENERGY     RMS[dD(SAO)]   TOL
  10  -1680.0802934483    -10681.891440     4784.2450476    0.113D-04 0.186D-13
                            Exc = -232.812133206     Coul =  5017.05718079    
                              N = 266.00006837    
                            current damping = 0.050
 
          Norm of current diis error: 0.13119E-01
          max. resid. norm for Fia-block=  3.058D-04 for orbital    126a         
          max. resid. fock norm         =  5.592D-04 for orbital     47a         
          mo-orthogonalization: Cholesky decomposition

 ITERATION  ENERGY          1e-ENERGY        2e-ENERGY     RMS[dD(SAO)]   TOL
  11  -1680.0802978533    -10681.829628     4784.1832310    0.398D-05 0.186D-13
                            Exc = -232.809689040     Coul =  5016.99292000    
                              N = 266.00006860    
                            current damping = 0.100
 
          Norm of current diis error: 0.80862E-02
          max. resid. norm for Fia-block=  1.734D-04 for orbital    126a         
          max. resid. fock norm         =  3.514D-04 for orbital     47a         

 ITERATION  ENERGY          1e-ENERGY        2e-ENERGY     RMS[dD(SAO)]   TOL
  12  -1680.0802997344    -10681.854640     4784.2082416    0.223D-05 0.186D-13
                            Exc = -232.811476235     Coul =  5017.01971782    
                              N = 266.00006853    
                            current damping = 0.150
 
          Norm of current diis error: 0.43785E-02
          max. resid. norm for Fia-block=  1.173D-04 for orbital    131a         
          max. resid. fock norm         =  1.638D-04 for orbital    131a         

 ITERATION  ENERGY          1e-ENERGY        2e-ENERGY     RMS[dD(SAO)]   TOL
  13  -1680.0803004221    -10681.856394     4784.2099947    0.155D-05 0.186D-13
                            Exc = -232.810766422     Coul =  5017.02076115    
                              N = 266.00006852    
                            current damping = 0.050
 
          Norm of current diis error: 0.17517E-02
          max. resid. norm for Fia-block=  6.791D-05 for orbital    131a         
          max. resid. fock norm         =  1.004D-04 for orbital    131a         

 ITERATION  ENERGY          1e-ENERGY        2e-ENERGY     RMS[dD(SAO)]   TOL
  14  -1680.0803004762    -10681.849120     4784.2027207    0.107D-05 0.186D-13
                            Exc = -232.810871112     Coul =  5017.01359179    
                              N = 266.00006853    
                            current damping = 0.100
 
          Norm of current diis error: 0.13998E-02
          max. resid. norm for Fia-block=  3.205D-05 for orbital    131a         
          max. resid. fock norm         =  5.493D-05 for orbital   1527a         

 ITERATION  ENERGY          1e-ENERGY        2e-ENERGY     RMS[dD(SAO)]   TOL
  15  -1680.0803005662    -10681.853948     4784.2075481    0.533D-06 0.186D-13
                            Exc = -232.810926495     Coul =  5017.01847460    
                              N = 266.00006854    
                            current damping = 0.150
 
          Norm of current diis error: 0.33719E-03
          max. resid. norm for Fia-block=  9.272D-06 for orbital    132a         
          max. resid. fock norm         =  1.556D-05 for orbital   1525a         
          mo-orthogonalization: Cholesky decomposition

 ITERATION  ENERGY          1e-ENERGY        2e-ENERGY     RMS[dD(SAO)]   TOL
  16  -1680.0803005689    -10681.852663     4784.2062633    0.114D-06 0.186D-13
                            Exc = -232.810879027     Coul =  5017.01714229    
                              N = 266.00006853    
                            current damping = 0.200
 
          Norm of current diis error: 0.22487E-03
          max. resid. norm for Fia-block=  3.998D-06 for orbital    123a         
          max. resid. fock norm         =  8.801D-06 for orbital   1525a         

 DENSITY CONVERGED !


 ITERATION  ENERGY          1e-ENERGY        2e-ENERGY     RMS[dD(SAO)]   TOL
  17  -1680.0803005708    -10681.853031     4784.2066317    0.527D-07 0.186D-13
                            Exc = -232.810877821     Coul =  5017.01750950    
                              N = 266.00006853    
                            current damping = 0.250
 
          Norm of current diis error: 0.64983E-04
          max. resid. norm for Fia-block=  1.586D-06 for orbital    128a         
          max. resid. fock norm         =  2.378D-06 for orbital   1571a         

 DENSITY CONVERGED !


 ITERATION  ENERGY          1e-ENERGY        2e-ENERGY     RMS[dD(SAO)]   TOL
  18  -1680.0803005709    -10681.852991     4784.2065911    0.228D-07 0.186D-13
                            Exc = -232.810896802     Coul =  5017.01748794    
                              N = 266.00006853    
                            current damping = 0.300
 
          Norm of current diis error: 0.36354E-04
          max. resid. norm for Fia-block=  9.906D-07 for orbital    131a         
          max. resid. fock norm         =  1.682D-06 for orbital   1571a         

 DENSITY CONVERGED !


 ITERATION  ENERGY          1e-ENERGY        2e-ENERGY     RMS[dD(SAO)]   TOL
  19  -1680.0803005709    -10681.853110     4784.2067109    0.145D-07 0.186D-13
                            Exc = -232.810889819     Coul =  5017.01760067    
                              N = 266.00006853    
                            current damping = 0.350
 
          Norm of current diis error: 0.17201E-04
          max. resid. norm for Fia-block=  3.325D-07 for orbital    133a         
          max. resid. fock norm         =  5.591D-07 for orbital     42a         

 DENSITY CONVERGED !


 ITERATION  ENERGY          1e-ENERGY        2e-ENERGY     RMS[dD(SAO)]   TOL
  20  -1680.0803005709    -10681.853049     4784.2066499    0.441D-08 0.186D-13
                            Exc = -232.810889805     Coul =  5017.01753975    
                              N = 266.00006853    
                            current damping = 0.400
 
          Norm of current diis error: 0.30413E-05
          max. resid. norm for Fia-block=  1.210D-07 for orbital    131a         
          max. resid. fock norm         =  1.804D-07 for orbital    131a         
          mo-orthogonalization: Cholesky decomposition

 ENERGY & DENSITY CONVERGED !


 ITERATION  ENERGY          1e-ENERGY        2e-ENERGY     RMS[dD(SAO)]   TOL
  21  -1680.0796210408    -10681.853048     4784.2073278    0.145D-08 0.186D-13
                            Exc = -232.810210587     Coul =  5017.01753841    
                              N = 266.00001625    
                            current damping = 0.450
 
          Norm of current diis error: 0.22203E-05
          max. resid. norm for Fia-block=  6.574D-08 for orbital    131a         
          max. resid. fock norm         =  9.704D-08 for orbital    131a         

 End of SCF iterations

   convergence criteria satisfied after   21 iterations


                  ------------------------------------------ 
                 |  total energy      =  -1680.07962104077  |
                  ------------------------------------------ 
                 :  kinetic energy    =   1670.49242673096  :
                 :  potential energy  =  -3350.57204777173  :
                 :  virial theorem    =      1.99429360717  :
                 :  wavefunction norm =      1.00000000000  :
                  .......................................... 


 <geterg> : there is no data group $energy 


 <skperg> : $end is missing 


 orbitals $scfmo  will be written to file mos

    irrep                129a        130a        131a        132a        133a   
 eigenvalues H         -0.22831    -0.22366    -0.21752    -0.21623    -0.18876
            eV          -6.2127     -6.0861     -5.9192     -5.8838     -5.1365
 occupation              2.0000      2.0000      2.0000      2.0000      2.0000 

    irrep                134a        135a        136a        137a        138a   
 eigenvalues H         -0.04660    -0.03475    -0.01565    -0.00423     0.00172
            eV          -1.2682     -0.9456     -0.4259     -0.1152      0.0468
 
 
 ! grave: sending quit signal to master process
 
 
 
 
 ==============================================================================
                           electrostatic moments
 ==============================================================================

 reference point for electrostatic moments:    0.00000   0.00000   0.00000

 
              nuc           elec       ->  total
 ------------------------------------------------------------------------------
                          charge      
 ------------------------------------------------------------------------------
         266.000000    -266.000000      -0.000000
 
 ------------------------------------------------------------------------------
                       dipole moment  
 ------------------------------------------------------------------------------
   x    -248.314822     250.038969       1.724147
   y     -22.554708      22.655206       0.100498
   z     230.364923    -233.546006      -3.181083
 
   | dipole moment | =     3.6197 a.u. =     9.2003 debye 
 
 ------------------------------------------------------------------------------
                     quadrupole moment
 ------------------------------------------------------------------------------
  xx    7874.704041   -8036.504256    -161.800215
  yy    3893.402283   -4048.346081    -154.943798
  zz    5683.636422   -5859.711546    -176.075124
  xy    3383.237992   -3387.357074      -4.119083
  xz      97.727937     -94.395288       3.332649
  yz    -143.049363     136.433679      -6.615684
 
     1/3  trace=    -164.273046
     anisotropy=      23.752479
 
 ==============================================================================
 

    ridft profiling
  --------------------------------------------------------------------
             module   cpu total (s)       %  wall total (s)       %

               RIDFT          2058.6  100.00          2062.2  100.00
         Ridft_b_scf            53.1    2.58            53.1    2.58
        b_scf_prelim             0.0    0.00             0.0    0.00
        b_scf_molinp             0.0    0.00             0.0    0.00
         b_scf_init0             0.0    0.00             0.0    0.00
        b_scf_auxbas             0.0    0.00             0.0    0.00
      b_scf_symmetry             0.0    0.00             0.0    0.00
         b_scf_cosmo             0.0    0.00             0.0    0.00
        b_scf_params             1.2    0.06             1.2    0.06
          b_scf_ri-j            44.6    2.17            44.7    2.17
    b_scf_ri-j_auxpq            44.6    2.17            44.6    2.16
     ri-j_auxpq_chol             0.9    0.04             0.9    0.04
         b_scf_1elec             1.2    0.06             1.2    0.06
       b_scf_moinput             6.0    0.29             6.0    0.29
     moinput_orthmos             5.7    0.28             5.8    0.28
    b_scf_dft-dstmax             0.0    0.00             0.0    0.00
           Ridft_scf          2005.0   97.39          2007.6   97.35
          Scf_b_loop             0.0    0.00             0.0    0.00
                noga             0.0    0.00             0.0    0.00
            Scf_loop          2003.1   97.31          2005.7   97.26
     scf_loop_mkdmat             5.1    0.25             5.1    0.25
       scf_loop_ri-j           115.0    5.59           115.1    5.58
      parlp1.bc.dens             1.6    0.08             1.6    0.08
        parlp1.gs.gp             0.1    0.00             0.1    0.00
        parlp2.bc.gq             0.0    0.00             0.0    0.00
        scf_loop_dft          1751.9   85.10          1754.1   85.06
      pardft.bc.dens             0.0    0.00             0.0    0.00
        dft_grid_con             4.7    0.23             4.7    0.23
          dft_xcmrhf          1661.8   80.73          1664.0   80.69
          dft_getval            57.3    2.78            57.5    2.79
          funct2 dst             1.3    0.06             1.4    0.07
      funct2 f2loop1             7.7    0.37             7.7    0.37
      funct2 f2loop2            25.4    1.23            25.3    1.23
          funct2 s+c            21.8    1.06            22.0    1.07
        funct2 cmf_2            20.0    0.97            20.2    0.98
          dft_mkdens           769.9   37.40           770.9   37.38
        dft_mgga-fun             2.5    0.12             2.4    0.12
          dft_mkfock           830.9   40.36           831.9   40.34
     pardft.red.fock           206.6   10.04           206.8   10.03
     scf_loop_energy             0.1    0.01             0.1    0.01
     scf_loop_mkfock             0.2    0.01             0.2    0.01
       scf_loop_diis            32.7    1.59            32.8    1.59
       scf_loop_diag            54.4    2.64            54.4    2.64
         diag_tritrn            21.5    1.04            21.5    1.04
          diag_rdiag            32.6    1.58            32.6    1.58
     scf_loop_modump            31.8    1.55            31.9    1.55
      scf_loop_ortho            10.7    0.52            10.8    0.52
          Scf_a_loop             1.8    0.09             1.8    0.09
         Ridft_a_scf             0.6    0.03             1.6    0.08
         a_scf_fanal             0.5    0.03             1.5    0.07
 


    ------------------------------------------------------------------------
         total  cpu-time : 34 minutes and 22 seconds
         total wall-time : 34 minutes and 25 seconds
    ------------------------------------------------------------------------


   ****  ridft : all done  ****


    2017-11-02 14:39:50.775 

