           Doing BLAS/Lapack in the master proc. with  8 CPUs.
           SMPCPUS    set: Shared-memory Parallelization with   8 CPUs.

           SMP Parallelization Reference:
           C. van Wullen, J. Comput. Chem. 32 (2011) 1195--1201
 operating system is UNIX !

 ridft (c-18-133.gp.local) : TURBOMOLE V7.2 ( 21454 ) 4 Oct 2017 at 12:48:15
 Copyright (C) 2017 TURBOMOLE GmbH, Karlsruhe


    2018-04-28 21:07:39.940 



                                  r i d f t

                        DFT program with RI approximation 
                                for coulomb part 




                                                 
                                 References:     
                                                 
          TURBOMOLE:                             
              R. Ahlrichs, M. Baer, M. Haeser, H. Horn, and
              C. Koelmel
              Electronic structure calculations on workstation
              computers: the program system TURBOMOLE
              Chem. Phys. Lett. 162: 165 (1989)
          Density Functional:                              
              O. Treutler and R. Ahlrichs                      
              Efficient Molecular Numerical Integration Schemes
              J. Chem. Phys. 102: 346 (1995)                   
          Parallel Version:                                
              Performance of parallel TURBOMOLE for Density    
              Functional Calculations                          
              M. v. Arnim and R. Ahlrichs                      
              J. Comp. Chem. 19: 1746 (1998)                   
          RI-J Method:                                     
              Auxiliary Basis Sets to approximate Coulomb      
              Potentials                                       
              Chem. Phys. Lett. 240: 283 (1995)                
              K. Eichkorn, O. Treutler, H. Oehm, M. Haeser     
              and R. Ahlrichs                                  
              Chem. Phys. Lett. 242: 652 (1995)                
                                                           
              Auxiliary Basis Sets for Main Row Atoms and their
              Use to approximate Coulomb Potentials            
              K. Eichkorn, F. Weigend, O. Treutler and         
              R. Ahlrichs                                      
              Theo. Chem. Acc. 97: 119 (1997)                   
                                                           
              Accurate Coulomb-fitting basis sets for H to Rn 
              F. Weigend                                        
              Phys. Chem. Chem. Phys. 8: 1057 (2006)            
                                                           
          Multipole accelerated RI-J (MARI-J):             
              Fast evaluation of the Coulomb potential for     
              electron densities using multipole accelerated   
              resolution of identity approximation             
              M. Sierka, A. Hogekamp and R. Ahlrichs           
              J. Chem. Phys. 118: 9136 (2003)                  
          RI-JK Method:                                     
              A fully direct RI-HF algorithm: Implementation,
              optimised auxiliary basis sets, demonstration of
              accuracy and efficiency                         
              F. Weigend                                      
              Phys. Chem. Chem. Phys. 4: 4285 (2002)           
          Two-component HF and DFT with spin-orbit coupling:  
              Self-consistent treatment of spin-orbit         
              interactions with efficient Hartree-Fock and    
              density functional methods                      
              M. K. Armbruster, F. Weigend, C. van Wüllen and 
              W. Klopper                                      
              Phys. Chem. Chem. Phys. 10: 1748 (2008)         
          Relativistic all-electron 2c calculations           
              An efficient implementation of two-component    
              relativistic exact-decoupling methods for large 
              molecules                                       
              D. Peng, N. Middendorf, F. Weigend, M. Reiher   
              J. Chem. Phys. 138, 184105 (2013)               
                                         




              +--------------------------------------------------+
              |      general information about current run       |
              +--------------------------------------------------+

 

 DENSITY CONVERGENCE CHECK SWITCHED ON !
 SCF CONVERGENCE IF RMS(delta[D]) <     0.1000000000E-06

 TPSS meta-GGA functional
 exchange:    LDA + TPSS
 correlation: LDA (PW) + TPSS
 A DFT calculation using the RI-J approximation will be carried out.
 Allocatable memory for RI due to $ricore (MB):                  5000


              +--------------------------------------------------+
              | Atomic coordinate, charge and isotop information |
              +--------------------------------------------------+

                    atomic coordinates            atom    charge  isotop
          1.43571787    1.94882743    0.70632746    c      6.000     0
          2.71178772    3.54449179    0.70808910    h      1.000     0
          2.39356073   -0.50524160    0.79609074    c      6.000     0
          4.41235172   -0.81103302    0.86820130    h      1.000     0
          0.74704756   -2.56245194    0.80295429    c      6.000     0
          1.49035507   -4.46446398    0.87501027    h      1.000     0
         -1.85609966   -2.16686280    0.72049633    c      6.000     0
         -3.13251646   -3.76270966    0.72777322    h      1.000     0
         -2.81445627    0.28563171    0.63791927    c      6.000     0
         -4.83381937    0.59290250    0.58150464    h      1.000     0
         -1.16931558    2.34388630    0.63094881    c      6.000     0
         -1.91195236    4.24641663    0.57517446    h      1.000     0
          0.08885294    0.57860650    6.96385486    o      0.000     0
          0.25155877    0.67285299    5.15502121    h      0.000     0
         -1.60462626   -1.41999445    7.49875137    c      0.000     0
         -1.78551216   -1.52720727    9.54142463    h      0.000     0
         -3.47951727   -1.09553274    6.69790394    h      0.000     0
         -0.91211662   -3.23987832    6.81294799    h      0.000     0
 
       center of nuclear mass  :   -0.36561518   -0.19582021    2.59514044
       center of nuclear charge:   -0.21059680   -0.10932527    0.71676606

              +--------------------------------------------------+
              |               basis set information              |
              +--------------------------------------------------+

              we will work with the 1s 3p 5d 7f 9g ... basis set
              ...i.e. with spherical basis functions...

   type   atoms  prim   cont   basis
   ---------------------------------------------------------------------------
    c        7     50     30   cc-pVTZ   [4s3p2d1f|18s5p2d1f]
    h       10     16     14   cc-pVTZ   [3s2p1d|5s2p1d]
    o        1     50     30   cc-pVTZ   [4s3p2d1f|18s5p2d1f]
   ---------------------------------------------------------------------------
   total:   18    560    380
   ---------------------------------------------------------------------------

   total number of primitive shells          :   60
   total number of contracted shells         :  140
   total number of cartesian basis functions :  430
   total number of SCF-basis functions       :  380


 integral neglect threshold       :  0.78E-13
 integral storage threshold THIZE :  0.10E-04
 integral storage threshold THIME :         5

 RI-J AUXILIARY BASIS SET information:

              we will work with the 1s 3p 5d 7f 9g ... basis set
              ...i.e. with spherical basis functions...

   type   atoms  prim   cont   basis
   ---------------------------------------------------------------------------
    c        7     70     49   cc-pVTZ   [6s4p3d1f1g|12s5p4d2f1g]
    h       10     16     11   cc-pVTZ   [3s1p1d|5s2p1d]
    o        1     70     49   cc-pVTZ   [6s4p3d1f1g|12s5p4d2f1g]
   ---------------------------------------------------------------------------
   total:   18    720    502
   ---------------------------------------------------------------------------

   total number of primitive shells          :   56
   total number of contracted shells         :  170
   total number of cartesian basis functions :  608
   total number of SCF-basis functions       :  502


 symmetry group of the molecule :   c1 

 the group has the following generators :
   c1(z)

    1 symmetry operations found

 there are 1 real representations :   a   

 maximum number of shells which are related by symmetry :  1


    mo occupation :
   irrep   mo's   occupied
    a      380       21
 
 number of basis functions   :                    380
 number of occupied orbitals :                     21
 
  
           ------------------
           density functional
           ------------------
 Dummy atoms with grid-point found.
 DFT quadrature threshold dgrenze tightened by factor 1/10.

 TPSS meta-GGA functional
 exchange:    LDA + TPSS
 correlation: LDA (PW) + TPSS
 Dummy atoms with grid-point found.
 DFT quadrature threshold dgrenze tightened by factor 1/10.

 Dummy atoms with grid-point found.
 DFT quadrature threshold dgrenze tightened by factor 1/10.


 iterations will be done with small grid
  
 spherical integration : Lebedev's spherical grid
 spherical gridsize    :                     5
    i.e. gridpoints    :                   590
 value for diffuse not defined
 radial integration    : Chebyshev 2nd kind (scaling 3)
 radial gridsize       :                     8
 integration cells     :                    18
 partition function    : becke
 partition sharpness   :                     3
  
 found dummy atom(s) with basis: included in dft

 biggest AO integral is expected to be     4.866064444
  
           ------------------------
               RI-J - INFORMATION
           ------------------------
 Contributions to RI integral batches: 
  neglected integral batches:                   914
  direct contribution:                            0
  memory contribution:                  8956
 Memory core needed for (P|Q) and Cholesky      2 MByte
 Memory core minimum needed except of (P|Q)     1 MByte
 Total minimum memory core needed (sum)         3 MByte
  
 ****************************************
 Memory allocated for RI-J   388 MByte
 ****************************************
                                            

          ------------------------
          nuclear repulsion energy  :   203.621439855    
          ------------------------


         -----------------
         -S,T+V- integrals
         -----------------

 1e-integrals will be neglected if expon. factor < 0.777200E-14
 Difference densities >>NOT<< switched on in parallel ridft!

 DIIS switched on: error vector is FDS-SDF
 Max. Iterations for DIIS is     :   4
 DIIS matrix (see manual) 
    Scaling factor of diagonals  :  1.200
    threshold for scaling factor :  0.000

 scf convergence criterion : increment of total energy < .1000000D-08
                  and increment of one-electron energy < .1000000D-05

  MOs are in ASCII format !


 automatic virtual orbital shift switched on 
      shift if e(lumo)-e(homo) < 0.10000000    


 reading orbital data $scfmo  from file mos
 orbital characterization : expanded
 mo provided and orthogonalized by Cholesky decomposition

 DSCF restart information will be dumped onto file mos


 Starting SCF iterations

          Overall gridpoints after grid construction =         92748

 ITERATION  ENERGY          1e-ENERGY        2e-ENERGY     RMS[dD(SAO)]   TOL
   1  -231.60844489397    -704.43284733     269.20296258    0.000D+00 0.775D-13
                            Exc = -33.8326041795     Coul =  303.035566760    
                              N = 41.999837244    
                            current damping = 0.700
 
          max. resid. norm for Fia-block=  2.622D-01 for orbital     12a         
          max. resid. fock norm         =  1.061D+01 for orbital    342a         

 ITERATION  ENERGY          1e-ENERGY        2e-ENERGY     RMS[dD(SAO)]   TOL
   2  -232.20642695050    -711.36777655     275.53990975    0.244D-02 0.775D-13
                            Exc = -34.4801587110     Coul =  310.020068460    
                              N = 41.999863049    
                            current damping = 0.650
 
          Norm of current diis error:  2.0385    
          max. resid. norm for Fia-block=  1.115D-01 for orbital      7a         
          max. resid. fock norm         =  1.415D-01 for orbital     47a         

 ITERATION  ENERGY          1e-ENERGY        2e-ENERGY     RMS[dD(SAO)]   TOL
   3  -232.32781319038    -712.76221613     276.81296308    0.138D-02 0.775D-13
                            Exc = -34.6737550454     Coul =  311.486718126    
                              N = 41.999874653    
                            current damping = 0.550
 
          Norm of current diis error:  1.0036    
          max. resid. norm for Fia-block=  5.520D-02 for orbital      7a         
          max. resid. fock norm         =  6.233D-02 for orbital      7a         

 ITERATION  ENERGY          1e-ENERGY        2e-ENERGY     RMS[dD(SAO)]   TOL
   4  -232.36376074237    -714.09551245     278.11031186    0.718D-03 0.775D-13
                            Exc = -34.8106634183     Coul =  312.920975276    
                              N = 41.999878231    
                            current damping = 0.450
 
          Norm of current diis error: 0.37052    
          max. resid. norm for Fia-block=  2.107D-02 for orbital      7a         
          max. resid. fock norm         =  2.312D-02 for orbital      7a         

 ITERATION  ENERGY          1e-ENERGY        2e-ENERGY     RMS[dD(SAO)]   TOL
   5  -232.36960782059    -714.40431943     278.41327176    0.329D-03 0.775D-13
                            Exc = -34.8572695501     Coul =  313.270541309    
                              N = 41.999879192    
                            current damping = 0.300
 
          Norm of current diis error: 0.13244    
          max. resid. norm for Fia-block=  7.365D-03 for orbital      7a         
          max. resid. fock norm         =  8.213D-03 for orbital      7a         
          mo-orthogonalization: Cholesky decomposition

 ITERATION  ENERGY          1e-ENERGY        2e-ENERGY     RMS[dD(SAO)]   TOL
   6  -232.37039108035    -714.68039155     278.68856062    0.143D-03 0.775D-13
                            Exc = -34.8830375901     Coul =  313.571598209    
                              N = 41.999879335    
                            current damping = 0.150
 
          Norm of current diis error: 0.30468E-01
          max. resid. norm for Fia-block=  1.592D-03 for orbital     12a         
          max. resid. fock norm         =  2.528D-03 for orbital    159a         

 ITERATION  ENERGY          1e-ENERGY        2e-ENERGY     RMS[dD(SAO)]   TOL
   7  -232.37042656548    -714.61627738     278.62441096    0.476D-04 0.775D-13
                            Exc = -34.8819327413     Coul =  313.506343704    
                              N = 41.999879250    
                            current damping = 0.200
 
          Norm of current diis error: 0.18191E-01
          max. resid. norm for Fia-block=  5.606D-04 for orbital     12a         
          max. resid. fock norm         =  7.432D-04 for orbital     12a         

 ITERATION  ENERGY          1e-ENERGY        2e-ENERGY     RMS[dD(SAO)]   TOL
   8  -232.37043733488    -714.66393262     278.67205543    0.125D-04 0.775D-13
                            Exc = -34.8849739142     Coul =  313.557029340    
                              N = 41.999879273    
                            current damping = 0.250
 
          Norm of current diis error: 0.18279E-02
          max. resid. norm for Fia-block=  1.328D-04 for orbital     20a         
          max. resid. fock norm         =  3.135D-04 for orbital      4a         

 ITERATION  ENERGY          1e-ENERGY        2e-ENERGY     RMS[dD(SAO)]   TOL
   9  -232.37043710004    -714.66493774     278.67306079    0.336D-05 0.775D-13
                            Exc = -34.8850636876     Coul =  313.558124475    
                              N = 41.999879276    
                            current damping = 0.300
 
          Norm of current diis error: 0.30183E-02
          max. resid. norm for Fia-block=  6.046D-05 for orbital     20a         
          max. resid. fock norm         =  1.299D-04 for orbital      4a         

 ITERATION  ENERGY          1e-ENERGY        2e-ENERGY     RMS[dD(SAO)]   TOL
  10  -232.37043744371    -714.66471536     278.67283806    0.140D-05 0.775D-13
                            Exc = -34.8850578310     Coul =  313.557895894    
                              N = 41.999879272    
                            current damping = 0.350
 
          Norm of current diis error: 0.93346E-03
          max. resid. norm for Fia-block=  2.590D-05 for orbital     20a         
          max. resid. fock norm         =  5.912D-05 for orbital      4a         
          mo-orthogonalization: Cholesky decomposition

 ITERATION  ENERGY          1e-ENERGY        2e-ENERGY     RMS[dD(SAO)]   TOL
  11  -232.37043747974    -714.66456921     278.67269188    0.571D-06 0.775D-13
                            Exc = -34.8850547465     Coul =  313.557746626    
                              N = 41.999879271    
                            current damping = 0.200
 
          Norm of current diis error: 0.81654E-04
          max. resid. norm for Fia-block=  2.355D-06 for orbital     21a         
          max. resid. fock norm         =  5.204D-06 for orbital      2a         

 DENSITY CONVERGED !


 ITERATION  ENERGY          1e-ENERGY        2e-ENERGY     RMS[dD(SAO)]   TOL
  12  -232.37043748001    -714.66462778     278.67275044    0.671D-07 0.775D-13
                            Exc = -34.8850565232     Coul =  313.557806965    
                              N = 41.999879271    
                            current damping = 0.250
 
          Norm of current diis error: 0.19963E-04
          max. resid. norm for Fia-block=  8.841D-07 for orbital     16a         
          max. resid. fock norm         =  1.340D-06 for orbital    275a         

 DENSITY CONVERGED !


 ITERATION  ENERGY          1e-ENERGY        2e-ENERGY     RMS[dD(SAO)]   TOL
  13  -232.37043748002    -714.66456032     278.67268298    0.182D-07 0.775D-13
                            Exc = -34.8850527235     Coul =  313.557735706    
                              N = 41.999879270    
                            current damping = 0.300
 
          Norm of current diis error: 0.97661E-05
          max. resid. norm for Fia-block=  2.914D-07 for orbital     16a         
          max. resid. fock norm         =  4.994D-07 for orbital      4a         

 ENERGY & DENSITY CONVERGED !

          Overall gridpoints after grid construction =        276104

 ITERATION  ENERGY          1e-ENERGY        2e-ENERGY     RMS[dD(SAO)]   TOL
  14  -232.37030841401    -714.66458296     278.67283469    0.659D-08 0.775D-13
                            Exc = -34.8849252150     Coul =  313.557759905    
                              N = 41.999997108    
                            current damping = 0.350
 
          Norm of current diis error: 0.15512E-05
          max. resid. norm for Fia-block=  6.785D-08 for orbital     14a         
          max. resid. fock norm         =  1.329D-07 for orbital      1a         

 End of SCF iterations

   convergence criteria satisfied after    14 iterations


                  ------------------------------------------ 
                 |  total energy      =   -232.37030841401  |
                  ------------------------------------------ 
                 :  kinetic energy    =    231.03991959225  :
                 :  potential energy  =   -463.41022800625  :
                 :  virial theorem    =      1.99427470389  :
                 :  wavefunction norm =      1.00000000000  :
                  .......................................... 


 <geterg> : there is no data group $energy 


 <skperg> : $end is missing 


 orbitals $scfmo  will be written to file mos

    irrep                 17a         18a         19a         20a         21a   
 eigenvalues H         -0.33280    -0.30576    -0.30574    -0.22956    -0.22955
            eV          -9.0559     -8.3202     -8.3197     -6.2466     -6.2465
 occupation              2.0000      2.0000      2.0000      2.0000      2.0000 

    irrep                 22a         23a         24a         25a         26a   
 eigenvalues H         -0.03395    -0.03386     0.02680     0.05642     0.06283
            eV          -0.9238     -0.9214      0.7291      1.5353      1.7097
 
 
 
 
 ==============================================================================
                           electrostatic moments
 ==============================================================================

 reference point for electrostatic moments:    0.00000   0.00000   0.00000

 
              nuc           elec       ->  total
 ------------------------------------------------------------------------------
                          charge      
 ------------------------------------------------------------------------------
          42.000000     -42.000000      -0.000000
 
 ------------------------------------------------------------------------------
                       dipole moment  
 ------------------------------------------------------------------------------
   x      -8.845066       8.847833       0.002767
   y      -4.591661       4.594687       0.003025
   z      30.104174     -30.111324      -0.007149
 
   | dipole moment | =     0.0082 a.u. =     0.0209 debye 
 
 ------------------------------------------------------------------------------
                     quadrupole moment
 ------------------------------------------------------------------------------
  xx     192.370237    -216.147195     -23.776958
  yy     191.034448    -214.811718     -23.777270
  zz      21.828715     -51.006926     -29.178211
  xy       1.091364      -1.097814      -0.006450
  xz      -1.241665       1.409458       0.167793
  yz      -7.952213       7.846577      -0.105637
 
     1/3  trace=     -25.577480
     anisotropy=       5.412016
 
 ==============================================================================
 


    ------------------------------------------------------------------------
         total  cpu-time :  4 minutes and 22 seconds
         total wall-time :  32.31 seconds
    ------------------------------------------------------------------------

   ****  ridft : all done  ****


    2018-04-28 21:08:12.227 

