
   OpenMP run-time library returned nthreads = 28
 operating system is UNIX !

 dscf (c-16-37) : TURBOMOLE V7.3 ( 22142 ) 4 Jul 2018 at 18:12:42
 Copyright (C) 2018 TURBOMOLE GmbH, Karlsruhe


    2019-04-01 21:58:38.689 



                             d s c f - program

                   idea & directorship : reinhart ahlrichs
                   program development : marco haeser
                                         michael baer
                           dft version : oliver treutler


                          quantum chemistry group
                          universitaet  karlsruhe
                                  germany




                          References             
                                                 
          TURBOMOLE:                             
              R. Ahlrichs, M. Baer, M. Haeser, H. Horn, and
              C. Koelmel
              Electronic structure calculations on workstation
              computers: the program system TURBOMOLE
              Chem. Phys. Lett. 162: 165 (1989)
          Density Functional:                              
              O. Treutler and R. Ahlrichs                      
              Efficient Molecular Numerical Integration Schemes
              J. Chem. Phys. 102: 346 (1995)                   
          Parallel Version:                                
              Performance of parallel TURBOMOLE for Density    
              Functional Calculations                          
              M. v. Arnim and R. Ahlrichs                      
              J. Comp. Chem. 19: 1746 (1998)                   
                                         




              +--------------------------------------------------+
              | Atomic coordinate, charge and isotop information |
              +--------------------------------------------------+

                    atomic coordinates            atom    charge  isotop
          3.75632288    2.09713718    7.01148787    c      6.000     0
          4.97490356    3.73398724    7.13195927    h      1.000     0
          4.78802477   -0.32388753    7.12774332    c      6.000     0
          6.80664323   -0.56605036    7.34079902    h      1.000     0
          3.21643501   -2.43206619    6.97911555    c      6.000     0
          4.01594357   -4.31111997    7.07294737    h      1.000     0
          0.61541301   -2.11906135    6.70564053    c      6.000     0
         -0.60365422   -3.75444970    6.57783338    h      1.000     0
         -0.41554573    0.30022793    6.58476263    c      6.000     0
         -2.43118060    0.54179013    6.35198851    h      1.000     0
          1.15534004    2.40780313    6.73985424    c      6.000     0
          0.35499401    4.28601145    6.64089130    h      1.000     0
 
       center of nuclear mass  :    2.18601974   -0.01164094    6.85768538
       center of nuclear charge:    2.18603784   -0.01164077    6.85733437

              +--------------------------------------------------+
              |               basis set information              |
              +--------------------------------------------------+

              we will work with the 1s 3p 5d 7f 9g ... basis set
              ...i.e. with spherical basis functions...

   type   atoms  prim   cont   basis
   ---------------------------------------------------------------------------
    c        6     77     55   cc-pVQZ   [5s4p3d2f1g|21s6p3d2f1g]
    h        6     32     30   cc-pVQZ   [4s3p2d1f|6s3p2d1f]
   ---------------------------------------------------------------------------
   total:   12    654    510
   ---------------------------------------------------------------------------

   total number of primitive shells          :   45
   total number of contracted shells         :  150
   total number of cartesian basis functions :  630
   total number of SCF-basis functions       :  510


 integral neglect threshold       :  0.53E-13
 integral storage threshold THIZE :  0.10E-04
 integral storage threshold THIME :         5


 DENSITY CONVERGENCE CHECK SWITCHED ON !
 SCF CONVERGENCE IF RMS(delta[D]) <     0.1000000000E-06


 symmetry group of the molecule :   c1 

 the group has the following generators :
   c1(z)

    1 symmetry operations found

 there are 1 real representations :   a   

 maximum number of shells which are related by symmetry :  1


    mo occupation :
   irrep   mo's   occupied
    a      510       21
 
 number of basis functions   :                    510
 number of occupied orbitals :                     21
 

 automatic virtual orbital shift switched on 
      shift if e(lumo)-e(homo) < 0.10000000    


          ------------------------
          nuclear repulsion energy  :   203.711723773    
          ------------------------


         -----------------
         -S,T+V- integrals
         -----------------

 1e-integrals will be neglected if expon. factor < 0.530470E-14
 
   Difference densities algorithm switched on.
   The maximal number of linear combinations of
   difference densities is                    20 .

 DIIS switched on: error vector is FDS-SDF
 Max. Iterations for DIIS is     :   5
 DIIS matrix (see manual) 
    Scaling factor of diagonals  :  1.200
    threshold for scaling factor :  0.000

 scf convergence criterion : increment of total energy < .1000000D-08
                  and increment of one-electron energy < .1000000D-05

  MOs are in ASCII format !


 reading orbital data $scfmo  from file mos
 orbital characterization : scfconv=9

 DSCF restart information will be dumped onto file mos

 
                                              current damping :  0.700
 ITERATION  ENERGY          1e-ENERGY        2e-ENERGY     RMS[dD(SAO)]   TOL
   1  -230.74236331777    -714.85510660     280.40101951    0.000D+00 0.529D-13
          max. resid. norm for Fia-block=  1.027D-01 for orbital      6a         
          max. resid. fock norm         =  2.304D-01 for orbital    510a         
          Delta Eig. =    21.9601007651 eV 
 
                                              current damping :  0.650
 ITERATION  ENERGY          1e-ENERGY        2e-ENERGY     RMS[dD(SAO)]   TOL
   2  -230.78344883562    -713.96409728     279.46892467    0.151D-02 0.346D-13
          Norm of current diis error: 0.59303    
          max. resid. norm for Fia-block=  4.926D-02 for orbital      6a         
          max. resid. fock norm         =  8.317D-02 for orbital    510a         
          Delta Eig. =     9.7974245765 eV 
 
                                              current damping :  0.600
 ITERATION  ENERGY          1e-ENERGY        2e-ENERGY     RMS[dD(SAO)]   TOL
   3  -230.79169394090    -714.06917557     279.56575785    0.652D-03 0.262D-13
          Norm of current diis error: 0.26256    
          max. resid. norm for Fia-block=  2.038D-02 for orbital      6a         
          max. resid. fock norm         =  3.425D-02 for orbital    510a         
          Delta Eig. =     3.7490999567 eV 
 
                                              current damping :  0.650
 ITERATION  ENERGY          1e-ENERGY        2e-ENERGY     RMS[dD(SAO)]   TOL
   4  -230.79340790331    -713.97900853     279.47387686    0.268D-03 0.225D-13
          Norm of current diis error: 0.10556    
          max. resid. norm for Fia-block=  7.703D-03 for orbital      6a         
          max. resid. fock norm         =  1.261D-02 for orbital    510a         
          Delta Eig. =     1.3831607613 eV 
 
                                              current damping :  0.500
 ITERATION  ENERGY          1e-ENERGY        2e-ENERGY     RMS[dD(SAO)]   TOL
   5  -230.79368905908    -713.96518468     279.45977184    0.990D-04 0.206D-13
          Norm of current diis error: 0.44520E-01
          max. resid. norm for Fia-block=  3.008D-03 for orbital      6a         
          max. resid. fock norm         =  5.010D-03 for orbital    510a         
 mo-orthogonalization: Cholesky decomposition
          Delta Eig. =     0.5923974097 eV 
 
                                              current damping :  0.350
 ITERATION  ENERGY          1e-ENERGY        2e-ENERGY     RMS[dD(SAO)]   TOL
   6  -230.79374365895    -713.95661489     279.45114746    0.436D-04 0.191D-13
          Norm of current diis error: 0.16230E-01
          max. resid. norm for Fia-block=  1.081D-03 for orbital     14a         
          max. resid. fock norm         =  1.678D-03 for orbital    510a         
          Delta Eig. =     0.2179128211 eV 
 
                                              current damping :  0.200
 ITERATION  ENERGY          1e-ENERGY        2e-ENERGY     RMS[dD(SAO)]   TOL
   7  -230.79375172201    -713.95305268     279.44757718    0.168D-04 0.176D-13
          Norm of current diis error: 0.48248E-02
          max. resid. norm for Fia-block=  3.338D-04 for orbital     14a         
          max. resid. fock norm         =  4.312D-04 for orbital    510a         
          Delta Eig. =     0.0640215495 eV 
 
                                              current damping :  0.050
 ITERATION  ENERGY          1e-ENERGY        2e-ENERGY     RMS[dD(SAO)]   TOL
   8  -230.79375254095    -713.95219828     279.44672197    0.541D-05 0.163D-13
          Norm of current diis error: 0.10699E-02
          max. resid. norm for Fia-block=  7.491D-05 for orbital     14a         
          max. resid. fock norm         =  7.491D-05 for orbital     14a         
          Delta Eig. =     0.0122670921 eV 
 
                                              current damping :  0.050
 ITERATION  ENERGY          1e-ENERGY        2e-ENERGY     RMS[dD(SAO)]   TOL
   9  -230.79375259207    -713.95180844     279.44633207    0.142D-05 0.152D-13
          Norm of current diis error: 0.17292E-03
          max. resid. norm for Fia-block=  1.253D-05 for orbital     17a         
          max. resid. fock norm         =  1.254D-05 for orbital     17a         
          Delta Eig. =     0.0006732062 eV 
 
                                              current damping :  0.100
 ITERATION  ENERGY          1e-ENERGY        2e-ENERGY     RMS[dD(SAO)]   TOL
  10  -230.79375259388    -713.95184875     279.44637238    0.284D-06 0.146D-13
          Norm of current diis error: 0.44462E-04
          max. resid. norm for Fia-block=  4.302D-06 for orbital     17a         
          max. resid. fock norm         =  4.303D-06 for orbital     17a         
 mo-orthogonalization: Cholesky decomposition
          Delta Eig. =     0.0000955654 eV 

 DENSITY CONVERGED !

 
                                              current damping :  0.150
 ITERATION  ENERGY          1e-ENERGY        2e-ENERGY     RMS[dD(SAO)]   TOL
  11  -230.79375259401    -713.95180060     279.44632424    0.708D-07 0.143D-13
          Norm of current diis error: 0.16446E-04
          max. resid. norm for Fia-block=  9.844D-07 for orbital     17a         
          max. resid. fock norm         =  9.847D-07 for orbital     17a         
          Delta Eig. =     0.0000367846 eV 

 DENSITY CONVERGED !

 
                                              current damping :  0.200
 ITERATION  ENERGY          1e-ENERGY        2e-ENERGY     RMS[dD(SAO)]   TOL
  12  -230.79375259403    -713.95181848     279.44634212    0.178D-07 0.140D-13
          Norm of current diis error: 0.49774E-05
          max. resid. norm for Fia-block=  4.555D-07 for orbital     21a         
          max. resid. fock norm         =  4.555D-07 for orbital     21a         
          Delta Eig. =     0.0000072615 eV 

 ENERGY & DENSITY CONVERGED !

 
                                              current damping :  0.250
 ITERATION  ENERGY          1e-ENERGY        2e-ENERGY     RMS[dD(SAO)]   TOL
  13  -230.79375259402    -713.95181473     279.44633836    0.435D-08 0.151D-13
          max. resid. norm for Fia-block=  1.398D-07 for orbital     20a         
          max. resid. fock norm         =  1.399D-07 for orbital     20a         

 convergence criteria satisfied after    13 iterations


                  ------------------------------------------ 
                 |  total energy      =   -230.79375259402  |
                  ------------------------------------------ 
                 :  kinetic energy    =    230.51426882603  :
                 :  potential energy  =   -461.30802142005  :
                 :  virial theorem    =      1.99878903235  :
                 :  wavefunction norm =      1.00000000000  :
                  .......................................... 


 orbitals $scfmo  will be written to file mos

    irrep                 17a         18a         19a         20a         21a   
 eigenvalues H         -0.50195    -0.49436    -0.49410    -0.33636    -0.33624
            eV         -13.6588    -13.4524    -13.4452     -9.1528     -9.1495
 occupation              2.0000      2.0000      2.0000      2.0000      2.0000 

    irrep                 22a         23a         24a         25a         26a   
 eigenvalues H          0.12057     0.12315     0.12316     0.13813     0.13817
            eV           3.2809      3.3512      3.3514      3.7586      3.7598
 
 
 
 
 ==============================================================================
                           electrostatic moments
 ==============================================================================

 reference point for electrostatic moments:    0.00000   0.00000   0.00000

 
              nuc           elec       ->  total
 ------------------------------------------------------------------------------
                          charge      
 ------------------------------------------------------------------------------
          42.000000     -42.000000       0.000000
 
 ------------------------------------------------------------------------------
                       dipole moment  
 ------------------------------------------------------------------------------
   x      91.813589     -91.813351       0.000239
   y      -0.488912       0.488884      -0.000029
   z     288.008044    -288.012702      -0.004659
 
   | dipole moment | =     0.0047 a.u. =     0.0119 debye 
 
 ------------------------------------------------------------------------------
                     quadrupole moment
 ------------------------------------------------------------------------------
  xx     389.209832    -412.981505     -23.771672
  yy     190.383595    -214.096065     -23.712470
  zz    1977.040385   -2007.333088     -30.292703
  xy      -0.976373       0.979611       0.003238
  xz     649.337800    -648.637974       0.699826
  yz      -4.304894       4.271273      -0.033621
 
     1/3  trace=     -25.925615
     anisotropy=       6.662289
 
 ==============================================================================
 


    ------------------------------------------------------------------------
         total  cpu-time :  1 hours 21 minutes and  9 seconds
         total wall-time :  6 minutes and 46 seconds
    ------------------------------------------------------------------------

   ****  dscf : all done  ****


    2019-04-01 22:05:24.196 

