STARTING ridft ON 32 PROCESSORS!
RUNNING PROGRAM /sopt/TURBOMOLE/7.3-official/bin/em64t-unknown-linux-gnu_smp/ridft_mpi.
           SMPCPUS    set: Shared-memory Parallelization with  32 CPUs.

           SMP Parallelization Reference:
           C. van Wullen, J. Comput. Chem. 32 (2011) 1195--1201
 operating system is UNIX !

 ridft (c-16-28) : TURBOMOLE V7.3 ( 22118 ) 1 Jul 2018 at 20:38:15
 Copyright (C) 2018 TURBOMOLE GmbH, Karlsruhe


    2019-03-12 22:22:28.776 



                                  r i d f t

                        DFT program with RI approximation 
                                for coulomb part 




                                                 
                                 References:     
                                                 
          TURBOMOLE:                             
              R. Ahlrichs, M. Baer, M. Haeser, H. Horn, and
              C. Koelmel
              Electronic structure calculations on workstation
              computers: the program system TURBOMOLE
              Chem. Phys. Lett. 162: 165 (1989)
          Density Functional:                              
              O. Treutler and R. Ahlrichs                      
              Efficient Molecular Numerical Integration Schemes
              J. Chem. Phys. 102: 346 (1995)                   
          Parallel Version:                                
              Performance of parallel TURBOMOLE for Density    
              Functional Calculations                          
              M. v. Arnim and R. Ahlrichs                      
              J. Comp. Chem. 19: 1746 (1998)                   
          RI-J Method:                                     
              Auxiliary Basis Sets to approximate Coulomb      
              Potentials                                       
              Chem. Phys. Lett. 240: 283 (1995)                
              K. Eichkorn, O. Treutler, H. Oehm, M. Haeser     
              and R. Ahlrichs                                  
              Chem. Phys. Lett. 242: 652 (1995)                
                                                           
              Auxiliary Basis Sets for Main Row Atoms and their
              Use to approximate Coulomb Potentials            
              K. Eichkorn, F. Weigend, O. Treutler and         
              R. Ahlrichs                                      
              Theo. Chem. Acc. 97: 119 (1997)                   
                                                           
              Accurate Coulomb-fitting basis sets for H to Rn 
              F. Weigend                                        
              Phys. Chem. Chem. Phys. 8: 1057 (2006)            
                                                           
          Multipole accelerated RI-J (MARI-J):             
              Fast evaluation of the Coulomb potential for     
              electron densities using multipole accelerated   
              resolution of identity approximation             
              M. Sierka, A. Hogekamp and R. Ahlrichs           
              J. Chem. Phys. 118: 9136 (2003)                  
          RI-JK Method:                                     
              A fully direct RI-HF algorithm: Implementation,
              optimised auxiliary basis sets, demonstration of
              accuracy and efficiency                         
              F. Weigend                                      
              Phys. Chem. Chem. Phys. 4: 4285 (2002)           
          Two-component HF and DFT with spin-orbit coupling:  
              Self-consistent treatment of spin-orbit         
              interactions with efficient Hartree-Fock and    
              density functional methods                      
              M. K. Armbruster, F. Weigend, C. van Wüllen and 
              W. Klopper                                      
              Phys. Chem. Chem. Phys. 10: 1748 (2008)         
          Two-component difference density and DIIS algorithm 
              Efficient two-component self-consistent field   
              procedures and gradients: implementation in     
              TURBOMOLE and application to Au20-              
              A. Baldes, F. Weigend                           
              Mol. Phys. 111: 2617 (2013)                     
          Relativistic all-electron 2c calculations           
              An efficient implementation of two-component    
              relativistic exact-decoupling methods for large 
              molecules                                       
              D. Peng, N. Middendorf, F. Weigend, M. Reiher   
              J. Chem. Phys. 138: 184105 (2013)               
          Finite nucleus model and SNSO approximation         
              Efficient implementation of one- and two-       
              component analytical energy gradients in exact  
              two-component theory                            
              Y. J. Franzke, N. Middendorf, F. Weigend        
              J. Chem. Phys. 148: 104110 (2018)               
                                         




              +--------------------------------------------------+
              |      general information about current run       |
              +--------------------------------------------------+

 
 PBE functional
 exchange:    LDA + PBE
 correlation: LDA (PW) + PBE
 A DFT calculation using the RI-J approximation will be carried out.
 Allocatable memory for RI due to $ricore (MB):                  8000


              +--------------------------------------------------+
              | Atomic coordinate, charge and isotop information |
              +--------------------------------------------------+

                    atomic coordinates            atom    charge  isotop
          1.18312216   -1.60799188    1.52295994    n      7.000     0
          0.77325684   -3.42323994    1.95473540    h      1.000     0
         -0.81722377   -0.16504076    0.55683381    c      6.000     0
         -2.89273913   -1.11192077    0.23355612    o      8.000     0
         -0.12637471    2.44015652    0.03710929    c      6.000     0
         -1.53019350    3.68838710   -0.74235935    h      1.000     0
          2.23657039    3.24642668    0.54902820    c      6.000     0
          2.83808562    5.16626679    0.20755398    h      1.000     0
          4.03292084    1.67543422    1.54784023    n      7.000     0
          5.77374816    2.31283841    1.97179275    h      1.000     0
          3.59573912   -0.83748588    2.13220021    c      6.000     0
          5.18504248   -2.19949672    3.07758398    o      8.000     0
 
       center of nuclear mass  :    1.57350028    0.10733316    1.23781779
       center of nuclear charge:    1.58686019    0.16947152    1.22461162

              +--------------------------------------------------+
              |               basis set information              |
              +--------------------------------------------------+

              we will work with the 1s 3p 5d 7f 9g ... basis set
              ...i.e. with spherical basis functions...

   type   atoms  prim   cont   basis
   ---------------------------------------------------------------------------
    n        2     68     48   def2-QZVP   [7s4p3d2f|15s8p3d2f]
    h        4     26     23   def2-QZVP   [4s3p2d|7s3p2d]
    c        4     68     48   def2-QZVP   [7s4p3d2f|15s8p3d2f]
    o        2     68     48   def2-QZVP   [7s4p3d2f|15s8p3d2f]
   ---------------------------------------------------------------------------
   total:   12    648    476
   ---------------------------------------------------------------------------

   total number of primitive shells          :   96
   total number of contracted shells         :  164
   total number of cartesian basis functions :  556
   total number of SCF-basis functions       :  476


 integral neglect threshold       :  0.60E-11
 integral storage threshold THIZE :  0.10E-04
 integral storage threshold THIME :         5

 RI-J AUXILIARY BASIS SET information:

              we will work with the 1s 3p 5d 7f 9g ... basis set
              ...i.e. with spherical basis functions...

   type   atoms  prim   cont   basis
   ---------------------------------------------------------------------------
    n        2     70     49   def2-QZVP   [6s4p3d1f1g|12s5p4d2f1g]
    h        4     16     11   def2-QZVP   [3s1p1d|5s2p1d]
    c        4     70     49   def2-QZVP   [6s4p3d1f1g|12s5p4d2f1g]
    o        2     70     49   def2-QZVP   [6s4p3d1f1g|12s5p4d2f1g]
   ---------------------------------------------------------------------------
   total:   12    624    436
   ---------------------------------------------------------------------------

   total number of primitive shells          :   80
   total number of contracted shells         :  140
   total number of cartesian basis functions :  536
   total number of SCF-basis functions       :  436


 symmetry group of the molecule :   c1 

 the group has the following generators :
   c1(z)

    1 symmetry operations found

 there are 1 real representations :   a   

 maximum number of shells which are related by symmetry :  1


    mo occupation :
   irrep   mo's   occupied
    a      476       29
 
 number of basis functions   :                    476
 number of occupied orbitals :                     29
 
  
           ------------------
           density functional
           ------------------
 PBE functional
 exchange:    LDA + PBE
 correlation: LDA (PW) + PBE

 iterations will be done with small grid
  
 spherical integration : Lebedev's spherical grid
 spherical gridsize    :                     4
    i.e. gridpoints    :                   434
 value for diffuse not defined
 radial integration    : Chebyshev 2nd kind (scaling 3)
 radial gridsize       :                     6
 integration cells     :                    12
 partition function    : becke
 partition sharpness   :                     3
  

 biggest AO integral is expected to be     6.990327543
  
           ------------------------
               RI-J - INFORMATION
           ------------------------
 Contributions to RI integral batches: 
  neglected integral batches:                  2077
  direct contribution:                            0
  memory contribution:                 11453
 Memory core needed for (P|Q) and Cholesky      2 MByte
 Memory core minimum needed except of (P|Q)     2 MByte
 Total minimum memory core needed (sum)         3 MByte
  
 ****************************************
 Memory allocated for RI-J   564 MByte
 ****************************************
                                            

          ------------------------
          nuclear repulsion energy  :   357.127131193    
          ------------------------

  _________________________________
 |                                 |
 |         DFTD3 V3.1 Rev 0        |
 | S.Grimme, University Bonn       |
 |            June  2014           |
 |   see standalone version        |
 |       dftd3 -h for options      |
 |_________________________________|
 
 Please cite DFT-D3 work done with this code as:
 S. Grimme, J. Antony, S. Ehrlich and H. Krieg,
 J. Chem. Phys, 132 (2010), 154104.
 If used with BJ-damping cite also
 S. Grimme, S. Ehrlich and L. Goerigk,
 J. Comput. Chem. 32 (2011), 1456-1465
 For DFT-D2 the reference is
 S. Grimme, J. Comput. Chem., 27 (2006), 1787-1799
 
C6 coefficients used:
                     2  C6 for element                      1
Z=  1 CN= 0.912     C6(AA)=    3.03
Z=  1 CN= 0.000     C6(AA)=    7.59
                     5  C6 for element                      6
Z=  6 CN= 0.000     C6(AA)=   49.11
Z=  6 CN= 0.987     C6(AA)=   43.25
Z=  6 CN= 1.998     C6(AA)=   29.36
Z=  6 CN= 2.999     C6(AA)=   25.78
Z=  6 CN= 3.984     C6(AA)=   18.21
                     4  C6 for element                      7
Z=  7 CN= 0.000     C6(AA)=   25.27
Z=  7 CN= 0.994     C6(AA)=   22.12
Z=  7 CN= 2.014     C6(AA)=   19.68
Z=  7 CN= 2.990     C6(AA)=   15.58
                     3  C6 for element                      8
Z=  8 CN= 0.000     C6(AA)=   15.51
Z=  8 CN= 0.993     C6(AA)=   12.82
Z=  8 CN= 1.989     C6(AA)=   10.37

#           XYZ [au]              R0(AA) [Ang.]  CN          C6(AA)     C8(AA)   C10(AA) [au]
  1   1.18312  -1.60799   1.52296   n   0.533  3.171        15.6       344.2      9301.8
  2   0.77326  -3.42324   1.95474   h   0.395  1.014         3.1        37.3       552.1
  3  -0.81722  -0.16504   0.55683   c   0.610  3.111        25.4       734.9     26035.3
  4  -2.89274  -1.11192   0.23356   o   0.510  1.057        12.8       257.6      6368.0
  5  -0.12637   2.44016   0.03711   c   0.610  3.133        25.3       732.6     25955.8
  6  -1.53019   3.68839  -0.74236   h   0.395  1.004         3.1        37.3       552.9
  7   2.23657   3.24643   0.54903   c   0.610  3.132        25.3       732.7     25960.5
  8   2.83809   5.16627   0.20755   h   0.395  1.004         3.1        37.3       552.9
  9   4.03292   1.67543   1.54784   n   0.533  3.144        15.6       344.3      9304.6
 10   5.77375   2.31284   1.97179   h   0.395  1.013         3.1        37.3       552.2
 11   3.59574  -0.83749   2.13220   c   0.610  3.118        25.4       734.2     26011.6
 12   5.18504  -2.19950   3.07758   o   0.510  1.059        12.8       257.6      6367.2

molecular C6(AA) [au] =      1768.42

           DFT-D V3(BJ)
 DF pbe                                               
 parameters
 s6       :    1.0000
 s8       :    0.7875
 a1       :    0.4289
 a2       :    4.4407
 k1-k3    :   16.0000    1.3333   -4.0000
 
 Edisp /kcal,au:    -7.2179 -0.01150241

 E6    /kcal :    -5.0557
 E8    /kcal :    -2.1622
 % E8        : 29.96
 nuclear repulsion energy                  =     357.127131193
 empirical dispersive energy correction    =      -0.011502406
 nuclear repulsion + dispersion correction =     357.115628787


         -----------------
         -S,T+V- integrals
         -----------------

 1e-integrals will be neglected if expon. factor < 0.601072E-12
 Difference densities >>NOT<< switched on in parallel ridft!

 DIIS switched on: error vector is FDS-SDF
 Max. Iterations for DIIS is     :   4
 DIIS matrix (see manual) 
    Scaling factor of diagonals  :  1.200
    threshold for scaling factor :  0.000

 scf convergence criterion : increment of total energy < .1000000D-06
                  and increment of one-electron energy < .1000000D-03

  MOs are in ASCII format !


 automatic virtual orbital shift switched on 
      shift if e(lumo)-e(homo) < 0.10000000    


 reading orbital data $scfmo  from file mos
 orbital characterization : expanded
 mo provided and orthogonalized by Cholesky decomposition

 DSCF restart information will be dumped onto file mos


 Starting SCF iterations

          Overall gridpoints after grid construction =         35890

 ITERATION  ENERGY          1e-ENERGY        2e-ENERGY     NORM[dD(SAO)]  TOL
   1  -412.62251341987    -1261.6847616     491.94661936    0.000D+00 0.600D-11
                            Exc = -53.5656078417     Coul =  545.512227206    
                              N = 58.000198254    
                            current damping = 0.700
 
          max. resid. norm for Fia-block=  8.145D-01 for orbital     10a         
          max. resid. fock norm         =  7.809D+01 for orbital    433a         

 ITERATION  ENERGY          1e-ENERGY        2e-ENERGY     NORM[dD(SAO)]  TOL
   2  -414.28686264550    -1268.5513788     497.14888741    0.000D+00 0.600D-11
                            Exc = -53.5520599753     Coul =  550.700947385    
                              N = 58.000151402    
                            current damping = 0.650
 
          Norm of current diis error:  3.2853    
          max. resid. norm for Fia-block=  1.642D-01 for orbital      1a         
          max. resid. fock norm         =  3.723D-01 for orbital    315a         

 ITERATION  ENERGY          1e-ENERGY        2e-ENERGY     NORM[dD(SAO)]  TOL
   3  -414.49314950271    -1271.1361584     499.52738008    0.000D+00 0.600D-11
                            Exc = -53.8173584632     Coul =  553.344738545    
                              N = 58.000122290    
                            current damping = 0.550
 
          Norm of current diis error:  1.5642    
          max. resid. norm for Fia-block=  6.629D-02 for orbital      1a         
          max. resid. fock norm         =  7.848D-02 for orbital    307a         

 ITERATION  ENERGY          1e-ENERGY        2e-ENERGY     NORM[dD(SAO)]  TOL
   4  -414.55297084814    -1271.3727704     499.70417078    0.000D+00 0.600D-11
                            Exc = -53.7166234863     Coul =  553.420794269    
                              N = 58.000112261    
                            current damping = 0.400
 
          Norm of current diis error: 0.73534    
          max. resid. norm for Fia-block=  3.284D-02 for orbital     10a         
          max. resid. fock norm         =  8.264D-02 for orbital    451a         

 ITERATION  ENERGY          1e-ENERGY        2e-ENERGY     NORM[dD(SAO)]  TOL
   5  -414.56240625236    -1271.6215507     499.94351570    0.000D+00 0.600D-11
                            Exc = -53.8169550408     Coul =  553.760470738    
                              N = 58.000106239    
                            current damping = 0.250
 
          Norm of current diis error: 0.47968    
          max. resid. norm for Fia-block=  1.087D-02 for orbital     27a         
          max. resid. fock norm         =  1.271D-02 for orbital    435a         
          mo-orthogonalization: Cholesky decomposition

 ITERATION  ENERGY          1e-ENERGY        2e-ENERGY     NORM[dD(SAO)]  TOL
   6  -414.56877951247    -1272.0086747     500.32426636    0.000D+00 0.600D-11
                            Exc = -53.8106108153     Coul =  554.134877173    
                              N = 58.000105098    
                            current damping = 0.100
 
          Norm of current diis error: 0.12227    
          max. resid. norm for Fia-block=  4.322D-03 for orbital     26a         
          max. resid. fock norm         =  8.099D-03 for orbital    435a         

 ITERATION  ENERGY          1e-ENERGY        2e-ENERGY     NORM[dD(SAO)]  TOL
   7  -414.56878281194    -1271.6980153     500.01360372    0.000D+00 0.600D-11
                            Exc = -53.7834176340     Coul =  553.797021352    
                              N = 58.000103664    
                            current damping = 0.150
 
          Norm of current diis error: 0.11793    
          max. resid. norm for Fia-block=  2.736D-03 for orbital     28a         
          max. resid. fock norm         =  5.831D-03 for orbital    475a         

 ITERATION  ENERGY          1e-ENERGY        2e-ENERGY     NORM[dD(SAO)]  TOL
   8  -414.56912042100    -1271.7926804     500.10793120    0.000D+00 0.600D-11
                            Exc = -53.7966530852     Coul =  553.904584284    
                              N = 58.000103476    
                            current damping = 0.200
 
          Norm of current diis error: 0.37449E-01
          max. resid. norm for Fia-block=  1.371D-03 for orbital     29a         
          max. resid. fock norm         =  3.186D-03 for orbital    476a         

 ITERATION  ENERGY          1e-ENERGY        2e-ENERGY     NORM[dD(SAO)]  TOL
   9  -414.56913051840    -1271.8670482     500.18228894    0.000D+00 0.600D-11
                            Exc = -53.8036811347     Coul =  553.985970073    
                              N = 58.000104555    
                            current damping = 0.050
 
          Norm of current diis error: 0.31195E-01
          max. resid. norm for Fia-block=  9.081D-04 for orbital     29a         
          max. resid. fock norm         =  1.639D-03 for orbital    476a         

 ITERATION  ENERGY          1e-ENERGY        2e-ENERGY     NORM[dD(SAO)]  TOL
  10  -414.56915544730    -1271.8459235     500.16113922    0.000D+00 0.600D-11
                            Exc = -53.7988921751     Coul =  553.960031399    
                              N = 58.000103804    
                            current damping = 0.100
 
          Norm of current diis error: 0.15237E-01
          max. resid. norm for Fia-block=  3.219D-04 for orbital     29a         
          max. resid. fock norm         =  5.127D-04 for orbital     23a         
          mo-orthogonalization: Cholesky decomposition

 ITERATION  ENERGY          1e-ENERGY        2e-ENERGY     NORM[dD(SAO)]  TOL
  11  -414.56916162599    -1271.8355812     500.15079074    0.000D+00 0.600D-11
                            Exc = -53.7997836700     Coul =  553.950574414    
                              N = 58.000104004    
                            current damping = 0.050
 
          Norm of current diis error: 0.37241E-02
          max. resid. norm for Fia-block=  7.866D-05 for orbital     24a         
          max. resid. fock norm         =  1.162D-04 for orbital     23a         

 ITERATION  ENERGY          1e-ENERGY        2e-ENERGY     NORM[dD(SAO)]  TOL
  12  -414.56916191137    -1271.8412862     500.15649552    0.000D+00 0.600D-11
                            Exc = -53.7998414420     Coul =  553.956336963    
                              N = 58.000103983    
                            current damping = 0.100
 
          Norm of current diis error: 0.15918E-02
          max. resid. norm for Fia-block=  4.584D-05 for orbital     25a         
          max. resid. fock norm         =  7.162D-05 for orbital    472a         

 ITERATION  ENERGY          1e-ENERGY        2e-ENERGY     NORM[dD(SAO)]  TOL
  13  -414.56916193471    -1271.8395466     500.15475593    0.000D+00 0.600D-11
                            Exc = -53.7997252966     Coul =  553.954481222    
                              N = 58.000103976    
                            current damping = 0.150
 
          Norm of current diis error: 0.11277E-02
          max. resid. norm for Fia-block=  2.905D-05 for orbital     27a         
          max. resid. fock norm         =  6.738D-05 for orbital    475a         

 ITERATION  ENERGY          1e-ENERGY        2e-ENERGY     NORM[dD(SAO)]  TOL
  14  -414.56916196161    -1271.8390635     500.15427277    0.000D+00 0.600D-11
                            Exc = -53.7997375644     Coul =  553.954010335    
                              N = 58.000103974    
                            current damping = 0.050
 
          Norm of current diis error: 0.45416E-03
          max. resid. norm for Fia-block=  1.630D-05 for orbital     29a         
          max. resid. fock norm         =  5.012D-05 for orbital    476a         

 ITERATION  ENERGY          1e-ENERGY        2e-ENERGY     NORM[dD(SAO)]  TOL
  15  -414.56916196429    -1271.8395182     500.15472742    0.000D+00 0.600D-11
                            Exc = -53.7997693487     Coul =  553.954496766    
                              N = 58.000103983    
                            current damping = 0.100
 
          Norm of current diis error: 0.34351E-03
          max. resid. norm for Fia-block=  8.114D-06 for orbital     29a         
          max. resid. fock norm         =  2.527D-05 for orbital    476a         
          mo-orthogonalization: Cholesky decomposition

 ENERGY CONVERGED !

          Overall gridpoints after grid construction =        125293

 ITERATION  ENERGY          1e-ENERGY        2e-ENERGY     NORM[dD(SAO)]  TOL
  16  -414.56906407284    -1271.8395399     500.15484703    0.000D+00 0.600D-11
                            Exc = -53.7996681920     Coul =  553.954515219    
                              N = 57.999991325    
                            current damping = 0.050
 
          Norm of current diis error: 0.90750E-04
          max. resid. norm for Fia-block=  2.897D-06 for orbital     28a         
          max. resid. fock norm         =  5.304D-06 for orbital    472a         

 End of SCF iterations

   convergence criteria satisfied after    16 iterations


                  ------------------------------------------ 
                 |  total energy      =   -414.56906407284  |
                  ------------------------------------------ 
                 :  kinetic energy    =    413.07040445666  :
                 :  potential energy  =   -827.63946852950  :
                 :  virial theorem    =      1.99638501821  :
                 :  wavefunction norm =      1.00000000000  :
                  .......................................... 


 orbitals $scfmo  will be written to file mos

    irrep                 25a         26a         27a         28a         29a   
 eigenvalues H         -0.34170    -0.26231    -0.25938    -0.23457    -0.22885
            eV          -9.2982     -7.1379     -7.0581     -6.3830     -6.2275
 occupation              2.0000      2.0000      2.0000      2.0000      2.0000 

    irrep                 30a         31a         32a         33a         34a   
 eigenvalues H         -0.08715    -0.03949    -0.02484     0.01577     0.02119
            eV          -2.3715     -1.0745     -0.6760      0.4291      0.5767
 
 
 
 
 ==============================================================================
                           electrostatic moments
 ==============================================================================

 reference point for electrostatic moments:    0.00000   0.00000   0.00000

 
              nuc           elec       ->  total
 ------------------------------------------------------------------------------
                          charge      
 ------------------------------------------------------------------------------
          58.000000     -58.000000       0.000000
 
 ------------------------------------------------------------------------------
                       dipole moment  
 ------------------------------------------------------------------------------
   x      92.037891     -91.207554       0.830337
   y       9.829348      -8.339128       1.490221
   z      71.027474     -71.203989      -0.176516
 
   | dipole moment | =     1.7150 a.u. =     4.3592 debye 
 
 ------------------------------------------------------------------------------
                     quadrupole moment
 ------------------------------------------------------------------------------
  xx     561.693231    -600.023224     -38.329994
  yy     247.038185    -276.201814     -29.163630
  zz     148.473125    -184.188054     -35.714929
  xy      12.658159      -6.663778       5.994381
  xz     243.794774    -246.034527      -2.239753
  yz     -59.044726      60.732915       1.688189
 
     1/3  trace=     -34.402851
     anisotropy=      14.081456
 
 ==============================================================================
 


    ------------------------------------------------------------------------
         total  cpu-time :  2 minutes and 44 seconds
         total wall-time :  35.66 seconds
    ------------------------------------------------------------------------

   ****  ridft : all done  ****


    2019-03-12 22:23:04.385 

