           Doing BLAS/Lapack in the master proc. with  8 CPUs.
           SMPCPUS    set: Shared-memory Parallelization with   8 CPUs.

           SMP Parallelization Reference:
           C. van Wullen, J. Comput. Chem. 32 (2011) 1195--1201
 operating system is UNIX !

 ridft (c-18-362.gp.local) : TURBOMOLE V7.2 ( 21454 ) 4 Oct 2017 at 12:48:15
 Copyright (C) 2017 TURBOMOLE GmbH, Karlsruhe


    2018-04-24 21:16:06.099 



                                  r i d f t

                        DFT program with RI approximation 
                                for coulomb part 




                                                 
                                 References:     
                                                 
          TURBOMOLE:                             
              R. Ahlrichs, M. Baer, M. Haeser, H. Horn, and
              C. Koelmel
              Electronic structure calculations on workstation
              computers: the program system TURBOMOLE
              Chem. Phys. Lett. 162: 165 (1989)
          Density Functional:                              
              O. Treutler and R. Ahlrichs                      
              Efficient Molecular Numerical Integration Schemes
              J. Chem. Phys. 102: 346 (1995)                   
          Parallel Version:                                
              Performance of parallel TURBOMOLE for Density    
              Functional Calculations                          
              M. v. Arnim and R. Ahlrichs                      
              J. Comp. Chem. 19: 1746 (1998)                   
          RI-J Method:                                     
              Auxiliary Basis Sets to approximate Coulomb      
              Potentials                                       
              Chem. Phys. Lett. 240: 283 (1995)                
              K. Eichkorn, O. Treutler, H. Oehm, M. Haeser     
              and R. Ahlrichs                                  
              Chem. Phys. Lett. 242: 652 (1995)                
                                                           
              Auxiliary Basis Sets for Main Row Atoms and their
              Use to approximate Coulomb Potentials            
              K. Eichkorn, F. Weigend, O. Treutler and         
              R. Ahlrichs                                      
              Theo. Chem. Acc. 97: 119 (1997)                   
                                                           
              Accurate Coulomb-fitting basis sets for H to Rn 
              F. Weigend                                        
              Phys. Chem. Chem. Phys. 8: 1057 (2006)            
                                                           
          Multipole accelerated RI-J (MARI-J):             
              Fast evaluation of the Coulomb potential for     
              electron densities using multipole accelerated   
              resolution of identity approximation             
              M. Sierka, A. Hogekamp and R. Ahlrichs           
              J. Chem. Phys. 118: 9136 (2003)                  
          RI-JK Method:                                     
              A fully direct RI-HF algorithm: Implementation,
              optimised auxiliary basis sets, demonstration of
              accuracy and efficiency                         
              F. Weigend                                      
              Phys. Chem. Chem. Phys. 4: 4285 (2002)           
          Two-component HF and DFT with spin-orbit coupling:  
              Self-consistent treatment of spin-orbit         
              interactions with efficient Hartree-Fock and    
              density functional methods                      
              M. K. Armbruster, F. Weigend, C. van Wüllen and 
              W. Klopper                                      
              Phys. Chem. Chem. Phys. 10: 1748 (2008)         
          Relativistic all-electron 2c calculations           
              An efficient implementation of two-component    
              relativistic exact-decoupling methods for large 
              molecules                                       
              D. Peng, N. Middendorf, F. Weigend, M. Reiher   
              J. Chem. Phys. 138, 184105 (2013)               
                                         




              +--------------------------------------------------+
              |      general information about current run       |
              +--------------------------------------------------+

 

 DENSITY CONVERGENCE CHECK SWITCHED ON !
 SCF CONVERGENCE IF RMS(delta[D]) <     0.1000000000E-06

 TPSS meta-GGA functional
 exchange:    LDA + TPSS
 correlation: LDA (PW) + TPSS
 A DFT calculation using the RI-J approximation will be carried out.
 Allocatable memory for RI due to $ricore (MB):                   500


              +--------------------------------------------------+
              | Atomic coordinate, charge and isotop information |
              +--------------------------------------------------+

                    atomic coordinates            atom    charge  isotop
         -1.36873741   -1.33213565    4.31588478    c      6.000     0
          0.63365972   -1.19042022    3.87995234    h      1.000     0
         -1.79844605   -3.23519151    4.96176218    h      1.000     0
         -1.83233107   -0.04172430    5.84636928    h      1.000     0
         -3.05178489   -0.73213518    2.08638798    c      6.000     0
         -5.36176507   -0.78427808    2.25658391    o      8.000     0
         -1.80170339   -0.14438344   -0.07713824    n      7.000     0
          0.10168352   -0.14280001   -0.06923998    h      1.000     0
         -3.13340021    0.47260838   -2.37832061    c      6.000     0
         -5.14075800    0.33437653   -1.97788696    h      1.000     0
         -2.70288461    2.38665349   -3.00106244    h      1.000     0
         -2.65624839   -0.83967180   -3.89015920    h      1.000     0
          3.97367278   -0.11037319   -0.29305247    o      8.000     0
          5.04132512   -1.45766972   -0.86979576    h      1.000     0
          5.06924457    1.33374336   -0.24789086    h      1.000     0
 
       center of nuclear mass  :   -1.55291118   -0.42069004    0.91466919
       center of nuclear charge:   -1.44649904   -0.41141146    0.87888091

              +--------------------------------------------------+
              |               basis set information              |
              +--------------------------------------------------+

              we will work with the 1s 3p 5d 7f 9g ... basis set
              ...i.e. with spherical basis functions...

   type   atoms  prim   cont   basis
   ---------------------------------------------------------------------------
    c        3     77     55   cc-pVQZ   [5s4p3d2f1g|21s6p3d2f1g]
    h        9     32     30   cc-pVQZ   [4s3p2d1f|6s3p2d1f]
    o        2     77     55   cc-pVQZ   [5s4p3d2f1g|21s6p3d2f1g]
    n        1     77     55   cc-pVQZ   [5s4p3d2f1g|21s6p3d2f1g]
   ---------------------------------------------------------------------------
   total:   15    750    600
   ---------------------------------------------------------------------------

   total number of primitive shells          :  111
   total number of contracted shells         :  180
   total number of cartesian basis functions :  735
   total number of SCF-basis functions       :  600


 integral neglect threshold       :  0.45E-13
 integral storage threshold THIZE :  0.10E-04
 integral storage threshold THIME :         5

 RI-J AUXILIARY BASIS SET information:

              we will work with the 1s 3p 5d 7f 9g ... basis set
              ...i.e. with spherical basis functions...

   type   atoms  prim   cont   basis
   ---------------------------------------------------------------------------
    c        3     70     49   cc-pVQZ   [6s4p3d1f1g|12s5p4d2f1g]
    h        9     16     11   cc-pVQZ   [3s1p1d|5s2p1d]
    o        2     70     49   cc-pVQZ   [6s4p3d1f1g|12s5p4d2f1g]
    n        1     70     49   cc-pVQZ   [6s4p3d1f1g|12s5p4d2f1g]
   ---------------------------------------------------------------------------
   total:   15    564    393
   ---------------------------------------------------------------------------

   total number of primitive shells          :   80
   total number of contracted shells         :  135
   total number of cartesian basis functions :  474
   total number of SCF-basis functions       :  393


 symmetry group of the molecule :   c1 

 the group has the following generators :
   c1(z)

    1 symmetry operations found

 there are 1 real representations :   a   

 maximum number of shells which are related by symmetry :  1


    mo occupation :
   irrep   mo's   occupied
    a      600       25
 
 number of basis functions   :                    600
 number of occupied orbitals :                     25
 
  
           ------------------
           density functional
           ------------------
 TPSS meta-GGA functional
 exchange:    LDA + TPSS
 correlation: LDA (PW) + TPSS

 iterations will be done with small grid
  
 spherical integration : Lebedev's spherical grid
 spherical gridsize    :                     5
    i.e. gridpoints    :                   590
 value for diffuse not defined
 radial integration    : Chebyshev 2nd kind (scaling 3)
 radial gridsize       :                     8
 integration cells     :                    15
 partition function    : becke
 partition sharpness   :                     3
  

 biggest AO integral is expected to be     4.785886462
  
           ------------------------
               RI-J - INFORMATION
           ------------------------
 Contributions to RI integral batches: 
  neglected integral batches:                  3377
  direct contribution:                         3841
  memory contribution:                  9072
 Memory core needed for (P|Q) and Cholesky      2 MByte
 Memory core minimum needed except of (P|Q)     2 MByte
 Total minimum memory core needed (sum)         3 MByte
  
 ****************************************
 Memory allocated for RI-J   415 MByte
 ****************************************
                                            

          ------------------------
          nuclear repulsion energy  :   243.511940059    
          ------------------------


         -----------------
         -S,T+V- integrals
         -----------------

 1e-integrals will be neglected if expon. factor < 0.454689E-14
 Difference densities >>NOT<< switched on in parallel ridft!

 DIIS switched on: error vector is FDS-SDF
 Max. Iterations for DIIS is     :   4
 DIIS matrix (see manual) 
    Scaling factor of diagonals  :  1.200
    threshold for scaling factor :  0.000

 scf convergence criterion : increment of total energy < .1000000D-08
                  and increment of one-electron energy < .1000000D-05

  MOs are in ASCII format !


 automatic virtual orbital shift switched on 
      shift if e(lumo)-e(homo) < 0.10000000    


 reading orbital data $scfmo  from file mos
 orbital characterization : expanded
 mo provided and orthogonalized by Cholesky decomposition

 DSCF restart information will be dumped onto file mos


 Starting SCF iterations

          Overall gridpoints after grid construction =         69350

 ITERATION  ENERGY          1e-ENERGY        2e-ENERGY     RMS[dD(SAO)]   TOL
   1  -323.80205335795    -921.06348647     353.74949305    0.000D+00 0.454D-13
                            Exc = -43.5346424598     Coul =  397.284135513    
                              N = 49.999997150    
                            current damping = 0.700
 
          max. resid. norm for Fia-block=  3.675D-01 for orbital     20a         
          max. resid. fock norm         =  1.220D+01 for orbital    568a         

 ITERATION  ENERGY          1e-ENERGY        2e-ENERGY     RMS[dD(SAO)]   TOL
   2  -324.91225152074    -923.43696630     355.01277472    0.334D-02 0.454D-13
                            Exc = -43.5602440055     Coul =  398.573018726    
                              N = 49.999995570    
                            current damping = 0.650
 
          Norm of current diis error:  2.8806    
          max. resid. norm for Fia-block=  1.635D-01 for orbital      2a         
          max. resid. fock norm         =  3.075D-01 for orbital    304a         

 ITERATION  ENERGY          1e-ENERGY        2e-ENERGY     RMS[dD(SAO)]   TOL
   3  -325.08773671190    -924.98244132     356.38276455    0.187D-02 0.454D-13
                            Exc = -43.8138254520     Coul =  400.196590004    
                              N = 49.999996194    
                            current damping = 0.550
 
          Norm of current diis error:  1.3669    
          max. resid. norm for Fia-block=  6.293D-02 for orbital      2a         
          max. resid. fock norm         =  6.613D-02 for orbital      2a         

 ITERATION  ENERGY          1e-ENERGY        2e-ENERGY     RMS[dD(SAO)]   TOL
   4  -325.14124077448    -924.73935866     356.08617783    0.143D-02 0.454D-13
                            Exc = -43.7817564562     Coul =  399.867934287    
                              N = 49.999996562    
                            current damping = 0.600
 
          Norm of current diis error: 0.55887    
          max. resid. norm for Fia-block=  3.359D-02 for orbital      8a         
          max. resid. fock norm         =  7.551D-02 for orbital    546a         

 ITERATION  ENERGY          1e-ENERGY        2e-ENERGY     RMS[dD(SAO)]   TOL
   5  -325.14867238958    -925.19592405     356.53531160    0.516D-03 0.454D-13
                            Exc = -43.8738693574     Coul =  400.409180955    
                              N = 49.999996096    
                            current damping = 0.650
 
          Norm of current diis error: 0.33309    
          max. resid. norm for Fia-block=  1.160D-02 for orbital     25a         
          max. resid. fock norm         =  1.582D-02 for orbital    563a         
          mo-orthogonalization: Cholesky decomposition

 ITERATION  ENERGY          1e-ENERGY        2e-ENERGY     RMS[dD(SAO)]   TOL
   6  -325.15206313913    -925.30021014     356.63620694    0.387D-03 0.454D-13
                            Exc = -43.8795410152     Coul =  400.515747956    
                              N = 49.999996337    
                            current damping = 0.500
 
          Norm of current diis error: 0.93122E-01
          max. resid. norm for Fia-block=  4.107D-03 for orbital     17a         
          max. resid. fock norm         =  7.889D-03 for orbital    564a         

 ITERATION  ENERGY          1e-ENERGY        2e-ENERGY     RMS[dD(SAO)]   TOL
   7  -325.15234726520    -925.15279996     356.48851263    0.184D-03 0.454D-13
                            Exc = -43.8655901878     Coul =  400.354102822    
                              N = 49.999996173    
                            current damping = 0.550
 
          Norm of current diis error: 0.41800E-01
          max. resid. norm for Fia-block=  1.604D-03 for orbital      8a         
          max. resid. fock norm         =  3.963D-03 for orbital    564a         

 ITERATION  ENERGY          1e-ENERGY        2e-ENERGY     RMS[dD(SAO)]   TOL
   8  -325.15239358272    -925.20875365     356.54442001    0.409D-04 0.454D-13
                            Exc = -43.8729387594     Coul =  400.417358768    
                              N = 49.999996176    
                            current damping = 0.600
 
          Norm of current diis error: 0.95659E-02
          max. resid. norm for Fia-block=  5.389D-04 for orbital      8a         
          max. resid. fock norm         =  1.598D-03 for orbital    564a         

 ITERATION  ENERGY          1e-ENERGY        2e-ENERGY     RMS[dD(SAO)]   TOL
   9  -325.15239681876    -925.22299903     356.55866215    0.146D-04 0.454D-13
                            Exc = -43.8747599968     Coul =  400.433422147    
                              N = 49.999996179    
                            current damping = 0.450
 
          Norm of current diis error: 0.42540E-02
          max. resid. norm for Fia-block=  2.370D-04 for orbital     25a         
          max. resid. fock norm         =  4.730D-04 for orbital    568a         

 ITERATION  ENERGY          1e-ENERGY        2e-ENERGY     RMS[dD(SAO)]   TOL
  10  -325.15239712715    -925.21937836     356.55504117    0.111D-04 0.454D-13
                            Exc = -43.8743232273     Coul =  400.429364402    
                              N = 49.999996175    
                            current damping = 0.500
 
          Norm of current diis error: 0.38911E-02
          max. resid. norm for Fia-block=  1.596D-04 for orbital     24a         
          max. resid. fock norm         =  3.235D-04 for orbital    564a         
          mo-orthogonalization: Cholesky decomposition

 ITERATION  ENERGY          1e-ENERGY        2e-ENERGY     RMS[dD(SAO)]   TOL
  11  -325.15239750233    -925.21880008     356.55446252    0.211D-05 0.454D-13
                            Exc = -43.8745107320     Coul =  400.428973249    
                              N = 49.999996170    
                            current damping = 0.350
 
          Norm of current diis error: 0.15261E-02
          max. resid. norm for Fia-block=  6.899D-05 for orbital     13a         
          max. resid. fock norm         =  1.148D-04 for orbital    566a         

 ITERATION  ENERGY          1e-ENERGY        2e-ENERGY     RMS[dD(SAO)]   TOL
  12  -325.15239755205    -925.22162324     356.55728563    0.856D-06 0.454D-13
                            Exc = -43.8747722040     Coul =  400.432057837    
                              N = 49.999996173    
                            current damping = 0.400
 
          Norm of current diis error: 0.38285E-03
          max. resid. norm for Fia-block=  2.085D-05 for orbital     23a         
          max. resid. fock norm         =  3.378D-05 for orbital    564a         

 ITERATION  ENERGY          1e-ENERGY        2e-ENERGY     RMS[dD(SAO)]   TOL
  13  -325.15239755506    -925.22159476     356.55725714    0.357D-06 0.454D-13
                            Exc = -43.8747565417     Coul =  400.432013686    
                              N = 49.999996172    
                            current damping = 0.450
 
          Norm of current diis error: 0.16717E-03
          max. resid. norm for Fia-block=  5.511D-06 for orbital     25a         
          max. resid. fock norm         =  1.112D-05 for orbital    568a         

 ITERATION  ENERGY          1e-ENERGY        2e-ENERGY     RMS[dD(SAO)]   TOL
  14  -325.15239755569    -925.22136944     356.55703182    0.186D-06 0.454D-13
                            Exc = -43.8747438412     Coul =  400.431775665    
                              N = 49.999996173    
                            current damping = 0.300
 
          Norm of current diis error: 0.48644E-04
          max. resid. norm for Fia-block=  2.244D-06 for orbital     24a         
          max. resid. fock norm         =  5.489D-06 for orbital    564a         

 ENERGY & DENSITY CONVERGED !

          Overall gridpoints after grid construction =        228710

 ITERATION  ENERGY          1e-ENERGY        2e-ENERGY     RMS[dD(SAO)]   TOL
  15  -325.15233504284    -925.22136835     356.55709325    0.308D-07 0.454D-13
                            Exc = -43.8746831619     Coul =  400.431776409    
                              N = 49.999999949    
                            current damping = 0.350
 
          Norm of current diis error: 0.37492E-04
          max. resid. norm for Fia-block=  1.040D-06 for orbital     24a         
          max. resid. fock norm         =  1.598D-06 for orbital    566a         

 End of SCF iterations

   convergence criteria satisfied after    15 iterations


                  ------------------------------------------ 
                 |  total energy      =   -325.15233504284  |
                  ------------------------------------------ 
                 :  kinetic energy    =    323.96053167198  :
                 :  potential energy  =   -649.11286671482  :
                 :  virial theorem    =      1.99633463075  :
                 :  wavefunction norm =      1.00000000000  :
                  .......................................... 


 <geterg> : there is no data group $energy 


 <skperg> : $end is missing 


 orbitals $scfmo  will be written to file mos

    irrep                 21a         22a         23a         24a         25a   
 eigenvalues H         -0.32751    -0.30084    -0.29966    -0.20571    -0.19334
            eV          -8.9121     -8.1862     -8.1541     -5.5977     -5.2611
 occupation              2.0000      2.0000      2.0000      2.0000      2.0000 

    irrep                 26a         27a         28a         29a         30a   
 eigenvalues H         -0.02505     0.01240     0.03525     0.04479     0.04816
            eV          -0.6817      0.3373      0.9592      1.2188      1.3106
 
 
 
 
 ==============================================================================
                           electrostatic moments
 ==============================================================================

 reference point for electrostatic moments:    0.00000   0.00000   0.00000

 
              nuc           elec       ->  total
 ------------------------------------------------------------------------------
                          charge      
 ------------------------------------------------------------------------------
          50.000000     -50.000000      -0.000000
 
 ------------------------------------------------------------------------------
                       dipole moment  
 ------------------------------------------------------------------------------
   x     -72.324952      74.757464       2.432512
   y     -20.570573      20.754815       0.184242
   z      43.944045     -44.676004      -0.731959
 
   | dipole moment | =     2.5469 a.u. =     6.4736 debye 
 
 ------------------------------------------------------------------------------
                     quadrupole moment
 ------------------------------------------------------------------------------
  xx     603.966468    -635.135978     -31.169510
  yy      42.690258     -69.271328     -26.581070
  zz     316.011456    -343.989543     -27.978087
  xy      46.012919     -47.379871      -1.366953
  xz    -128.284384     131.471506       3.187122
  yz     -88.752067      89.211829       0.459762
 
     1/3  trace=     -28.576222
     anisotropy=       7.301258
 
 ==============================================================================
 


    ------------------------------------------------------------------------
         total  cpu-time :  7 minutes and  8 seconds
         total wall-time :  55.73 seconds
    ------------------------------------------------------------------------

   ****  ridft : all done  ****


    2018-04-24 21:17:01.816 

