
   OpenMP run-time library returned nthreads = 28
 operating system is UNIX !

 dscf (c-13-42) : TURBOMOLE V7.3 ( 22142 ) 4 Jul 2018 at 18:12:42
 Copyright (C) 2018 TURBOMOLE GmbH, Karlsruhe


    2019-04-01 23:12:05.018 



                             d s c f - program

                   idea & directorship : reinhart ahlrichs
                   program development : marco haeser
                                         michael baer
                           dft version : oliver treutler


                          quantum chemistry group
                          universitaet  karlsruhe
                                  germany




                          References             
                                                 
          TURBOMOLE:                             
              R. Ahlrichs, M. Baer, M. Haeser, H. Horn, and
              C. Koelmel
              Electronic structure calculations on workstation
              computers: the program system TURBOMOLE
              Chem. Phys. Lett. 162: 165 (1989)
          Density Functional:                              
              O. Treutler and R. Ahlrichs                      
              Efficient Molecular Numerical Integration Schemes
              J. Chem. Phys. 102: 346 (1995)                   
          Parallel Version:                                
              Performance of parallel TURBOMOLE for Density    
              Functional Calculations                          
              M. v. Arnim and R. Ahlrichs                      
              J. Comp. Chem. 19: 1746 (1998)                   
                                         




              +--------------------------------------------------+
              | Atomic coordinate, charge and isotop information |
              +--------------------------------------------------+

                    atomic coordinates            atom    charge  isotop
         -1.14553187    0.10558668    1.11305796    c      6.000     0
         -3.15213248    0.10540182    1.11307065    h      1.000     0
          1.14488817    0.10495703    1.11355182    c      6.000     0
          3.15145502    0.10367658    1.11442430    h      1.000     0
         -4.78177039   -0.65659669    7.97183645    c      0.000     0
         -4.79758103   -1.90750758    6.33455772    h      0.000     0
         -4.87988181   -1.84007399    9.65480911    h      0.000     0
         -6.48708688    0.49406522    7.90992595    h      0.000     0
         -2.39970989    0.95836462    7.99275434    c      0.000     0
         -2.43117698    2.23014884    9.61869194    h      0.000     0
         -2.35196220    2.15685919    6.31317310    h      0.000     0
          0.00008851   -0.62585138    8.06920384    c      0.000     0
          0.00009368   -1.79330462    9.77574256    h      0.000     0
          0.00021530   -1.92654828    6.46437057    h      0.000     0
          2.39984900    0.95844979    7.99291851    c      0.000     0
          2.43127104    2.23017333    9.61887913    h      0.000     0
          2.35233200    2.15686179    6.31332767    h      0.000     0
          4.78189130   -0.65657929    7.97223278    c      0.000     0
          4.79772676   -1.90754540    6.33501360    h      0.000     0
          6.48714004    0.49413418    7.91038892    h      0.000     0
          4.87981167   -1.83995364    9.65528627    h      0.000     0
 
       center of nuclear mass  :   -0.00003380    0.01027140    6.17266054
       center of nuclear charge:   -0.00032426    0.10516719    1.11336812

              +--------------------------------------------------+
              |               basis set information              |
              +--------------------------------------------------+

              we will work with the 1s 3p 5d 7f 9g ... basis set
              ...i.e. with spherical basis functions...

   type   atoms  prim   cont   basis
   ---------------------------------------------------------------------------
    c        7     50     30   cc-pVTZ   [4s3p2d1f|18s5p2d1f]
    h       14     16     14   cc-pVTZ   [3s2p1d|5s2p1d]
   ---------------------------------------------------------------------------
   total:   21    574    406
   ---------------------------------------------------------------------------

   total number of primitive shells          :   34
   total number of contracted shells         :  154
   total number of cartesian basis functions :  455
   total number of SCF-basis functions       :  406


 integral neglect threshold       :  0.73E-13
 integral storage threshold THIZE :  0.10E-04
 integral storage threshold THIME :         5


 DENSITY CONVERGENCE CHECK SWITCHED ON !
 SCF CONVERGENCE IF RMS(delta[D]) <     0.1000000000E-06


 symmetry group of the molecule :   c1 

 the group has the following generators :
   c1(z)

    1 symmetry operations found

 there are 1 real representations :   a   

 maximum number of shells which are related by symmetry :  1


    mo occupation :
   irrep   mo's   occupied
    a      406        7
 
 number of basis functions   :                    406
 number of occupied orbitals :                      7
 

 automatic virtual orbital shift switched on 
      shift if e(lumo)-e(homo) < 0.10000000    


          ------------------------
          nuclear repulsion energy  :   24.6492359540    
          ------------------------


         -----------------
         -S,T+V- integrals
         -----------------

 1e-integrals will be neglected if expon. factor < 0.734497E-14
 
   Difference densities algorithm switched on.
   The maximal number of linear combinations of
   difference densities is                    20 .

 DIIS switched on: error vector is FDS-SDF
 Max. Iterations for DIIS is     :   5
 DIIS matrix (see manual) 
    Scaling factor of diagonals  :  1.200
    threshold for scaling factor :  0.000

 scf convergence criterion : increment of total energy < .1000000D-08
                  and increment of one-electron energy < .1000000D-05

  MOs are in ASCII format !


 reading orbital data $scfmo  from file mos
 orbital characterization : scfconv=9

 DSCF restart information will be dumped onto file mos

 
                                              current damping :  0.700
 ITERATION  ENERGY          1e-ENERGY        2e-ENERGY     RMS[dD(SAO)]   TOL
   1  -76.833088796161    -151.72885027     50.246525516    0.000D+00 0.733D-13
          max. resid. norm for Fia-block=  9.509D-02 for orbital      2a         
          max. resid. fock norm         =  2.386D-01 for orbital    289a         
          Delta Eig. =    20.8415361090 eV 
 
                                              current damping :  0.650
 ITERATION  ENERGY          1e-ENERGY        2e-ENERGY     RMS[dD(SAO)]   TOL
   2  -76.845730040865    -151.46370814     49.968742143    0.500D-03 0.468D-13
          Norm of current diis error: 0.22960    
          max. resid. norm for Fia-block=  4.619D-02 for orbital      2a         
          max. resid. fock norm         =  8.570D-02 for orbital    312a         
          Delta Eig. =     9.7670583645 eV 
 
                                              current damping :  0.600
 ITERATION  ENERGY          1e-ENERGY        2e-ENERGY     RMS[dD(SAO)]   TOL
   3  -76.848006068714    -151.46598816     49.968746137    0.217D-03 0.359D-13
          Norm of current diis error: 0.97207E-01
          max. resid. norm for Fia-block=  1.889D-02 for orbital      2a         
          max. resid. fock norm         =  4.758D-02 for orbital    367a         
          Delta Eig. =     3.8014753977 eV 
 
                                              current damping :  0.650
 ITERATION  ENERGY          1e-ENERGY        2e-ENERGY     RMS[dD(SAO)]   TOL
   4  -76.848449498702    -151.44769227     49.950006817    0.911D-04 0.314D-13
          Norm of current diis error: 0.38950E-01
          max. resid. norm for Fia-block=  7.148D-03 for orbital      2a         
          max. resid. fock norm         =  1.313D-02 for orbital    264a         
          Delta Eig. =     1.3805137675 eV 
 
                                              current damping :  0.500
 ITERATION  ENERGY          1e-ENERGY        2e-ENERGY     RMS[dD(SAO)]   TOL
   5  -76.848520762308    -151.44173991     49.943983193    0.342D-04 0.287D-13
          Norm of current diis error: 0.16235E-01
          max. resid. norm for Fia-block=  2.797D-03 for orbital      2a         
          max. resid. fock norm         =  5.063D-03 for orbital    298a         
 mo-orthogonalization: Cholesky decomposition
          Delta Eig. =     0.5957492214 eV 
 
                                              current damping :  0.350
 ITERATION  ENERGY          1e-ENERGY        2e-ENERGY     RMS[dD(SAO)]   TOL
   6  -76.848534231385    -151.43919043     49.941420244    0.153D-04 0.263D-13
          Norm of current diis error: 0.58364E-02
          max. resid. norm for Fia-block=  9.135D-04 for orbital      2a         
          max. resid. fock norm         =  1.799D-03 for orbital    338a         
          Delta Eig. =     0.2189281853 eV 
 
                                              current damping :  0.200
 ITERATION  ENERGY          1e-ENERGY        2e-ENERGY     RMS[dD(SAO)]   TOL
   7  -76.848536172843    -151.43819342     49.940421288    0.598D-05 0.239D-13
          Norm of current diis error: 0.17067E-02
          max. resid. norm for Fia-block=  2.307D-04 for orbital      2a         
          max. resid. fock norm         =  5.285D-04 for orbital    361a         
          Delta Eig. =     0.0642841265 eV 
 
                                              current damping :  0.050
 ITERATION  ENERGY          1e-ENERGY        2e-ENERGY     RMS[dD(SAO)]   TOL
   8  -76.848536365923    -151.43797111     49.940198791    0.193D-05 0.214D-13
          Norm of current diis error: 0.36877E-03
          max. resid. norm for Fia-block=  4.794D-05 for orbital      4a         
          max. resid. fock norm         =  8.391D-05 for orbital    361a         
          Delta Eig. =     0.0118453766 eV 
 
                                              current damping :  0.050
 ITERATION  ENERGY          1e-ENERGY        2e-ENERGY     RMS[dD(SAO)]   TOL
   9  -76.848536378018    -151.43789572     49.940123391    0.488D-06 0.194D-13
          Norm of current diis error: 0.61651E-04
          max. resid. norm for Fia-block=  1.067D-05 for orbital      5a         
          max. resid. fock norm         =  1.075D-05 for orbital      5a         
          Delta Eig. =     0.0005981200 eV 

 DENSITY CONVERGED !

 
                                              current damping :  0.100
 ITERATION  ENERGY          1e-ENERGY        2e-ENERGY     RMS[dD(SAO)]   TOL
  10  -76.848536378488    -151.43789787     49.940125533    0.950D-07 0.184D-13
          Norm of current diis error: 0.15928E-04
          max. resid. norm for Fia-block=  2.946D-06 for orbital      5a         
          max. resid. fock norm         =  2.957D-06 for orbital      5a         
 mo-orthogonalization: Cholesky decomposition
          Delta Eig. =     0.0000450416 eV 

 DENSITY CONVERGED !

 
                                              current damping :  0.150
 ITERATION  ENERGY          1e-ENERGY        2e-ENERGY     RMS[dD(SAO)]   TOL
  11  -76.848536378519    -151.43789381     49.940121478    0.294D-07 0.209D-13
          Norm of current diis error: 0.43127E-05
          max. resid. norm for Fia-block=  8.451D-07 for orbital      5a         
          max. resid. fock norm         =  8.563D-07 for orbital      5a         
          Delta Eig. =     0.0000133808 eV 

 ENERGY & DENSITY CONVERGED !

 
                                              current damping :  0.200
 ITERATION  ENERGY          1e-ENERGY        2e-ENERGY     RMS[dD(SAO)]   TOL
  12  -76.848536378520    -151.43789481     49.940122476    0.787D-08 0.210D-13
          max. resid. norm for Fia-block=  1.011D-07 for orbital      6a         
          max. resid. fock norm         =  1.023D-07 for orbital      5a         

 convergence criteria satisfied after    12 iterations


                  ------------------------------------------ 
                 |  total energy      =    -76.84853637852  |
                  ------------------------------------------ 
                 :  kinetic energy    =     76.64032918222  :
                 :  potential energy  =   -153.48886556074  :
                 :  virial theorem    =      1.99729068104  :
                 :  wavefunction norm =      1.00000000000  :
                  .......................................... 


 orbitals $scfmo  will be written to file mos

    irrep                  3a          4a          5a          6a          7a   
 eigenvalues H         -1.02672    -0.76844    -0.68040    -0.40818    -0.40804
            eV         -27.9386    -20.9106    -18.5147    -11.1073    -11.1035
 occupation              2.0000      2.0000      2.0000      2.0000      2.0000 

    irrep                  8a          9a         10a         11a         12a   
 eigenvalues H          0.06238     0.08589     0.13179     0.13806     0.15002
            eV           1.6975      2.3371      3.5861      3.7567      4.0824
 
 
 
 
 ==============================================================================
                           electrostatic moments
 ==============================================================================

 reference point for electrostatic moments:    0.00000   0.00000   0.00000

 
              nuc           elec       ->  total
 ------------------------------------------------------------------------------
                          charge      
 ------------------------------------------------------------------------------
          14.000000     -14.000000       0.000000
 
 ------------------------------------------------------------------------------
                       dipole moment  
 ------------------------------------------------------------------------------
   x      -0.004540       0.004534      -0.000005
   y       1.472341      -1.473131      -0.000791
   z      15.587154     -15.604241      -0.017087
 
   | dipole moment | =     0.0171 a.u. =     0.0435 debye 
 
 ------------------------------------------------------------------------------
                     quadrupole moment
 ------------------------------------------------------------------------------
  xx      35.605681     -40.505638      -4.899957
  yy       0.154846     -10.541998     -10.387152
  zz      17.354242     -27.805892     -10.451651
  xy      -0.010241       0.008736      -0.001506
  xz       0.002606      -0.001424       0.001182
  yz       1.639254      -1.642309      -0.003055
 
     1/3  trace=      -8.579587
     anisotropy=       5.519731
 
 ==============================================================================
 


    ------------------------------------------------------------------------
         total  cpu-time : 18 minutes and 45 seconds
         total wall-time :  1 minutes and 10 seconds
    ------------------------------------------------------------------------

   ****  dscf : all done  ****


    2019-04-01 23:13:14.692 

