STARTING dscf ON 2 PROCESSORS!
RUNNING PROGRAM /beegfs/modfac/apps/TURBOMOLE/7.2.1-official/bin/em64t-unknown-linux-gnu_mpi/dscf_mpi.
PLEASE WAIT UNTIL dscf HAS FINISHED.
Look for the output in slave1.output.
MACHINEFILE is ./hostlist
 this is node-proc. number 1 running on node c-15-34.local
 the total number of node-proc. spawned is   3
  parallel platform: MPP or cluster with fast interconnect

 dscf (c-15-34.local) : TURBOMOLE V7.2 ( 21471 ) 7 Nov 2017 at 16:15:16
 Copyright (C) 2017 TURBOMOLE GmbH, Karlsruhe


    2018-02-14 09:35:54.452 


 SCF run will be profiled !



                             d s c f - program

                   idea & directorship : reinhart ahlrichs
                   program development : marco haeser
                                         michael baer
                           dft version : oliver treutler
           parallelized version : malte v. arnim, gina corongiu, GMD 


                          quantum chemistry group
                          universitaet  karlsruhe
                                  germany




                          References             
                                                 
          TURBOMOLE:                             
              R. Ahlrichs, M. Baer, M. Haeser, H. Horn, and
              C. Koelmel
              Electronic structure calculations on workstation
              computers: the program system TURBOMOLE
              Chem. Phys. Lett. 162: 165 (1989)
          Density Functional:                              
              O. Treutler and R. Ahlrichs                      
              Efficient Molecular Numerical Integration Schemes
              J. Chem. Phys. 102: 346 (1995)                   
          Parallel Version:                                
              Performance of parallel TURBOMOLE for Density    
              Functional Calculations                          
              M. v. Arnim and R. Ahlrichs                      
              J. Comp. Chem. 19: 1746 (1998)                   
                                         




              +--------------------------------------------------+
              | Atomic coordinate, charge and isotop information |
              +--------------------------------------------------+

                    atomic coordinates            atom    charge  isotop
          1.36320591   -3.94288939    0.00000000    c      6.000     0
         -0.67596864   -1.88724492    0.00000000    c      6.000     0
          0.49692597    0.74135317    0.00000000    c      6.000     0
         -1.49499371    2.76472602    0.00000000    n      7.000     0
          0.49641707   -5.81971171    0.00000000    h      1.000     0
          1.65438153    1.06203213   -1.67818924    h      1.000     0
         -2.63380013    2.62197347    1.55654228    h      1.000     0
         -0.65858260    4.60154965    0.00000000    h      1.000     0
         -2.63380013    2.62197347   -1.55654228    h      1.000     0
          2.56843034   -3.79032235    1.67640912    h      1.000     0
          2.56843034   -3.79032235   -1.67640912    h      1.000     0
         -1.88717047   -2.09422152    1.66980604    h      1.000     0
         -1.88717047   -2.09422152   -1.66980604    h      1.000     0
          1.65438153    1.06203213    1.67818924    h      1.000     0
          1.06931325    7.94329354    0.00000000    cl    17.000     0
 
       center of nuclear mass  :    0.31838612    2.65297243    0.00000000
       center of nuclear charge:    0.27038203    2.27379128    0.00000000

              +--------------------------------------------------+
              |               basis set information              |
              +--------------------------------------------------+

              we will work with the 1s 3p 5d 7f 9g ... basis set
              ...i.e. with spherical basis functions...

   type   atoms  prim   cont   basis
   ---------------------------------------------------------------------------
    c        3     50     30   cc-pVTZ   [4s3p2d1f|18s5p2d1f]
    n        1     50     30   cc-pVTZ   [4s3p2d1f|18s5p2d1f]
    h       10     16     14   cc-pVTZ   [3s2p1d|5s2p1d]
    cl       1    106     34   cc-pVTZ   [5s4p2d1f|41s16p2d1f]
   ---------------------------------------------------------------------------
   total:   15    466    294
   ---------------------------------------------------------------------------

   total number of primitive shells          :  120
   total number of contracted shells         :  112
   total number of cartesian basis functions :  329
   total number of SCF-basis functions       :  294


 integral neglect threshold       :  0.10E-12
 integral storage threshold THIZE :  0.10E-04
 integral storage threshold THIME :         5


 DENSITY CONVERGENCE CHECK SWITCHED ON !
 SCF CONVERGENCE IF RMS(delta[D]) <     0.1000000000E-06


 symmetry group of the molecule :   c1 

 the group has the following generators :
   c1(z)

    1 symmetry operations found

 there are 1 real representations :   a   

 maximum number of shells which are related by symmetry :  1


    mo occupation :
   irrep   mo's   occupied
    a      294       26
 
 number of basis functions   :                    294
 number of occupied orbitals :                     26
 

 automatic virtual orbital shift switched on 
      shift if e(lumo)-e(homo) < 0.10000000    


 keyword $2e-ints_shell_statistics missing in file <control>

 ! One task per shell generated
  No pre-computed optimal task distribution found
  ... using automatic task generation

          ------------------------
          nuclear repulsion energy  :   214.288780568    
          ------------------------


         -----------------
         -S,T+V- integrals
         -----------------

 1e-integrals will be neglected if expon. factor < 0.101579E-13
 
   Difference densities algorithm switched on.
   The maximal number of linear combinations of
   difference densities is                    20 .

 DIIS switched on: error vector is FDS-SDF
 Max. Iterations for DIIS is     :   5
 DIIS matrix (see manual) 
    Scaling factor of diagonals  :  1.200
    threshold for scaling factor :  0.000

 scf convergence criterion : increment of total energy < .1000000D-08
                  and increment of one-electron energy < .1000000D-05

  MOs are in ASCII format !


 reading orbital data $scfmo  from file mos
 orbital characterization : scfconv=9

 DSCF restart information will be dumped onto file mos

 
                                              current damping :  0.300
 ITERATION  ENERGY          1e-ENERGY        2e-ENERGY     RMS[dD(SAO)]   TOL
   1  -633.46282847043    -1295.2151543     447.46354527    0.000D+00 0.101D-12
          max. resid. norm for Fia-block=  9.911D-05 for orbital     11a         
          max. resid. fock norm         =  2.088D-03 for orbital    277a         
          Delta Eig. =     0.0863566152 eV 
 
                                              current damping :  0.250
 ITERATION  ENERGY          1e-ENERGY        2e-ENERGY     RMS[dD(SAO)]   TOL
   2  -633.46282850892    -1295.2152024     447.46359328    0.317D-05 0.642D-13
          Norm of current diis error: 0.29064E-03
          max. resid. norm for Fia-block=  3.045D-05 for orbital     11a         
          max. resid. fock norm         =  4.803D-04 for orbital    277a         
          Delta Eig. =     0.0205728796 eV 
 
                                              current damping :  0.200
 ITERATION  ENERGY          1e-ENERGY        2e-ENERGY     RMS[dD(SAO)]   TOL
   3  -633.46282851299    -1295.2151662     447.46355716    0.117D-05 0.503D-13
          Norm of current diis error: 0.73004E-04
          max. resid. norm for Fia-block=  7.147D-06 for orbital     18a         
          max. resid. fock norm         =  9.639D-05 for orbital    277a         
          Delta Eig. =     0.0043491742 eV 
 
                                              current damping :  0.250
 ITERATION  ENERGY          1e-ENERGY        2e-ENERGY     RMS[dD(SAO)]   TOL
   4  -633.46282851325    -1295.2151793     447.46357025    0.316D-06 0.440D-13
          Norm of current diis error: 0.15663E-04
          max. resid. norm for Fia-block=  1.443D-06 for orbital     21a         
          max. resid. fock norm         =  1.586D-05 for orbital    277a         
          Delta Eig. =     0.0006728468 eV 

 DENSITY CONVERGED !

 
                                              current damping :  0.300
 ITERATION  ENERGY          1e-ENERGY        2e-ENERGY     RMS[dD(SAO)]   TOL
   5  -633.46282851326    -1295.2151744     447.46356532    0.677D-07 0.411D-13
          Norm of current diis error: 0.45460E-05
          max. resid. norm for Fia-block=  3.879D-07 for orbital     18a         
          max. resid. fock norm         =  3.214D-06 for orbital    277a         
 mo-orthogonalization: Cholesky decomposition
          Delta Eig. =     0.0001360789 eV 

 ENERGY & DENSITY CONVERGED !

 
                                              current damping :  0.350
 ITERATION  ENERGY          1e-ENERGY        2e-ENERGY     RMS[dD(SAO)]   TOL
   6  -633.46282851326    -1295.2151759     447.46356677    0.195D-07 0.387D-13
          max. resid. norm for Fia-block=  9.908D-08 for orbital     21a         
          max. resid. fock norm         =  7.210D-07 for orbital    277a         

 convergence criteria satisfied after     6 iterations


                  ------------------------------------------ 
                 |  total energy      =   -633.46282851326  |
                  ------------------------------------------ 
                 :  kinetic energy    =    633.12830804538  :
                 :  potential energy  =  -1266.59113655865  :
                 :  virial theorem    =      1.99947191776  :
                 :  wavefunction norm =      1.00000000000  :
                  .......................................... 


 orbitals $scfmo  will be written to file mos

    irrep                 22a         23a         24a         25a         26a   
 eigenvalues H         -0.53743    -0.53232    -0.33333    -0.32249    -0.32236
            eV         -14.6244    -14.4852     -9.0704     -8.7755     -8.7719
 occupation              2.0000      2.0000      2.0000      2.0000      2.0000 

    irrep                 27a         28a         29a         30a         31a   
 eigenvalues H          0.08099     0.11076     0.12122     0.14477     0.17275
            eV           2.2038      3.0139      3.2985      3.9396      4.7008
 
 
 
 
 ==============================================================================
                           electrostatic moments
 ==============================================================================

 reference point for electrostatic moments:    0.00000   0.00000   0.00000

 
              nuc           elec       ->  total
 ------------------------------------------------------------------------------
                          charge      
 ------------------------------------------------------------------------------
          52.000000     -52.000000       0.000000
 
 ------------------------------------------------------------------------------
                       dipole moment  
 ------------------------------------------------------------------------------
   x      14.059866     -15.760360      -1.700494
   y     118.237147    -122.716743      -4.479596
   z       0.000000       0.000000       0.000000
 
   | dipole moment | =     4.7915 a.u. =    12.1788 debye 
 
 ------------------------------------------------------------------------------
                     quadrupole moment
 ------------------------------------------------------------------------------
  xx      90.800981    -119.424048     -28.623067
  yy    1352.635757   -1424.884040     -72.248283
  zz      21.675486     -50.881992     -29.206507
  xy      65.294860     -74.603765      -9.308905
  xz       0.000000      -0.000000      -0.000000
  yz      -0.000000       0.000000       0.000000
 
     1/3  trace=     -43.359285
     anisotropy=      46.238667
 
 ==============================================================================
 

    dscf profiling
  --------------------------------------------------------------------
             module   cpu total (s)       %  wall total (s)       %

          dscf.total           122.3  100.00           122.8  100.00
        dscf.prepare             0.4    0.29             0.4    0.31
      prepare.oneint             0.0    0.02             0.0    0.02
     prepare.moinput             0.2    0.13             0.2    0.13
     moinput_orthmos             0.0    0.02             0.0    0.02
            dscf.scf           121.9   99.62           122.2   99.59
             scf.pre             0.0    0.01             0.0    0.01
        scf.makedmat             0.0    0.03             0.1    0.05
          scf.shloop           118.7   97.00           118.7   96.74
          shloop_omp           118.7   97.00           118.7   96.74
          scf.symcar             0.0    0.01             0.0    0.01
        scf.makefock             0.0    0.02             0.1    0.06
          scf.newerg             0.0    0.00             0.0    0.00
          scf.newcnv             0.1    0.06             0.2    0.17
           scf.fdiag             0.3    0.23             0.3    0.23
         diag_tritrn             0.0    0.04             0.0    0.04
          diag_rdiag             0.2    0.19             0.2    0.19
          scf.modump             2.3    1.84             2.3    1.86
           ortho_all             0.0    0.01             0.0    0.01
            scf.post             0.5    0.39             0.5    0.40
        dscf.postscf             0.1    0.09             0.1    0.10
 


    ------------------------------------------------------------------------
         total  cpu-time :  2 minutes and  3 seconds
         total wall-time :  2 minutes and  4 seconds
    ------------------------------------------------------------------------

   ****  dscf : all done  ****


    2018-02-14 09:37:57.247 

