
   OpenMP run-time library returned nthreads = 28

 rirpa (c-15-25) : TURBOMOLE V7.3.1 () 25 Feb 2019 at 10:13:53
 Copyright (C) 2019 TURBOMOLE GmbH, Karlsruhe


    2019-11-27 01:54:34.680 

 
 
    *************************************************************************
    *************************** PROGRAM RIRPA *******************************
    ******                                                             ******
    ******              H. Eshuis, J. E. Bates and F. Furche           ******
    ******                                                             ******
    ****** Nov 2011                                                    ******
    ****** Copyright TURBOMOLE GmbH                                    ******
    *************************************************************************
    
    
                                References:                                  
    
                   RIRPA:                                                    
                     H. Eshuis, J. Yarkony and F. Furche                     
                     Fast computation of molecular random phase              
                     approximation correlation energies using resolution     
                     of the identity imaginary frequency integration         
                     J. Chem. Phys. 132: 234114 (2010)                       
    
                     H. Eshuis, J. E. Bates and F. Furche                    
                     Electron correlation methods based on                   
                     the random phase approximation                          
                     Theor. Chem. Acc.  131: 1084 (2012)                     
    
                   TWO-COMPONENT RIRPA:                                      
                     M. Kuehn                                                
                     Correlation energies from the                           
                     two-component random-phase approximation                
                     J. Chem. Theory Comput. 10: 623 (2014)                  
    
                   RIRPA GRADIENTS:                                          
                     Asbjoern M. Burow, Jefferson E. Bates, Filipp Furche*,  
                     and Henk Eshuis                                         
                     Analytical First-Order Molecular Properties and Forces  
                     within the Adiabatic Connection Random Phase            
                     Approximation                                           
                     J. Chem. Theory Comput. 10: 180 (2014)                  
    
    
    
      ... OpenMP parallelization enabled, threads:   28

   *-----------------------------------------------------------------------*
   |                     program will use 28 thread(s)                     |
   *-----------------------------------------------------------------------*
 
                FOUND RI-J FLAG
 
  HF exact exchange energy will be computed using RI-J.
 
  The HXX energy will NOT be computed due to nohxx option. 
 


              +--------------------------------------------------+
              | Atomic coordinate, charge and isotop information |
              +--------------------------------------------------+

                    atomic coordinates            atom    charge  isotop
          1.25931421    0.34735203    0.79318765    c      6.000     0
          2.32225010   -0.62338855    2.24170598    h      1.000     0
          2.32065089    1.31753242   -0.65688750    h      1.000     0
         -1.25850767    0.34576967    0.79295159    c      6.000     0
         -2.32043575   -0.62644213    2.24141049    h      1.000     0
         -2.32093191    1.31457995   -0.65714864    h      1.000     0
         -4.78622267   -0.74390812    7.83356202    c      0.000     0
         -4.84195720   -1.90234951    6.13055996    h      0.000     0
         -4.85450594   -2.01800044    9.45044385    h      0.000     0
         -6.48918973    0.41074560    7.86615213    h      0.000     0
         -2.40245318    0.86741490    7.90124811    c      0.000     0
         -2.40322015    2.03922193    9.60085635    h      0.000     0
         -2.38660150    2.16548350    6.29675646    h      0.000     0
         -0.00009298   -0.71533953    7.85033283    c      0.000     0
         -0.00038410   -2.01296289    9.46006205    h      0.000     0
          0.00017360   -1.90128977    6.15592408    h      0.000     0
          2.40216544    0.86746943    7.90211990    c      0.000     0
          2.40268134    2.03874201    9.60190099    h      0.000     0
          2.38667947    2.16585236    6.29791697    h      0.000     0
          4.78596308   -0.74394636    7.83442200    c      0.000     0
          4.84194333   -1.90207730    6.13119450    h      0.000     0
          6.48894290    0.41055568    7.86763968    h      0.000     0
          4.85383895   -2.01848364    9.45109350    h      0.000     0
 
       center of nuclear mass  :    0.00001927    0.01545689    5.88396937
       center of nuclear charge:    0.00039829    0.34631324    0.79286974
              +-------------------------------------------------+
              |        Rotational Constants Section             |
              +-------------------------------------------------+
                                   Center of Mass [a.u]:
               0.00001926503978         0.01545688756728         5.88396937141400
                     Principal Moments of Inertia [a.u.]
            1032.55585288406724      1132.10829593734275      2002.50019767390063
                       Rotational constants A,B,C [a.u.]
               0.00048423530660         0.00044165386103         0.00024968786549
                     Rotational constants A,B,C [cm**-1]
               0.05830162729532         0.05317484794739         0.03006226244890
                        Rotational constants A,B,C [MHz]
            1747.83881522648403      1594.14183699254909       901.24395525975126

   * BASIS SET information:

              +--------------------------------------------------+
              |               basis set information              |
              +--------------------------------------------------+

              we will work with the 1s 3p 5d 7f 9g ... basis set
              ...i.e. with spherical basis functions...

   type   atoms  prim   cont   basis
   ---------------------------------------------------------------------------
    c        7     50     30   cc-pVTZ   [4s3p2d1f|18s5p2d1f]
    h       16     16     14   cc-pVTZ   [3s2p1d|5s2p1d]
   ---------------------------------------------------------------------------
   total:   23    606    434
   ---------------------------------------------------------------------------

   total number of primitive shells          :   34
   total number of contracted shells         :  166
   total number of cartesian basis functions :  485
   total number of SCF-basis functions       :  434


   * AUXILIARY BASIS SET information:

              +--------------------------------------------------+
              |               basis set information              |
              +--------------------------------------------------+

              we will work with the 1s 3p 5d 7f 9g ... basis set
              ...i.e. with spherical basis functions...

   type   atoms  prim   cont   basis
   ---------------------------------------------------------------------------
    c        7     81     81   cc-pVTZ   [8s6p5d3f1g|8s6p5d3f1g]
    h       16     30     30   cc-pVTZ   [4s3p2d1f|4s3p2d1f]
   ---------------------------------------------------------------------------
   total:   23   1047   1047
   ---------------------------------------------------------------------------

   total number of primitive shells          :   33
   total number of contracted shells         :  321
   total number of cartesian basis functions : 1267
   total number of SCF-basis functions       : 1047


   * RIJ AUXILIARY BASIS SET information:

              +--------------------------------------------------+
              |               basis set information              |
              +--------------------------------------------------+

              we will work with the 1s 3p 5d 7f 9g ... basis set
              ...i.e. with spherical basis functions...

   type   atoms  prim   cont   basis
   ---------------------------------------------------------------------------
    c        7     70     49   cc-pVTZ   [6s4p3d1f1g|12s5p4d2f1g]
    h       16     16     11   cc-pVTZ   [3s1p1d|5s2p1d]
   ---------------------------------------------------------------------------
   total:   23    746    519
   ---------------------------------------------------------------------------

   total number of primitive shells          :   32
   total number of contracted shells         :  185
   total number of cartesian basis functions :  619
   total number of SCF-basis functions       :  519

  No keyword $dft found! - HARTREE FOCK CALCULATION

 reading orbital data $scfmo  from file mos
 orbital characterization : scfconv=9

 integral neglect threshold       :  0.31E+02

 scfconv                     9

 MAXIMUM CORE MEMORY WHICH CAN BE ALLOCATED DYNAMICALLY = 140000 MiB
              ( or 18350080000 double words per process)


 there are 1 real representations :   a   

 maximum number of shells which are related by symmetry :  1

 time elapsed for calculating density matrices :   0.013 sec

     total memory allocated for calculation of (Q|P)**(-1/2) : 13 MiB


     calculation of (P|Q) ...
     time in lp2sym        cpu:  1.72 sec    wall:  0.06 sec    ratio: 27.8


     calculation of the Cholesky decomposition of (P|Q)**(-1) ...
     time in invmetri      cpu:  4.43 sec    wall:  0.16 sec    ratio: 27.5

   threshold for RMS(d[D]) in SCF was     :  0.10E-06
   integral neglect threshold             :  0.26E-13
   derivative integral neglect threshold  :  0.10E-06


 setting up bound for integral derivative estimation

 increment for numerical differentiation : 0.00050000
 total memory allocated for calculation of (Q|P)**(-1/2) : 13 MiB
 Dividing biap into                  20569  block chunks,
 using                     3 MiB per block
 Reserved                  69993 MiB for BLAS routines
 Estimated total memory usage:                 139996 MiB
 number of passes for ispin    1
 =    1
 
 Number of eigenvalues < 6e-3:                      0
 
 
            -----------------------------
            Complex frequency integration
            -----------------------------
 
 Number of Clenshaw-Curtis nodes:                    100
 Optimized scaling parameter    :    1.00000000000000     
 Sensitivity measure            :  -4.111086471247916E-013
 
 Done with rirpa frequency point #                     1
 Done with rirpa frequency point #                     2
 Done with rirpa frequency point #                     3
 Done with rirpa frequency point #                     4
 Done with rirpa frequency point #                     5
 Done with rirpa frequency point #                     6
 Done with rirpa frequency point #                     7
 Done with rirpa frequency point #                     8
 Done with rirpa frequency point #                     9
 Done with rirpa frequency point #                    10
 Done with rirpa frequency point #                    11
 Done with rirpa frequency point #                    12
 Done with rirpa frequency point #                    13
 Done with rirpa frequency point #                    14
 Done with rirpa frequency point #                    15
 Done with rirpa frequency point #                    16
 Done with rirpa frequency point #                    17
 Done with rirpa frequency point #                    18
 Done with rirpa frequency point #                    19
 Done with rirpa frequency point #                    20
 Done with rirpa frequency point #                    21
 Done with rirpa frequency point #                    22
 Done with rirpa frequency point #                    23
 Done with rirpa frequency point #                    24
 Done with rirpa frequency point #                    25
 Done with rirpa frequency point #                    26
 Done with rirpa frequency point #                    27
 Done with rirpa frequency point #                    28
 Done with rirpa frequency point #                    29
 Done with rirpa frequency point #                    30
 Done with rirpa frequency point #                    31
 Done with rirpa frequency point #                    32
 Done with rirpa frequency point #                    33
 Done with rirpa frequency point #                    34
 Done with rirpa frequency point #                    35
 Done with rirpa frequency point #                    36
 Done with rirpa frequency point #                    37
 Done with rirpa frequency point #                    38
 Done with rirpa frequency point #                    39
 Done with rirpa frequency point #                    40
 Done with rirpa frequency point #                    41
 Done with rirpa frequency point #                    42
 Done with rirpa frequency point #                    43
 Done with rirpa frequency point #                    44
 Done with rirpa frequency point #                    45
 Done with rirpa frequency point #                    46
 Done with rirpa frequency point #                    47
 Done with rirpa frequency point #                    48
 Done with rirpa frequency point #                    49
 Done with rirpa frequency point #                    50
 Done with rirpa frequency point #                    51
 Done with rirpa frequency point #                    52
 Done with rirpa frequency point #                    53
 Done with rirpa frequency point #                    54
 Done with rirpa frequency point #                    55
 Done with rirpa frequency point #                    56
 Done with rirpa frequency point #                    57
 Done with rirpa frequency point #                    58
 Done with rirpa frequency point #                    59
 Done with rirpa frequency point #                    60
 Done with rirpa frequency point #                    61
 Done with rirpa frequency point #                    62
 Done with rirpa frequency point #                    63
 Done with rirpa frequency point #                    64
 Done with rirpa frequency point #                    65
 Done with rirpa frequency point #                    66
 Done with rirpa frequency point #                    67
 Done with rirpa frequency point #                    68
 Done with rirpa frequency point #                    69
 Done with rirpa frequency point #                    70
 Done with rirpa frequency point #                    71
 Done with rirpa frequency point #                    72
 Done with rirpa frequency point #                    73
 Done with rirpa frequency point #                    74
 Done with rirpa frequency point #                    75
 Done with rirpa frequency point #                    76
 Done with rirpa frequency point #                    77
 Done with rirpa frequency point #                    78
 Done with rirpa frequency point #                    79
 Done with rirpa frequency point #                    80
 Done with rirpa frequency point #                    81
 Done with rirpa frequency point #                    82
 Done with rirpa frequency point #                    83
 Done with rirpa frequency point #                    84
 Done with rirpa frequency point #                    85
 Done with rirpa frequency point #                    86
 Done with rirpa frequency point #                    87
 Done with rirpa frequency point #                    88
 Done with rirpa frequency point #                    89
 Done with rirpa frequency point #                    90
 Done with rirpa frequency point #                    91
 Done with rirpa frequency point #                    92
 Done with rirpa frequency point #                    93
 Done with rirpa frequency point #                    94
 Done with rirpa frequency point #                    95
 Done with rirpa frequency point #                    96
 Done with rirpa frequency point #                    97
 Done with rirpa frequency point #                    98
 Done with rirpa frequency point #                    99
 Done with rirpa frequency point #                   100
 


 RI-RPA correlation energy: -0.4175130300949381E+00
 
 
 HXX Energy calculation skipped due to nohxx option
 

                  --------------------------------------------------- 
                 |  HXX+RIRPA total energy     =     -0.41751303009  |
                  ---------------------------------------------------- 
                 :  RIRPA correlation energy   =     -0.41751303009  :
                 :  HXX total energy           =      0.00000000000  :
                 :  Hartree energy             =      0.00000000000  :
                 :  Exact Exchange energy      =      0.00000000000  :
                  .................................................... 


    ------------------------------------------------------------------------
    Rirpa profiling                cpu                    wall         ratio
    ------------------------------------------------------------------------
    module                         sec     %               sec     %
    ------------------------------------------------------------------------
    RIRPA                       454.6  100.00           17.1  100.00  26.6
    STARTUP                       4.9    1.09            0.3    1.61  17.9
    riccmos                       7.1    1.56            0.3    1.74  23.8
    riccaux                       6.3    1.38            0.2    1.33  27.7
    riccbound                     5.9    1.31            0.9    5.14   6.8
    ccmkbaoi                     33.6    7.38            1.2    7.21  27.2
    cc3idxnrm                     0.9    0.19            0.0    0.18  28.3
    ecrpa                       395.4   86.96           14.1   82.64  28.0
    tread                        40.5    8.92            1.4    8.46  28.0
    tqbuild                     213.2   46.90            7.6   44.57  28.0
    trpaln                       89.1   19.59            3.2   18.60  28.0
    ------------------------------------------------------------------------
    sum                        1251.5  275.29           46.4  271.51  27.0
    ------------------------------------------------------------------------


    ------------------------------------------------------------------------
         total  cpu-time :  7 minutes and 36 seconds
         total wall-time :  17.18 seconds
    ------------------------------------------------------------------------

   ****  rirpa : all done  ****


    2019-11-27 01:54:51.789 

