           Doing BLAS/Lapack in the master proc. with  8 CPUs.
           SMPCPUS    set: Shared-memory Parallelization with   8 CPUs.

           SMP Parallelization Reference:
           C. van Wullen, J. Comput. Chem. 32 (2011) 1195--1201
 operating system is UNIX !

 ridft (c-18-412.gp.local) : TURBOMOLE V7.2 ( 21454 ) 4 Oct 2017 at 12:48:15
 Copyright (C) 2017 TURBOMOLE GmbH, Karlsruhe


    2018-04-28 21:08:42.588 



                                  r i d f t

                        DFT program with RI approximation 
                                for coulomb part 




                                                 
                                 References:     
                                                 
          TURBOMOLE:                             
              R. Ahlrichs, M. Baer, M. Haeser, H. Horn, and
              C. Koelmel
              Electronic structure calculations on workstation
              computers: the program system TURBOMOLE
              Chem. Phys. Lett. 162: 165 (1989)
          Density Functional:                              
              O. Treutler and R. Ahlrichs                      
              Efficient Molecular Numerical Integration Schemes
              J. Chem. Phys. 102: 346 (1995)                   
          Parallel Version:                                
              Performance of parallel TURBOMOLE for Density    
              Functional Calculations                          
              M. v. Arnim and R. Ahlrichs                      
              J. Comp. Chem. 19: 1746 (1998)                   
          RI-J Method:                                     
              Auxiliary Basis Sets to approximate Coulomb      
              Potentials                                       
              Chem. Phys. Lett. 240: 283 (1995)                
              K. Eichkorn, O. Treutler, H. Oehm, M. Haeser     
              and R. Ahlrichs                                  
              Chem. Phys. Lett. 242: 652 (1995)                
                                                           
              Auxiliary Basis Sets for Main Row Atoms and their
              Use to approximate Coulomb Potentials            
              K. Eichkorn, F. Weigend, O. Treutler and         
              R. Ahlrichs                                      
              Theo. Chem. Acc. 97: 119 (1997)                   
                                                           
              Accurate Coulomb-fitting basis sets for H to Rn 
              F. Weigend                                        
              Phys. Chem. Chem. Phys. 8: 1057 (2006)            
                                                           
          Multipole accelerated RI-J (MARI-J):             
              Fast evaluation of the Coulomb potential for     
              electron densities using multipole accelerated   
              resolution of identity approximation             
              M. Sierka, A. Hogekamp and R. Ahlrichs           
              J. Chem. Phys. 118: 9136 (2003)                  
          RI-JK Method:                                     
              A fully direct RI-HF algorithm: Implementation,
              optimised auxiliary basis sets, demonstration of
              accuracy and efficiency                         
              F. Weigend                                      
              Phys. Chem. Chem. Phys. 4: 4285 (2002)           
          Two-component HF and DFT with spin-orbit coupling:  
              Self-consistent treatment of spin-orbit         
              interactions with efficient Hartree-Fock and    
              density functional methods                      
              M. K. Armbruster, F. Weigend, C. van Wüllen and 
              W. Klopper                                      
              Phys. Chem. Chem. Phys. 10: 1748 (2008)         
          Relativistic all-electron 2c calculations           
              An efficient implementation of two-component    
              relativistic exact-decoupling methods for large 
              molecules                                       
              D. Peng, N. Middendorf, F. Weigend, M. Reiher   
              J. Chem. Phys. 138, 184105 (2013)               
                                         




              +--------------------------------------------------+
              |      general information about current run       |
              +--------------------------------------------------+

 

 DENSITY CONVERGENCE CHECK SWITCHED ON !
 SCF CONVERGENCE IF RMS(delta[D]) <     0.1000000000E-06

 TPSS meta-GGA functional
 exchange:    LDA + TPSS
 correlation: LDA (PW) + TPSS
 A DFT calculation using the RI-J approximation will be carried out.
 Allocatable memory for RI due to $ricore (MB):                  5000


              +--------------------------------------------------+
              | Atomic coordinate, charge and isotop information |
              +--------------------------------------------------+

                    atomic coordinates            atom    charge  isotop
         -4.89018803   -0.61058122    0.88714758    c      0.000     0
         -4.93292050   -1.65609180   -0.88745217    h      0.000     0
         -5.02618793   -1.98777749    2.41452974    h      0.000     0
         -6.56875430    0.57754679    0.96179744    h      0.000     0
         -2.47470942    0.93993890    1.10560809    c      0.000     0
         -2.48924287    2.04706832    2.84657210    h      0.000     0
         -2.38554629    2.29710149   -0.44744211    h      0.000     0
         -0.10739249   -0.69591110    1.05529898    c      0.000     0
         -0.16284764   -2.02835421    2.63782216    h      0.000     0
         -0.10168464   -1.84596637   -0.66418946    h      0.000     0
          2.32737925    0.83160344    1.19436826    c      0.000     0
          2.29277334    1.99094351    2.89996058    h      0.000     0
          2.39295516    2.13799197   -0.40271129    h      0.000     0
          4.67249002   -0.83742156    1.17015902    c      0.000     0
          4.76346834   -1.95636434   -0.55727448    h      0.000     0
          6.40189018    0.27229016    1.29240016    h      0.000     0
          4.64739787   -2.15308636    2.75638896    h      0.000     0
          0.07967505    0.38029242    7.77907310    c      6.000     0
          0.13053186    2.61975675    7.22757319    o      8.000     0
          2.21994159   -1.04055042    7.97337464    n      7.000     0
          3.86578014   -0.24198897    7.46567656    h      1.000     0
          2.14635950   -2.91494457    8.22172798    h      1.000     0
         -2.35848925   -1.01609706    8.27881842    c      6.000     0
         -2.08022707   -2.83159732    9.19935006    h      1.000     0
         -3.31512064   -1.31525758    6.48204159    h      1.000     0
         -3.56402860    0.16920801    9.44151372    h      1.000     0
 
       center of nuclear mass  :   -0.03057277    0.04356050    4.10983421
       center of nuclear charge:   -0.00113362    0.08514978    7.83724584

              +--------------------------------------------------+
              |               basis set information              |
              +--------------------------------------------------+

              we will work with the 1s 3p 5d 7f 9g ... basis set
              ...i.e. with spherical basis functions...

   type   atoms  prim   cont   basis
   ---------------------------------------------------------------------------
    c        7     50     30   cc-pVTZ   [4s3p2d1f|18s5p2d1f]
    h       17     16     14   cc-pVTZ   [3s2p1d|5s2p1d]
    o        1     50     30   cc-pVTZ   [4s3p2d1f|18s5p2d1f]
    n        1     50     30   cc-pVTZ   [4s3p2d1f|18s5p2d1f]
   ---------------------------------------------------------------------------
   total:   26    722    508
   ---------------------------------------------------------------------------

   total number of primitive shells          :   86
   total number of contracted shells         :  192
   total number of cartesian basis functions :  570
   total number of SCF-basis functions       :  508


 integral neglect threshold       :  0.58E-13
 integral storage threshold THIZE :  0.10E-04
 integral storage threshold THIME :         5

 RI-J AUXILIARY BASIS SET information:

              we will work with the 1s 3p 5d 7f 9g ... basis set
              ...i.e. with spherical basis functions...

   type   atoms  prim   cont   basis
   ---------------------------------------------------------------------------
    c        7     70     49   cc-pVTZ   [6s4p3d1f1g|12s5p4d2f1g]
    h       17     16     11   cc-pVTZ   [3s1p1d|5s2p1d]
    o        1     70     49   cc-pVTZ   [6s4p3d1f1g|12s5p4d2f1g]
    n        1     70     49   cc-pVTZ   [6s4p3d1f1g|12s5p4d2f1g]
   ---------------------------------------------------------------------------
   total:   26    902    628
   ---------------------------------------------------------------------------

   total number of primitive shells          :   80
   total number of contracted shells         :  220
   total number of cartesian basis functions :  753
   total number of SCF-basis functions       :  628


 symmetry group of the molecule :   c1 

 the group has the following generators :
   c1(z)

    1 symmetry operations found

 there are 1 real representations :   a   

 maximum number of shells which are related by symmetry :  1


    mo occupation :
   irrep   mo's   occupied
    a      508       16
 
 number of basis functions   :                    508
 number of occupied orbitals :                     16
 
  
           ------------------
           density functional
           ------------------
 Dummy atoms with grid-point found.
 DFT quadrature threshold dgrenze tightened by factor 1/10.

 TPSS meta-GGA functional
 exchange:    LDA + TPSS
 correlation: LDA (PW) + TPSS
 Dummy atoms with grid-point found.
 DFT quadrature threshold dgrenze tightened by factor 1/10.

 Dummy atoms with grid-point found.
 DFT quadrature threshold dgrenze tightened by factor 1/10.


 iterations will be done with small grid
  
 spherical integration : Lebedev's spherical grid
 spherical gridsize    :                     5
    i.e. gridpoints    :                   590
 value for diffuse not defined
 radial integration    : Chebyshev 2nd kind (scaling 3)
 radial gridsize       :                     8
 integration cells     :                    26
 partition function    : becke
 partition sharpness   :                     3
  
 found dummy atom(s) with basis: included in dft

 biggest AO integral is expected to be     4.866064444
  
           ------------------------
               RI-J - INFORMATION
           ------------------------
 Contributions to RI integral batches: 
  neglected integral batches:                  3055
  direct contribution:                            0
  memory contribution:                 15473
 Memory core needed for (P|Q) and Cholesky      4 MByte
 Memory core minimum needed except of (P|Q)     2 MByte
 Total minimum memory core needed (sum)         5 MByte
  
 ****************************************
 Memory allocated for RI-J   747 MByte
 ****************************************
                                            

          ------------------------
          nuclear repulsion energy  :   121.865979314    
          ------------------------


         -----------------
         -S,T+V- integrals
         -----------------

 1e-integrals will be neglected if expon. factor < 0.586309E-14
 Difference densities >>NOT<< switched on in parallel ridft!

 DIIS switched on: error vector is FDS-SDF
 Max. Iterations for DIIS is     :   4
 DIIS matrix (see manual) 
    Scaling factor of diagonals  :  1.200
    threshold for scaling factor :  0.000

 scf convergence criterion : increment of total energy < .1000000D-08
                  and increment of one-electron energy < .1000000D-05

  MOs are in ASCII format !


 automatic virtual orbital shift switched on 
      shift if e(lumo)-e(homo) < 0.10000000    


 reading orbital data $scfmo  from file mos
 orbital characterization : expanded
 mo provided and orthogonalized by Cholesky decomposition

 DSCF restart information will be dumped onto file mos


 Starting SCF iterations

          Overall gridpoints after grid construction =        134553

 ITERATION  ENERGY          1e-ENERGY        2e-ENERGY     RMS[dD(SAO)]   TOL
   1  -208.37050966761    -521.44584566     191.20935668    0.000D+00 0.585D-13
                            Exc = -28.0949758268     Coul =  219.304332503    
                              N = 32.000058221    
                            current damping = 0.700
 
          max. resid. norm for Fia-block=  3.577D-01 for orbital     12a         
          max. resid. fock norm         =  1.207D+01 for orbital    492a         

 ITERATION  ENERGY          1e-ENERGY        2e-ENERGY     RMS[dD(SAO)]   TOL
   2  -209.16365330515    -523.77571255     192.74607993    0.181D-02 0.585D-13
                            Exc = -28.0994097471     Coul =  220.845489676    
                              N = 32.000038631    
                            current damping = 0.650
 
          Norm of current diis error:  1.6994    
          max. resid. norm for Fia-block=  1.576D-01 for orbital      1a         
          max. resid. fock norm         =  3.270D-01 for orbital    495a         

 ITERATION  ENERGY          1e-ENERGY        2e-ENERGY     RMS[dD(SAO)]   TOL
   3  -209.28457450561    -524.93119219     193.78063837    0.121D-02 0.585D-13
                            Exc = -28.2588247688     Coul =  222.039463139    
                              N = 32.000032848    
                            current damping = 0.550
 
          Norm of current diis error: 0.79933    
          max. resid. norm for Fia-block=  6.279D-02 for orbital      1a         
          max. resid. fock norm         =  8.185D-02 for orbital    495a         

 ITERATION  ENERGY          1e-ENERGY        2e-ENERGY     RMS[dD(SAO)]   TOL
   4  -209.31931365587    -524.78781301     193.60252004    0.973D-03 0.585D-13
                            Exc = -28.2436155674     Coul =  221.846135609    
                              N = 32.000031084    
                            current damping = 0.600
 
          Norm of current diis error: 0.33500    
          max. resid. norm for Fia-block=  3.153D-02 for orbital      5a         
          max. resid. fock norm         =  5.349D-02 for orbital    465a         

 ITERATION  ENERGY          1e-ENERGY        2e-ENERGY     RMS[dD(SAO)]   TOL
   5  -209.32420232440    -525.19250749     194.00232586    0.330D-03 0.585D-13
                            Exc = -28.3018193166     Coul =  222.304145172    
                              N = 32.000031945    
                            current damping = 0.650
 
          Norm of current diis error: 0.19762    
          max. resid. norm for Fia-block=  1.002D-02 for orbital     16a         
          max. resid. fock norm         =  1.214D-02 for orbital    503a         
          mo-orthogonalization: Cholesky decomposition

 ITERATION  ENERGY          1e-ENERGY        2e-ENERGY     RMS[dD(SAO)]   TOL
   6  -209.32643139289    -525.17064427     193.97823357    0.248D-03 0.585D-13
                            Exc = -28.2989015288     Coul =  222.277135094    
                              N = 32.000031630    
                            current damping = 0.700
 
          Norm of current diis error: 0.49069E-01
          max. resid. norm for Fia-block=  3.580D-03 for orbital      1a         
          max. resid. fock norm         =  5.827D-03 for orbital    465a         

 ITERATION  ENERGY          1e-ENERGY        2e-ENERGY     RMS[dD(SAO)]   TOL
   7  -209.32659315047    -525.12174545     193.92917298    0.920D-04 0.585D-13
                            Exc = -28.2945869350     Coul =  222.223759917    
                              N = 32.000031872    
                            current damping = 0.550
 
          Norm of current diis error: 0.21828E-01
          max. resid. norm for Fia-block=  1.865D-03 for orbital      5a         
          max. resid. fock norm         =  2.901D-03 for orbital    398a         

 ITERATION  ENERGY          1e-ENERGY        2e-ENERGY     RMS[dD(SAO)]   TOL
   8  -209.32662196782    -525.14896080     193.95635951    0.292D-04 0.585D-13
                            Exc = -28.2984744364     Coul =  222.254833951    
                              N = 32.000031868    
                            current damping = 0.600
 
          Norm of current diis error: 0.73440E-02
          max. resid. norm for Fia-block=  5.209D-04 for orbital      5a         
          max. resid. fock norm         =  8.432D-04 for orbital    465a         

 ITERATION  ENERGY          1e-ENERGY        2e-ENERGY     RMS[dD(SAO)]   TOL
   9  -209.32662590361    -525.15323982     193.96063460    0.129D-04 0.585D-13
                            Exc = -28.2987911667     Coul =  222.259425768    
                              N = 32.000031883    
                            current damping = 0.450
 
          Norm of current diis error: 0.27724E-02
          max. resid. norm for Fia-block=  2.039D-04 for orbital      5a         
          max. resid. fock norm         =  3.708D-04 for orbital    495a         

 ITERATION  ENERGY          1e-ENERGY        2e-ENERGY     RMS[dD(SAO)]   TOL
  10  -209.32662634543    -525.14922478     193.95661912    0.677D-05 0.585D-13
                            Exc = -28.2986074476     Coul =  222.255226564    
                              N = 32.000031889    
                            current damping = 0.500
 
          Norm of current diis error: 0.16492E-02
          max. resid. norm for Fia-block=  1.371D-04 for orbital     15a         
          max. resid. fock norm         =  2.652D-04 for orbital    465a         
          mo-orthogonalization: Cholesky decomposition

 ITERATION  ENERGY          1e-ENERGY        2e-ENERGY     RMS[dD(SAO)]   TOL
  11  -209.32662642130    -525.15077735     193.95817161    0.169D-05 0.585D-13
                            Exc = -28.2988286421     Coul =  222.257000257    
                              N = 32.000031896    
                            current damping = 0.550
 
          Norm of current diis error: 0.13077E-02
          max. resid. norm for Fia-block=  5.448D-05 for orbital      9a         
          max. resid. fock norm         =  6.189D-05 for orbital      8a         

 ITERATION  ENERGY          1e-ENERGY        2e-ENERGY     RMS[dD(SAO)]   TOL
  12  -209.32662649332    -525.15206126     193.95945545    0.731D-06 0.585D-13
                            Exc = -28.2989187245     Coul =  222.258374175    
                              N = 32.000031892    
                            current damping = 0.400
 
          Norm of current diis error: 0.31135E-03
          max. resid. norm for Fia-block=  2.693D-05 for orbital     16a         
          max. resid. fock norm         =  2.882D-05 for orbital     16a         

 ITERATION  ENERGY          1e-ENERGY        2e-ENERGY     RMS[dD(SAO)]   TOL
  13  -209.32662649604    -525.15124776     193.95864195    0.646D-06 0.585D-13
                            Exc = -28.2988144070     Coul =  222.257456359    
                              N = 32.000031894    
                            current damping = 0.450
 
          Norm of current diis error: 0.27143E-03
          max. resid. norm for Fia-block=  9.457D-06 for orbital      8a         
          max. resid. fock norm         =  1.568D-05 for orbital    495a         

 DENSITY CONVERGED !


 ITERATION  ENERGY          1e-ENERGY        2e-ENERGY     RMS[dD(SAO)]   TOL
  14  -209.32662649880    -525.15131995     193.95871414    0.987D-07 0.585D-13
                            Exc = -28.2988406974     Coul =  222.257554838    
                              N = 32.000031893    
                            current damping = 0.500
 
          Norm of current diis error: 0.74718E-04
          max. resid. norm for Fia-block=  3.440D-06 for orbital     15a         
          max. resid. fock norm         =  6.452D-06 for orbital    465a         

 DENSITY CONVERGED !


 ITERATION  ENERGY          1e-ENERGY        2e-ENERGY     RMS[dD(SAO)]   TOL
  15  -209.32662649909    -525.15144550     193.95883969    0.579D-07 0.585D-13
                            Exc = -28.2988527996     Coul =  222.257692487    
                              N = 32.000031893    
                            current damping = 0.350
 
          Norm of current diis error: 0.14882E-04
          max. resid. norm for Fia-block=  9.671D-07 for orbital      9a         
          max. resid. fock norm         =  1.352D-06 for orbital    437a         
          mo-orthogonalization: Cholesky decomposition

 DENSITY CONVERGED !


 ITERATION  ENERGY          1e-ENERGY        2e-ENERGY     RMS[dD(SAO)]   TOL
  16  -209.32662649909    -525.15146850     193.95886268    0.969D-08 0.585D-13
                            Exc = -28.2988555639     Coul =  222.257718248    
                              N = 32.000031893    
                            current damping = 0.200
 
          Norm of current diis error: 0.71120E-05
          max. resid. norm for Fia-block=  4.181D-07 for orbital     15a         
          max. resid. fock norm         =  6.346D-07 for orbital    465a         

 ENERGY & DENSITY CONVERGED !

          Overall gridpoints after grid construction =        381146

 ITERATION  ENERGY          1e-ENERGY        2e-ENERGY     RMS[dD(SAO)]   TOL
  17  -209.32654923324    -525.15146091     193.95893236    0.611D-08 0.585D-13
                            Exc = -28.2987779654     Coul =  222.257710327    
                              N = 32.000006018    
                            current damping = 0.250
 
          Norm of current diis error: 0.36731E-05
          max. resid. norm for Fia-block=  9.508D-08 for orbital     13a         
          max. resid. fock norm         =  1.268D-07 for orbital     13a         

 End of SCF iterations

   convergence criteria satisfied after    17 iterations


                  ------------------------------------------ 
                 |  total energy      =   -209.32654923324  |
                  ------------------------------------------ 
                 :  kinetic energy    =    208.26040954352  :
                 :  potential energy  =   -417.58695877676  :
                 :  virial theorem    =      1.99490681094  :
                 :  wavefunction norm =      1.00000000000  :
                  .......................................... 


 <geterg> : there is no data group $energy 


 <skperg> : $end is missing 


 orbitals $scfmo  will be written to file mos

    irrep                 12a         13a         14a         15a         16a   
 eigenvalues H         -0.36562    -0.35450    -0.32996    -0.23829    -0.20952
            eV          -9.9492     -9.6466     -8.9788     -6.4844     -5.7013
 occupation              2.0000      2.0000      2.0000      2.0000      2.0000 

    irrep                 17a         18a         19a         20a         21a   
 eigenvalues H         -0.01058     0.00355     0.03865     0.04532     0.07277
            eV          -0.2880      0.0966      1.0516      1.2334      1.9802
 
 
 
 
 ==============================================================================
                           electrostatic moments
 ==============================================================================

 reference point for electrostatic moments:    0.00000   0.00000   0.00000

 
              nuc           elec       ->  total
 ------------------------------------------------------------------------------
                          charge      
 ------------------------------------------------------------------------------
          32.000000     -32.000000      -0.000000
 
 ------------------------------------------------------------------------------
                       dipole moment  
 ------------------------------------------------------------------------------
   x      -0.036276       0.309664       0.273388
   y       2.724793      -4.160773      -1.435980
   z     250.791867    -250.549718       0.242149
 
   | dipole moment | =     1.4817 a.u. =     3.7661 debye 
 
 ------------------------------------------------------------------------------
                     quadrupole moment
 ------------------------------------------------------------------------------
  xx     115.616996    -130.518268     -14.901272
  yy      87.878611    -107.791901     -19.913290
  zz    1976.362536   -1991.298669     -14.936134
  xy       3.582034      -4.357272      -0.775237
  xz      -9.751691      11.501714       1.750023
  yz       1.927096     -12.521704     -10.594608
 
     1/3  trace=     -16.583565
     anisotropy=      19.304784
 
 ==============================================================================
 


    ------------------------------------------------------------------------
         total  cpu-time :  8 minutes and 27 seconds
         total wall-time :  1 minutes and 10 seconds
    ------------------------------------------------------------------------

   ****  ridft : all done  ****


    2018-04-28 21:09:53.011 

