 operating system is UNIX !

 ridft (c-9-372.gp.local) : TURBOMOLE V7.2 ( 21454 ) 4 Oct 2017 at 12:48:15
 Copyright (C) 2017 TURBOMOLE GmbH, Karlsruhe


    2018-05-18 15:36:43.595 



                                  r i d f t

                        DFT program with RI approximation 
                                for coulomb part 




                                                 
                                 References:     
                                                 
          TURBOMOLE:                             
              R. Ahlrichs, M. Baer, M. Haeser, H. Horn, and
              C. Koelmel
              Electronic structure calculations on workstation
              computers: the program system TURBOMOLE
              Chem. Phys. Lett. 162: 165 (1989)
          Density Functional:                              
              O. Treutler and R. Ahlrichs                      
              Efficient Molecular Numerical Integration Schemes
              J. Chem. Phys. 102: 346 (1995)                   
          Parallel Version:                                
              Performance of parallel TURBOMOLE for Density    
              Functional Calculations                          
              M. v. Arnim and R. Ahlrichs                      
              J. Comp. Chem. 19: 1746 (1998)                   
          RI-J Method:                                     
              Auxiliary Basis Sets to approximate Coulomb      
              Potentials                                       
              Chem. Phys. Lett. 240: 283 (1995)                
              K. Eichkorn, O. Treutler, H. Oehm, M. Haeser     
              and R. Ahlrichs                                  
              Chem. Phys. Lett. 242: 652 (1995)                
                                                           
              Auxiliary Basis Sets for Main Row Atoms and their
              Use to approximate Coulomb Potentials            
              K. Eichkorn, F. Weigend, O. Treutler and         
              R. Ahlrichs                                      
              Theo. Chem. Acc. 97: 119 (1997)                   
                                                           
              Accurate Coulomb-fitting basis sets for H to Rn 
              F. Weigend                                        
              Phys. Chem. Chem. Phys. 8: 1057 (2006)            
                                                           
          Multipole accelerated RI-J (MARI-J):             
              Fast evaluation of the Coulomb potential for     
              electron densities using multipole accelerated   
              resolution of identity approximation             
              M. Sierka, A. Hogekamp and R. Ahlrichs           
              J. Chem. Phys. 118: 9136 (2003)                  
          RI-JK Method:                                     
              A fully direct RI-HF algorithm: Implementation,
              optimised auxiliary basis sets, demonstration of
              accuracy and efficiency                         
              F. Weigend                                      
              Phys. Chem. Chem. Phys. 4: 4285 (2002)           
          Two-component HF and DFT with spin-orbit coupling:  
              Self-consistent treatment of spin-orbit         
              interactions with efficient Hartree-Fock and    
              density functional methods                      
              M. K. Armbruster, F. Weigend, C. van Wüllen and 
              W. Klopper                                      
              Phys. Chem. Chem. Phys. 10: 1748 (2008)         
          Relativistic all-electron 2c calculations           
              An efficient implementation of two-component    
              relativistic exact-decoupling methods for large 
              molecules                                       
              D. Peng, N. Middendorf, F. Weigend, M. Reiher   
              J. Chem. Phys. 138, 184105 (2013)               
                                         




              +--------------------------------------------------+
              |      general information about current run       |
              +--------------------------------------------------+

 
 PBE functional
 exchange:    LDA + PBE
 correlation: LDA (PW) + PBE
 A DFT calculation using the RI-J approximation will be carried out.
 Allocatable memory for RI due to $ricore (MB):                   500


              +--------------------------------------------------+
              | Atomic coordinate, charge and isotop information |
              +--------------------------------------------------+

                    atomic coordinates            atom    charge  isotop
          1.18312216   -1.60799188    1.52295994    n      7.000     0
          0.77325684   -3.42323994    1.95473540    h      1.000     0
         -0.81722377   -0.16504076    0.55683381    c      6.000     0
         -2.89273913   -1.11192077    0.23355612    o      8.000     0
         -0.12637471    2.44015652    0.03710929    c      6.000     0
         -1.53019350    3.68838710   -0.74235935    h      1.000     0
          2.23657039    3.24642668    0.54902820    c      6.000     0
          2.83808562    5.16626679    0.20755398    h      1.000     0
          4.03292084    1.67543422    1.54784023    n      7.000     0
          5.77374816    2.31283841    1.97179275    h      1.000     0
          3.59573912   -0.83748588    2.13220021    c      6.000     0
          5.18504248   -2.19949672    3.07758398    o      8.000     0
 
       center of nuclear mass  :    1.57350028    0.10733316    1.23781779
       center of nuclear charge:    1.58686019    0.16947152    1.22461162

              +--------------------------------------------------+
              |               basis set information              |
              +--------------------------------------------------+

              we will work with the 1s 3p 5d 7f 9g ... basis set
              ...i.e. with spherical basis functions...

   type   atoms  prim   cont   basis
   ---------------------------------------------------------------------------
    n        2     77     57   def2-QZVP   [7s4p3d2f1g|15s8p3d2f1g]
    h        4     33     30   def2-QZVP   [4s3p2d1f|7s3p2d1f]
    c        4     77     57   def2-QZVP   [7s4p3d2f1g|15s8p3d2f1g]
    o        2     77     57   def2-QZVP   [7s4p3d2f1g|15s8p3d2f1g]
   ---------------------------------------------------------------------------
   total:   12    748    576
   ---------------------------------------------------------------------------

   total number of primitive shells          :  100
   total number of contracted shells         :  176
   total number of cartesian basis functions :  716
   total number of SCF-basis functions       :  576


 integral neglect threshold       :  0.47E-13
 integral storage threshold THIZE :  0.10E-04
 integral storage threshold THIME :         5

 RI-J AUXILIARY BASIS SET information:

              we will work with the 1s 3p 5d 7f 9g ... basis set
              ...i.e. with spherical basis functions...

   type   atoms  prim   cont   basis
   ---------------------------------------------------------------------------
    n        2     70     49   def2-QZVP   [6s4p3d1f1g|12s5p4d2f1g]
    h        4     16     11   def2-QZVP   [3s1p1d|5s2p1d]
    c        4     70     49   def2-QZVP   [6s4p3d1f1g|12s5p4d2f1g]
    o        2     70     49   def2-QZVP   [6s4p3d1f1g|12s5p4d2f1g]
   ---------------------------------------------------------------------------
   total:   12    624    436
   ---------------------------------------------------------------------------

   total number of primitive shells          :   80
   total number of contracted shells         :  140
   total number of cartesian basis functions :  536
   total number of SCF-basis functions       :  436


 symmetry group of the molecule :   c1 

 the group has the following generators :
   c1(z)

    1 symmetry operations found

 there are 1 real representations :   a   

 maximum number of shells which are related by symmetry :  1


    mo occupation :
   irrep   mo's   occupied
    a      576       29
 
 number of basis functions   :                    576
 number of occupied orbitals :                     29
 
  
           ------------------
           density functional
           ------------------
 PBE functional
 exchange:    LDA + PBE
 correlation: LDA (PW) + PBE

 iterations will be done with small grid
  
 spherical integration : Lebedev's spherical grid
 spherical gridsize    :                     5
    i.e. gridpoints    :                   590
 value for diffuse not defined
 radial integration    : Chebyshev 2nd kind (scaling 3)
 radial gridsize       :                     8
 integration cells     :                    12
 partition function    : becke
 partition sharpness   :                     3
  

 biggest AO integral is expected to be     6.990327543
  
           ------------------------
               RI-J - INFORMATION
           ------------------------
 Contributions to RI integral batches: 
  neglected integral batches:                  2431
  direct contribution:                         5036
  memory contribution:                  8109
 Memory core needed for (P|Q) and Cholesky      2 MByte
 Memory core minimum needed except of (P|Q)     1 MByte
 Total minimum memory core needed (sum)         3 MByte
  
 ****************************************
 Memory allocated for RI-J   414 MByte
 ****************************************
                                            

          ------------------------
          nuclear repulsion energy  :   357.127131193    
          ------------------------


         -----------------
         -S,T+V- integrals
         -----------------

 1e-integrals will be neglected if expon. factor < 0.466754E-14
 
   Difference densities algorithm switched on.
   The maximal number of linear combinations of
   difference densities is                    20 .

 DIIS switched on: error vector is FDS-SDF
 Max. Iterations for DIIS is     :   4
 DIIS matrix (see manual) 
    Scaling factor of diagonals  :  1.200
    threshold for scaling factor :  0.000

 scf convergence criterion : increment of total energy < .1000000D-08
                  and increment of one-electron energy < .1000000D-05

  MOs are in ASCII format !


 automatic virtual orbital shift switched on 
      shift if e(lumo)-e(homo) < 0.10000000    


 reading orbital data $scfmo  from file mos
 orbital characterization : expanded
 mo provided and orthogonalized by Cholesky decomposition

 DSCF restart information will be dumped onto file mos


 Starting SCF iterations

          Overall gridpoints after grid construction =         63594

 ITERATION  ENERGY          1e-ENERGY        2e-ENERGY     NORM[dD(SAO)]  TOL
   1  -412.61055501359    -1261.6861617     491.94847551    0.000D+00 0.466D-13
                            Exc = -53.5659752943     Coul =  545.514450803    
                              N = 58.000043287    
                            current damping = 0.700
 
          max. resid. norm for Fia-block=  8.091D-01 for orbital     10a         
          max. resid. fock norm         =  6.951D+01 for orbital    494a         

 ITERATION  ENERGY          1e-ENERGY        2e-ENERGY     NORM[dD(SAO)]  TOL
   2  -414.27649698512    -1268.5600618     497.15643361    0.168D+01 0.356D-13
                            Exc = -53.5530294024     Coul =  550.709463012    
                              N = 58.000038489    
                            current damping = 0.650
 
          Norm of current diis error:  3.3371    
          max. resid. norm for Fia-block=  1.645D-01 for orbital      1a         
          max. resid. fock norm         =  3.462D-01 for orbital    336a         

 ITERATION  ENERGY          1e-ENERGY        2e-ENERGY     NORM[dD(SAO)]  TOL
   3  -414.48288322788    -1271.1428262     499.53281175    0.735D+00 0.258D-13
                            Exc = -53.8180323174     Coul =  553.350844070    
                              N = 58.000034123    
                            current damping = 0.550
 
          Norm of current diis error:  1.5842    
          max. resid. norm for Fia-block=  6.635D-02 for orbital      1a         
          max. resid. fock norm         =  7.996D-02 for orbital    486a         

 ITERATION  ENERGY          1e-ENERGY        2e-ENERGY     NORM[dD(SAO)]  TOL
   4  -414.54246011740    -1271.3870115     499.71742021    0.440D+00 0.208D-13
                            Exc = -53.7175661062     Coul =  553.434986311    
                              N = 58.000032012    
                            current damping = 0.400
 
          Norm of current diis error: 0.74934    
          max. resid. norm for Fia-block=  3.286D-02 for orbital     10a         
          max. resid. fock norm         =  7.447D-02 for orbital    532a         

 ITERATION  ENERGY          1e-ENERGY        2e-ENERGY     NORM[dD(SAO)]  TOL
   5  -414.55205815310    -1271.6272519     499.94806251    0.205D+00 0.187D-13
                            Exc = -53.8177224901     Coul =  553.765785000    
                              N = 58.000031318    
                            current damping = 0.250
 
          Norm of current diis error: 0.48491    
          max. resid. norm for Fia-block=  1.077D-02 for orbital     27a         
          max. resid. fock norm         =  1.297D-02 for orbital    491a         
          mo-orthogonalization: Cholesky decomposition

 ITERATION  ENERGY          1e-ENERGY        2e-ENERGY     NORM[dD(SAO)]  TOL
   6  -414.55835925845    -1272.0130414     500.32755093    0.712D-01 0.174D-13
                            Exc = -53.8115968530     Coul =  554.139147788    
                              N = 58.000030371    
                            current damping = 0.100
 
          Norm of current diis error: 0.12422    
          max. resid. norm for Fia-block=  4.305D-03 for orbital     26a         
          max. resid. fock norm         =  7.146D-03 for orbital    537a         

 ITERATION  ENERGY          1e-ENERGY        2e-ENERGY     NORM[dD(SAO)]  TOL
   7  -414.55835895720    -1271.7070520     500.02156186    0.347D-01 0.169D-13
                            Exc = -53.7845024425     Coul =  553.806064299    
                              N = 58.000030340    
                            current damping = 0.150
 
          Norm of current diis error: 0.12007    
          max. resid. norm for Fia-block=  2.242D-03 for orbital     28a         
          max. resid. fock norm         =  4.474D-03 for orbital    572a         

 ITERATION  ENERGY          1e-ENERGY        2e-ENERGY     NORM[dD(SAO)]  TOL
   8  -414.55871079522    -1271.7740964     500.08825439    0.108D-01 0.168D-13
                            Exc = -53.7945428351     Coul =  553.882797222    
                              N = 58.000030169    
                            current damping = 0.200
 
          Norm of current diis error: 0.33190E-01
          max. resid. norm for Fia-block=  1.362D-03 for orbital     29a         
          max. resid. fock norm         =  2.295D-03 for orbital    573a         

 ITERATION  ENERGY          1e-ENERGY        2e-ENERGY     NORM[dD(SAO)]  TOL
   9  -414.55870596300    -1271.8709772     500.18514000    0.478D-02 0.169D-13
                            Exc = -53.8046565364     Coul =  553.989796535    
                              N = 58.000030331    
                            current damping = 0.250
 
          Norm of current diis error: 0.31966E-01
          max. resid. norm for Fia-block=  7.216D-04 for orbital     29a         
          max. resid. fock norm         =  1.142D-03 for orbital    544a         

 ITERATION  ENERGY          1e-ENERGY        2e-ENERGY     NORM[dD(SAO)]  TOL
  10  -414.55873594111    -1271.8629317     500.17706458    0.101D-02 0.168D-13
                            Exc = -53.8018243977     Coul =  553.978888981    
                              N = 58.000030255    
                            current damping = 0.300
 
          Norm of current diis error: 0.87227E-02
          max. resid. norm for Fia-block=  1.916D-04 for orbital     28a         
          max. resid. fock norm         =  3.034D-04 for orbital     21a         
          mo-orthogonalization: Cholesky decomposition

 ITERATION  ENERGY          1e-ENERGY        2e-ENERGY     NORM[dD(SAO)]  TOL
  11  -414.55873772743    -1271.8455987     500.15972974    0.231D-03 0.167D-13
                            Exc = -53.8009084753     Coul =  553.960638215    
                              N = 58.000030234    
                            current damping = 0.150
 
          Norm of current diis error: 0.20683E-02
          max. resid. norm for Fia-block=  5.500D-05 for orbital     24a         
          max. resid. fock norm         =  7.457D-05 for orbital     17a         

 ITERATION  ENERGY          1e-ENERGY        2e-ENERGY     NORM[dD(SAO)]  TOL
  12  -414.55873779993    -1271.8453625     500.15949351    0.110D-03 0.166D-13
                            Exc = -53.8006311909     Coul =  553.960124697    
                              N = 58.000030235    
                            current damping = 0.050
 
          Norm of current diis error: 0.11252E-02
          max. resid. norm for Fia-block=  2.380D-05 for orbital     24a         
          max. resid. fock norm         =  3.676D-05 for orbital     17a         

 ITERATION  ENERGY          1e-ENERGY        2e-ENERGY     NORM[dD(SAO)]  TOL
  13  -414.55873782197    -1271.8459081     500.16003905    0.620D-04 0.165D-13
                            Exc = -53.8007444001     Coul =  553.960783447    
                              N = 58.000030234    
                            current damping = 0.100
 
          Norm of current diis error: 0.55711E-03
          max. resid. norm for Fia-block=  1.339D-05 for orbital     25a         
          max. resid. fock norm         =  3.542D-05 for orbital    574a         

 ITERATION  ENERGY          1e-ENERGY        2e-ENERGY     NORM[dD(SAO)]  TOL
  14  -414.55873782653    -1271.8457041     500.15983512    0.188D-04 0.165D-13
                            Exc = -53.8007420763     Coul =  553.960577201    
                              N = 58.000030234    
                            current damping = 0.150
 
          Norm of current diis error: 0.31148E-03
          max. resid. norm for Fia-block=  8.726D-06 for orbital     26a         
          max. resid. fock norm         =  1.873D-05 for orbital    575a         

 ITERATION  ENERGY          1e-ENERGY        2e-ENERGY     NORM[dD(SAO)]  TOL
  15  -414.55873782829    -1271.8456170     500.15974802    0.684D-05 0.165D-13
                            Exc = -53.8007338942     Coul =  553.960481910    
                              N = 58.000030235    
                            current damping = 0.050
 
          Norm of current diis error: 0.17044E-03
          max. resid. norm for Fia-block=  5.349D-06 for orbital     29a         
          max. resid. fock norm         =  1.021D-05 for orbital    558a         
          mo-orthogonalization: Cholesky decomposition

 ITERATION  ENERGY          1e-ENERGY        2e-ENERGY     NORM[dD(SAO)]  TOL
  16  -414.55873782888    -1271.8457061     500.15983711    0.161D-05 0.165D-13
                            Exc = -53.8007281088     Coul =  553.960565218    
                              N = 58.000030234    
                            current damping = 0.100
 
          Norm of current diis error: 0.10213E-03
          max. resid. norm for Fia-block=  2.497D-06 for orbital     29a         
          max. resid. fock norm         =  4.008D-06 for orbital    544a         

 ENERGY CONVERGED !

          Overall gridpoints after grid construction =        200251

 ITERATION  ENERGY          1e-ENERGY        2e-ENERGY     NORM[dD(SAO)]  TOL
  17  -414.55873106254    -1271.8457088     500.15984652    0.577D-06 0.164D-13
                            Exc = -53.8007308932     Coul =  553.960577410    
                              N = 57.999999387    
                            current damping = 0.050
 
          Norm of current diis error: 0.40662E-04
          max. resid. norm for Fia-block=  7.847D-07 for orbital     25a         
          max. resid. fock norm         =  2.164D-06 for orbital    572a         

 End of SCF iterations

   convergence criteria satisfied after    17 iterations


                  ------------------------------------------ 
                 |  total energy      =   -414.55873106254  |
                  ------------------------------------------ 
                 :  kinetic energy    =    413.07135241994  :
                 :  potential energy  =   -827.63008348248  :
                 :  virial theorem    =      1.99641214011  :
                 :  wavefunction norm =      1.00000000000  :
                  .......................................... 


 <geterg> : there is no data group $energy 


 <skperg> : $end is missing 


 orbitals $scfmo  will be written to file mos

    irrep                 25a         26a         27a         28a         29a   
 eigenvalues H         -0.34170    -0.26232    -0.25938    -0.23456    -0.22886
            eV          -9.2983     -7.1382     -7.0583     -6.3828     -6.2276
 occupation              2.0000      2.0000      2.0000      2.0000      2.0000 

    irrep                 30a         31a         32a         33a         34a   
 eigenvalues H         -0.08714    -0.03947    -0.02488     0.01567     0.02109
            eV          -2.3712     -1.0740     -0.6770      0.4264      0.5740
 
 
 
 
 ==============================================================================
                           electrostatic moments
 ==============================================================================

 reference point for electrostatic moments:    0.00000   0.00000   0.00000

 
              nuc           elec       ->  total
 ------------------------------------------------------------------------------
                          charge      
 ------------------------------------------------------------------------------
          58.000000     -58.000000      -0.000000
 
 ------------------------------------------------------------------------------
                       dipole moment  
 ------------------------------------------------------------------------------
   x      92.037891     -91.207634       0.830257
   y       9.829348      -8.339823       1.489525
   z      71.027474     -71.203842      -0.176368
 
   | dipole moment | =     1.7144 a.u. =     4.3575 debye 
 
 ------------------------------------------------------------------------------
                     quadrupole moment
 ------------------------------------------------------------------------------
  xx     561.693231    -600.018149     -38.324919
  yy     247.038185    -276.201132     -29.162947
  zz     148.473125    -184.186111     -35.712986
  xy      12.658159      -6.665268       5.992891
  xz     243.794774    -246.033443      -2.238668
  yz     -59.044726      60.732133       1.687406
 
     1/3  trace=     -34.400284
     anisotropy=      14.076740
 
 ==============================================================================
 


    ------------------------------------------------------------------------
         total  cpu-time :  2 minutes and 16 seconds
         total wall-time :  7 minutes and 35 seconds
    ------------------------------------------------------------------------

   ****  ridft : all done  ****


    2018-05-18 15:44:19.049 

