 this is node-proc. number 0 running on node c-13-38.gp.local
 the total number of node-proc. spawned is  61

 dscfserver (c-13-38.gp.local) : TURBOMOLE V7.2 ( 21471 ) 7 Nov 2017 at 16:15:16
 Copyright (C) 2017 TURBOMOLE GmbH, Karlsruhe


    2018-03-05 11:45:31.872 

 
    0:04:25 ---- Start global counter...
    1:39:23 ---- ... finished.
 
    1:44:51 ---- Start global counter...
    3:16:03 ---- ... finished.
 
    3:21:33 ---- Start global counter...
    4:46:51 ---- ... finished.
 
    4:52:28 ---- Start global counter...
    6:12:41 ---- ... finished.
 
    6:18:17 ---- Start global counter...
    7:25:59 ---- ... finished.
 
    7:33:30 ---- Start global counter...
    8:31:08 ---- ... finished.
 
    8:36:38 ---- Start global counter...
    9:27:37 ---- ... finished.
 
    9:33:05 ---- Start global counter...
   10:17:09 ---- ... finished.
 
   10:22:36 ---- Start global counter...
   11:02:03 ---- ... finished.
 
   11:07:34 ---- Start global counter...
   11:40:07 ---- ... finished.
 
   11:47:33 ---- Start global counter...
   12:14:37 ---- ... finished.
 
   12:20:08 ---- Start global counter...
   12:41:22 ---- ... finished.
 
   12:46:49 ---- Start global counter...
   13:03:57 ---- ... finished.
 
   13:08:37 ---- ByeBye Tag received


 ! Total wall-clock time in seconds  :    47317.2
 ! Time (sec) spent in global counter:    42570.1
 ! So-called SERIAL wall-clock time  :     4747.0

  *** Regular termination of server ***
 total turnaround time of dscfserver 47319.79 sec
 cpu elapsed by dscfserver process    2769.02 sec 

   ***  dscf server : all done  ***


    2018-03-06 00:54:11.661 

