Using Slurm to start processes with PMI2
STARTING ridft ON 8 PROCESSORS!
RUNNING PROGRAM /beegfs/modfac/apps/TURBOMOLE/7.0_intel_GA/bin/em64t-unknown-linux-gnu_mpi/ridft_mpi.
PLEASE WAIT UNTIL ridft HAS FINISHED.
Look for the output in slave1.output.
  this is node-proc. number 1 running on node c-9-414.local
  the total number of node-proc. spawned is            8
  parallel platform: MPP, or cluster with fast interconnect

 ridft (c-9-414.local) : TURBOMOLE V7.0.2( ) 15 Jan 2016 at 17:47:42
 Copyright (C) 2016 TURBOMOLE GmbH, Karlsruhe


    2017-12-19 20:04:29.231 



                                  r i d f t

                        DFT program with RI approximation 
                                for coulomb part 




                                                 
                                 References:     
                                                 
          TURBOMOLE:                             
              R. Ahlrichs, M. Baer, M. Haeser, H. Horn, and
              C. Koelmel
              Electronic structure calculations on workstation
              computers: the program system TURBOMOLE
              Chem. Phys. Lett. 162: 165 (1989)
          Density Functional:                              
              O. Treutler and R. Ahlrichs                      
              Efficient Molecular Numerical Integration Schemes
              J. Chem. Phys. 102: 346 (1995)                   
          Parallel Version:                                
              Performance of parallel TURBOMOLE for Density    
              Functional Calculations                          
              M. v. Arnim and R. Ahlrichs                      
              J. Comp. Chem. 19: 1746 (1998)                   
          RI-J Method:                                     
              Auxiliary Basis Sets to approximate Coulomb      
              Potentials                                       
              Chem. Phys. Lett. 240: 283 (1995)                
              K. Eichkorn, O. Treutler, H. Oehm, M. Haeser     
              and R. Ahlrichs                                  
              Chem. Phys. Lett. 242: 652 (1995)                
                                                           
              Auxiliary Basis Sets for Main Row Atoms and their
              Use to approximate Coulomb Potentials            
              K. Eichkorn, F. Weigend, O. Treutler and         
              R. Ahlrichs                                      
              Theo. Chem. Acc. 97: 119 (1997)                   
                                                           
              Accurate Coulomb-fitting basis sets for H to Rn 
              F. Weigend                                        
              Phys. Chem. Chem. Phys. 8: 1057 (2006)            
                                                           
          Multipole accelerated RI-J (MARI-J):             
              Fast evaluation of the Coulomb potential for     
              electron densities using multipole accelerated   
              resolution of identity approximation             
              M. Sierka, A. Hogekamp and R. Ahlrichs           
              J. Chem. Phys. 118: 9136 (2003)                  
          RI-JK Method:                                     
              A fully direct RI-HF algorithm: Implementation,
              optimised auxiliary basis sets, demonstration of
              accuracy and efficiency                         
              F. Weigend                                      
              Phys. Chem. Chem. Phys. 4: 4285 (2002)           
          Two-component HF and DFT with spin-orbit coupling:  
              Self-consistent treatment of spin-orbit         
              interactions with efficient Hartree-Fock and    
              density functional methods                      
              M. K. Armbruster, F. Weigend, C. van Wüllen and 
              W. Klopper                                      
              Phys. Chem. Chem. Phys. 10: 1748 (2008)         
          Relativistic all-electron 2c calculations           
              An efficient implementation of two-component    
              relativistic exact-decoupling methods for large 
              molecules                                       
              D. Peng, N. Middendorf, F. Weigend, M. Reiher   
              J. Chem. Phys. 138, 184105 (2013)               
                                         


 


              +--------------------------------------------------+
              |      general information about current run       |
              +--------------------------------------------------+

 

 SCF run will be profiled !


 DENSITY CONVERGENCE CHECK SWITCHED ON !
 SCF CONVERGENCE IF RMS(delta[D]) <     0.1000000000E-06

 PBE functional
 exchange:    LDA + PBE
 correlation: LDA (PW) + PBE
 A DFT calculation using the RI-J approximation will be carried out.
 Allocatable memory for RI due to $ricore (MB):       13000


              +--------------------------------------------------+
              | Atomic coordinate, charge and isotop information |
              +--------------------------------------------------+

                    atomic coordinates            atom    charge  isotop
          5.88813734   -0.70500111   -3.88530633    c      6.000     0
          7.46496904   -2.38289009   -5.13073509    c      6.000     0
          6.19761535   -4.75225758   -5.25814494    c      6.000     0
          3.87407689   -4.48234434   -4.08010158    c      6.000     0
          6.25655002    2.06836852   -3.23433815    c      6.000     0
          8.85211165    2.91570881   -4.30422838    c      6.000     0
          4.19501577    3.67170285   -4.42889895    c      6.000     0
          4.06490585    4.65917784   -6.85091128    c      6.000     0
          1.83667183   -6.42713275   -3.52896087    c      6.000     0
          1.66054487   -6.81481300   -0.62701933    c      6.000     0
          2.59980314   -8.95714944   -4.74227316    c      6.000     0
         -0.72601665   -5.65077837   -4.54910354    c      6.000     0
         -2.04838460   -6.39009229   -6.68976864    c      6.000     0
          3.71857385   -2.01252912   -3.25806352    n      7.000     0
          1.98310132    4.30774632   -3.20879383    n      7.000     0
         -2.24478318   -3.97802917   -3.26667210    n      7.000     0
         -4.15907599    4.64798436   -4.41568789    c      6.000     0
         -6.48028542    4.84512158   -5.60879226    c      6.000     0
         -7.71677151    2.47038683   -5.40867641    c      6.000     0
         -6.12996903    0.84925868   -4.10611218    c      6.000     0
         -2.13848754    6.65231739   -4.03003251    c      6.000     0
         -2.13974460    7.53613285   -1.24140136    c      6.000     0
         -2.79846059    8.95469296   -5.68922149    c      6.000     0
          0.44688383    5.68912480   -4.79872978    c      6.000     0
          1.71037524    5.92415029   -7.08301053    c      6.000     0
         -6.53010342   -1.91484081   -3.43211771    c      6.000     0
         -9.11172712   -2.75083009   -4.53092405    c      6.000     0
         -4.48358576   -3.60980256   -4.52650733    c      6.000     0
         -4.41508378   -5.10700055   -6.67533547    c      6.000     0
         -3.97269821    2.20828396   -3.49967860    n      7.000     0
          6.34575111    2.44193288   -0.38789317    c      6.000     0
          6.46192400    4.64729941    1.07351646    c      6.000     0
          6.52036132    0.43558407    1.21210909    n      7.000     0
          6.71927213    3.90486132    3.63441499    c      6.000     0
          6.74847942    1.25794117    3.68513219    c      6.000     0
         -6.62919027   -2.29882688   -0.58046950    c      6.000     0
         -6.88286683   -4.52582839    0.83617046    c      6.000     0
         -6.54204615   -0.33167843    1.07238091    n      7.000     0
         -6.95682671   -3.83118729    3.42368179    c      6.000     0
         -6.71194691   -1.19616926    3.53401960    c      6.000     0
          6.86095942   -0.46080545    5.79072434    c      6.000     0
         -6.40633111    0.44657984    5.69220925    c      6.000     0
          7.08720383    0.09769553    8.02584205    o      8.000     0
         -6.49219102   -0.19914442    7.91542886    o      8.000     0
          6.64746838   -2.94317412    4.99414516    o      8.000     0
         -5.91207736    2.88315326    4.94930277    o      8.000     0
         -5.20137716    4.61259768    6.95610639    c      6.000     0
          6.62421050   -4.79673048    7.00371187    c      6.000     0
         -3.79805299    6.79601003    5.74249842    c      6.000     0
          5.90891401   -7.31357743    5.83219569    c      6.000     0
         -7.13144072   -5.61262007    5.62542875    c      6.000     0
          6.75959021    5.63813159    5.87596073    c      6.000     0
          4.12038686    5.94432367    7.06961147    c      6.000     0
         -4.51637395   -6.37341901    6.65528981    c      6.000     0
         -7.02473319   -7.17245329   -0.17684896    c      6.000     0
          6.24446126    7.31676831    0.14252854    c      6.000     0
          9.31498528   -1.95545823   -5.88328917    h      1.000     0
          6.91294824   -6.46186697   -6.11718603    h      1.000     0
          9.16706939    4.90725357   -3.86821718    h      1.000     0
          8.90569235    2.66076619   -6.35423917    h      1.000     0
         10.36192276    1.79274582   -3.44938126    h      1.000     0
          5.49230340    4.46937291   -8.30021361    h      1.000     0
          0.20941130   -8.22259998   -0.17816968    h      1.000     0
          1.18063681   -5.05205539    0.33889174    h      1.000     0
          3.48813808   -7.46672343    0.09094467    h      1.000     0
          2.79245819   -8.77488393   -6.79269918    h      1.000     0
          1.15872398  -10.38408544   -4.33996149    h      1.000     0
          4.40939192   -9.59764278   -3.97103940    h      1.000     0
         -1.40065386   -7.71858140   -8.10060452    h      1.000     0
          1.56219358    3.88484538   -1.34327131    h      1.000     0
         -1.71532600   -2.97192382   -1.68660340    h      1.000     0
         -7.20937915    6.51244613   -6.53536592    h      1.000     0
         -9.55595727    1.99757262   -6.15930542    h      1.000     0
         -0.73431615    9.03527581   -0.97223098    h      1.000     0
         -1.68925479    5.99272455    0.05090364    h      1.000     0
         -4.01221238    8.27914065   -0.76426059    h      1.000     0
         -2.92312634    8.43875333   -7.68669175    h      1.000     0
         -1.34122735   10.40399610   -5.46637761    h      1.000     0
         -4.61803796    9.74920401   -5.10632734    h      1.000     0
          1.01355427    6.89403705   -8.74037589    h      1.000     0
         -9.12249245   -2.52377794   -6.58537113    h      1.000     0
        -10.62590526   -1.60320879   -3.72039092    h      1.000     0
         -9.45337065   -4.73359669   -4.07621549    h      1.000     0
         -5.90238622   -5.28683590   -8.06451726    h      1.000     0
         -2.44705541    1.48027630   -2.52964106    h      1.000     0
          6.48226196   -1.39395833    0.65771515    h      1.000     0
         -6.22768384    1.48903708    0.57502657    h      1.000     0
         -4.02601229    3.58539466    8.30971824    h      1.000     0
         -6.92452666    5.22097300    7.93380824    h      1.000     0
          5.27000758   -4.19470698    8.44563693    h      1.000     0
          8.50078412   -4.85093127    7.87942904    h      1.000     0
         -2.12171029    6.10476613    4.75288769    h      1.000     0
         -3.20715826    8.13611141    7.20755759    h      1.000     0
         -5.00338125    7.79435423    4.39022116    h      1.000     0
          4.01772574   -7.22508599    5.00338354    h      1.000     0
          5.91844328   -8.78752516    7.28682169    h      1.000     0
          7.24863120   -7.84747545    4.34922478    h      1.000     0
         -8.15857165   -7.31414932    5.03354954    h      1.000     0
         -8.21137019   -4.72431101    7.14789059    h      1.000     0
          7.46137826    7.49463897    5.27407414    h      1.000     0
          8.06347995    4.90374261    7.30394796    h      1.000     0
          2.74330913    6.55993502    5.65827202    h      1.000     0
          4.17210667    7.32415404    8.61589661    h      1.000     0
          3.47719309    4.13405397    7.82962168    h      1.000     0
         -3.34347641   -7.19970451    5.16235008    h      1.000     0
         -4.70150603   -7.75987304    8.18457189    h      1.000     0
         -3.53862740   -4.71351157    7.40203372    h      1.000     0
         -6.17458100   -7.29211994   -2.05696733    h      1.000     0
         -8.98493976   -7.84467075   -0.32037590    h      1.000     0
         -6.01609637   -8.48818237    1.06297989    h      1.000     0
          6.15549118    7.38845944   -1.91903823    h      1.000     0
          7.85037307    8.47030623    0.76942183    h      1.000     0
          4.51739228    8.20878202    0.86280576    h      1.000     0
          2.21107366   -1.24238444   -2.29141503    h      1.000     0
          0.12641946    0.84327464    1.85072377    c      0.000     0
          0.62417666    3.15239373    1.95379794    o      0.000     0
          0.09726621   -0.73161656    4.25299077    c      0.000     0
         -0.34183391   -0.33569482   -0.23102396    o      0.000     0
          1.71111944   -2.02673592    4.21447903    h      0.000     0
         -1.61899500   -1.87693380    4.32292944    h      0.000     0
          0.23542234    0.46209330    5.92860916    h      0.000     0
 
       center of nuclear mass  :   -0.00684897    0.06505749   -0.14317684
       center of nuclear charge:   -0.01524957    0.01220420   -0.27924886

              +--------------------------------------------------+
              |               basis set information              |
              +--------------------------------------------------+

              we will work with the 1s 3p 5d 7f 9g ... basis set
              ...i.e. with spherical basis functions...

   type   atoms  prim   cont   basis
   ---------------------------------------------------------------------------
    c       48     77     55   cc-pVQZ   [5s4p3d2f1g|21s6p3d2f1g]
    n        6     77     55   cc-pVQZ   [5s4p3d2f1g|21s6p3d2f1g]
    o        6     77     55   cc-pVQZ   [5s4p3d2f1g|21s6p3d2f1g]
    h       61     32     30   cc-pVQZ   [4s3p2d1f|6s3p2d1f]
   ---------------------------------------------------------------------------
   total:  121   6572   5130
   ---------------------------------------------------------------------------

   total number of primitive shells          :  111
   total number of contracted shells         : 1510
   total number of cartesian basis functions : 6335
   total number of SCF-basis functions       : 5130


 integral neglect threshold       :  0.53E-14
 integral storage threshold THIZE :  0.10E-04
 integral storage threshold THIME :         5

 RI-J AUXILIARY BASIS SET information:

              we will work with the 1s 3p 5d 7f 9g ... basis set
              ...i.e. with spherical basis functions...

   type   atoms  prim   cont   basis
   ---------------------------------------------------------------------------
    c       48     70     49   cc-pVQZ   [6s4p3d1f1g|12s5p4d2f1g]
    n        6     70     49   cc-pVQZ   [6s4p3d1f1g|12s5p4d2f1g]
    o        6     70     49   cc-pVQZ   [6s4p3d1f1g|12s5p4d2f1g]
    h       61     16     11   cc-pVQZ   [3s1p1d|5s2p1d]
   ---------------------------------------------------------------------------
   total:  121   5176   3611
   ---------------------------------------------------------------------------

   total number of primitive shells          :   80
   total number of contracted shells         : 1205
   total number of cartesian basis functions : 4392
   total number of SCF-basis functions       : 3611


 symmetry group of the molecule :   c1 

 the group has the following generators :
   c1(z)

    1 symmetry operations found

 there are 1 real representations :   a   

 maximum number of shells which are related by symmetry :  1


    mo occupation :
   irrep   mo's   occupied
    a     5130      204
 
 number of basis functions   :         5130
 number of occupied orbitals :          204
 
  
           ------------------
           density functional
           ------------------
 Dummy atoms with grid-point found.
 DFT quadrature threshold dgrenze tightened by factor 1/10.

 PBE functional
 exchange:    LDA + PBE
 correlation: LDA (PW) + PBE
 Dummy atoms with grid-point found.
 DFT quadrature threshold dgrenze tightened by factor 1/10.

 Dummy atoms with grid-point found.
 DFT quadrature threshold dgrenze tightened by factor 1/10.

 grinp -> nfun, dfgga, dfhybrid 
           6 T F
 iterations will be done with small grid
  
 spherical integration : Lebedev's spherical grid
 spherical gridsize    :           5
    i.e. gridpoints    :         590
 value for diffuse not defined
 radial integration    : Chebyshev 2nd kind (scaling 3)
 radial gridsize       :           8
 integration cells     :         121
 partition function    : becke
 partition sharpness   :           3
  
 found dummy atom(s) with basis: included in dft

 <rddim> : input of entry tasksize
           from data group '$pardft' failed !

               Default values taken

 <rddim> : input of entry memdiv
           from data group '$pardft' failed !

               Default values taken
  RIDFT: memory allocation for DFT gridpoints
  MEMORY is divided by 1 as DEFAULT
 Each node can hold at most  the            1 -th part
 of the gridpoints    

 biggest AO integral is expected to be     4.785886462
  
           ------------------------
               RI-J - INFORMATION
           ------------------------
 
 
 **************************************************
 *      MEMORY ALLOCATION FOR PARALLEL RI-DFT     *
 **************************************************
 
 
MEMORY FOR (MU NU/ ALPHA), SEQUENTIAL RUN              12891 MByte
 
            DIFFERENCE IN MEMORY NEED:       DIAG./SLAVE  
 
      TOTAL DIFFERENCE :                   1175 MByte
 
      difference in xcore:                  110 MByte
      difference in fatmat:                 358 MByte
      getcor calls skipped by slaves:       708 MByte
 
 
           Integral memory available for diagonal.     12891 MByte
 
           Integral memory available for slave             0 MByte
 
         MEMORY FOR (MU NU/ ALPHA) ON DIAGONALIZER     12891 MByte
 
         MEMORY FOR (MU NU/ ALPHA) ON ONE SLAVE            0 MByte
 
         TOTAL MEMORY FOR (MU NU/ ALPHA),ALL NODES     12891 MByte
 
 Contributions to RI integral batches: 
  neglected integral batches:      716473
  direct contribution:             315534
  memory contribution:      108798
 Memory core needed for (P|Q) and Cholesky    100 MByte
 Memory core minimum needed except of (P|Q)    13 MByte
 Total minimum memory core needed (sum)       113 MByte
     number of direct tasks:         160
  
 ****************************************
 Memory allocated for RI-J 13003 MByte
 ****************************************
                                            

          ------------------------
          nuclear repulsion energy  :   8574.18314929    
          ------------------------

 
          -----------------
          -S integrals
          -----------------

 1e-integrals will be neglected if expon. factor < 0.527539E-15
 
          -----------------
          -T+V integrals
          -----------------

 1e-integrals will be neglected if expon. factor < 0.527539E-15
 Difference densities >>NOT<< switched on in parallel ridft!

 automatic virtual orbital shift switched on 
      shift if e(lumo)-e(homo) < 0.10000000    


 DIIS switched on: error vector is FDS-SDF
 Max. Iterations for DIIS is     :   4
 DIIS matrix (see manual) 
    Scaling factor of diagonals  :  1.200
    threshold for scaling factor :  0.000

 scf convergence criterion : increment of total energy < .1000000D-08
                  and increment of one-electron energy < .1000000D-05


 <geterg> : there is no data group $energy 

  MOs are in ASCII format !


 reading orbital data $scfmo  from file mos . 

 orbital characterization : expanded
 
 mo provided and orthogonalized by Cholesky decomposition

 DSCF restart information will be dumped onto file mos


 Starting SCF iterations


 ITERATION  ENERGY          1e-ENERGY        2e-ENERGY     RMS[dD(SAO)]   TOL
   1  -2407.1383541462    -20268.461398     9287.1398947    0.000D+00 0.526D-14
                            Exc = -337.950003485     Coul =  9625.08989822    
                              N = 408.00099284    
                            current damping = 0.700
 
          max. resid. norm for Fia-block=  3.483D-01 for orbital      1a         
          max. resid. fock norm         =  1.480D+01 for orbital   4677a         

 ITERATION  ENERGY          1e-ENERGY        2e-ENERGY     RMS[dD(SAO)]   TOL
   2  -2413.6109478426    -20334.024136     9346.2300389    0.470D-02 0.526D-14
                            Exc = -341.915475811     Coul =  9688.14551474    
                              N = 408.00088944    
                            current damping = 0.650
 
          Norm of current diis error:  8.3956    
          max. resid. norm for Fia-block=  1.657D-01 for orbital      3a         
          max. resid. fock norm         =  3.327D-01 for orbital   5036a         

 ITERATION  ENERGY          1e-ENERGY        2e-ENERGY     RMS[dD(SAO)]   TOL
   3  -2414.7774841875    -20349.228024     9360.2673907    0.152D-02 0.526D-14
                            Exc = -343.615335405     Coul =  9703.88272611    
                              N = 408.00079645    
                            current damping = 0.550
 
          Norm of current diis error:  4.1784    
          max. resid. norm for Fia-block=  6.905D-02 for orbital    188a         
          max. resid. fock norm         =  7.116D-02 for orbital    188a         

 ITERATION  ENERGY          1e-ENERGY        2e-ENERGY     RMS[dD(SAO)]   TOL
   4  -2415.1644931172    -20360.332042     9370.9843996    0.664D-03 0.526D-14
                            Exc = -343.944045428     Coul =  9714.92844500    
                              N = 408.00078826    
                            current damping = 0.450
 
          Norm of current diis error:  1.7546    
          max. resid. norm for Fia-block=  5.528D-02 for orbital     66a         
          max. resid. fock norm         =  1.099D-01 for orbital   4727a         

 ITERATION  ENERGY          1e-ENERGY        2e-ENERGY     RMS[dD(SAO)]   TOL
   5  -2415.2115586039    -20361.299109     9371.9044009    0.327D-03 0.526D-14
                            Exc = -344.654840359     Coul =  9716.55924123    
                              N = 408.00075319    
                            current damping = 0.350
 
          Norm of current diis error:  1.2345    
          max. resid. norm for Fia-block=  2.810D-02 for orbital    192a         
          max. resid. fock norm         =  3.521D-02 for orbital   5028a         
          mo-orthogonalization: Cholesky decomposition

 ITERATION  ENERGY          1e-ENERGY        2e-ENERGY     RMS[dD(SAO)]   TOL
   6  -2415.2474117550    -20366.553172     9377.1226108    0.222D-03 0.526D-14
                            Exc = -344.628136014     Coul =  9721.75074680    
                              N = 408.00077353    
                            current damping = 0.250
 
          Norm of current diis error: 0.55148    
          max. resid. norm for Fia-block=  1.399D-02 for orbital    189a         
          max. resid. fock norm         =  2.356D-02 for orbital   4926a         

 ITERATION  ENERGY          1e-ENERGY        2e-ENERGY     RMS[dD(SAO)]   TOL
   7  -2415.2512004363    -20363.147741     9373.7133914    0.998D-04 0.526D-14
                            Exc = -344.537267152     Coul =  9718.25065859    
                              N = 408.00078147    
                            current damping = 0.300
 
          Norm of current diis error: 0.40133    
          max. resid. norm for Fia-block=  6.225D-03 for orbital    190a         
          max. resid. fock norm         =  9.882D-03 for orbital   4986a         

 ITERATION  ENERGY          1e-ENERGY        2e-ENERGY     RMS[dD(SAO)]   TOL
   8  -2415.2547859640    -20364.593719     9375.1557841    0.311D-04 0.526D-14
                            Exc = -344.608421105     Coul =  9719.76420517    
                              N = 408.00077661    
                            current damping = 0.350
 
          Norm of current diis error: 0.80296E-01
          max. resid. norm for Fia-block=  1.439D-03 for orbital    198a         
          max. resid. fock norm         =  3.025D-03 for orbital   5081a         

 ITERATION  ENERGY          1e-ENERGY        2e-ENERGY     RMS[dD(SAO)]   TOL
   9  -2415.2547485250    -20364.658361     9375.2204632    0.106D-04 0.526D-14
                            Exc = -344.623933527     Coul =  9719.84439670    
                              N = 408.00077564    
                            current damping = 0.400
 
          Norm of current diis error: 0.90704E-01
          max. resid. norm for Fia-block=  6.635D-04 for orbital    201a         
          max. resid. fock norm         =  1.118D-03 for orbital   5081a         

 ITERATION  ENERGY          1e-ENERGY        2e-ENERGY     RMS[dD(SAO)]   TOL
  10  -2415.2549033239    -20364.755565     9375.3175122    0.536D-05 0.526D-14
                            Exc = -344.617758330     Coul =  9719.93527052    
                              N = 408.00077638    
                            current damping = 0.250
 
          Norm of current diis error: 0.32307E-01
          max. resid. norm for Fia-block=  3.604D-04 for orbital    198a         
          max. resid. fock norm         =  6.742D-04 for orbital   5081a         
          mo-orthogonalization: Cholesky decomposition

 ITERATION  ENERGY          1e-ENERGY        2e-ENERGY     RMS[dD(SAO)]   TOL
  11  -2415.2549229756    -20364.678126     9375.2400539    0.307D-05 0.526D-14
                            Exc = -344.615102422     Coul =  9719.85515633    
                              N = 408.00077642    
                            current damping = 0.300
 
          Norm of current diis error: 0.10956E-01
          max. resid. norm for Fia-block=  1.519D-04 for orbital    189a         
          max. resid. fock norm         =  3.228D-04 for orbital   5081a         

 ITERATION  ENERGY          1e-ENERGY        2e-ENERGY     RMS[dD(SAO)]   TOL
  12  -2415.2549240516    -20364.698986     9375.2609127    0.123D-05 0.526D-14
                            Exc = -344.615748109     Coul =  9719.87666082    
                              N = 408.00077642    
                            current damping = 0.350
 
          Norm of current diis error: 0.83916E-02
          max. resid. norm for Fia-block=  8.043D-05 for orbital     61a         
          max. resid. fock norm         =  1.569D-04 for orbital   5085a         

 ITERATION  ENERGY          1e-ENERGY        2e-ENERGY     RMS[dD(SAO)]   TOL
  13  -2415.2549255304    -20364.701669     9375.2635940    0.567D-06 0.526D-14
                            Exc = -344.615170853     Coul =  9719.87876482    
                              N = 408.00077648    
                            current damping = 0.200
 
          Norm of current diis error: 0.22191E-02
          max. resid. norm for Fia-block=  3.191D-05 for orbital    190a         
          max. resid. fock norm         =  7.031D-05 for orbital   4960a         

 ITERATION  ENERGY          1e-ENERGY        2e-ENERGY     RMS[dD(SAO)]   TOL
  14  -2415.2549256063    -20364.692192     9375.2541174    0.288D-06 0.526D-14
                            Exc = -344.615296985     Coul =  9719.86941442    
                              N = 408.00077644    
                            current damping = 0.250
 
          Norm of current diis error: 0.12822E-02
          max. resid. norm for Fia-block=  1.514D-05 for orbital    197a         
          max. resid. fock norm         =  3.386D-05 for orbital   4960a         

 DENSITY CONVERGED !


 ITERATION  ENERGY          1e-ENERGY        2e-ENERGY     RMS[dD(SAO)]   TOL
  15  -2415.2549256399    -20364.696375     9375.2582996    0.969D-07 0.526D-14
                            Exc = -344.615320020     Coul =  9719.87361960    
                              N = 408.00077645    
                            current damping = 0.300
 
          Norm of current diis error: 0.39383E-03
          max. resid. norm for Fia-block=  9.999D-06 for orbital    190a         
          max. resid. fock norm         =  1.567D-05 for orbital   5013a         
          mo-orthogonalization: Cholesky decomposition

 DENSITY CONVERGED !


 ITERATION  ENERGY          1e-ENERGY        2e-ENERGY     RMS[dD(SAO)]   TOL
  16  -2415.2549256419    -20364.695086     9375.2570108    0.499D-07 0.526D-14
                            Exc = -344.615243741     Coul =  9719.87225456    
                              N = 408.00077646    
                            current damping = 0.350
 
          Norm of current diis error: 0.26897E-03
          max. resid. norm for Fia-block=  4.553D-06 for orbital    190a         
          max. resid. fock norm         =  7.244D-06 for orbital   5013a         

 DENSITY CONVERGED !


 ITERATION  ENERGY          1e-ENERGY        2e-ENERGY     RMS[dD(SAO)]   TOL
  17  -2415.2549256434    -20364.695906     9375.2578311    0.221D-07 0.526D-14
                            Exc = -344.615271738     Coul =  9719.87310288    
                              N = 408.00077645    
                            current damping = 0.400
 
          Norm of current diis error: 0.91803E-04
          max. resid. norm for Fia-block=  1.213D-06 for orbital    198a         
          max. resid. fock norm         =  2.815D-06 for orbital   5122a         

 DENSITY CONVERGED !


 ITERATION  ENERGY          1e-ENERGY        2e-ENERGY     RMS[dD(SAO)]   TOL
  18  -2415.2549256435    -20364.695679     9375.2576039    0.770D-08 0.526D-14
                            Exc = -344.615275960     Coul =  9719.87287988    
                              N = 408.00077645    
                            current damping = 0.450
 
          Norm of current diis error: 0.39728E-04
          max. resid. norm for Fia-block=  5.179D-07 for orbital    200a         
          max. resid. fock norm         =  1.038D-06 for orbital   4950a         

 DENSITY CONVERGED !


 ITERATION  ENERGY          1e-ENERGY        2e-ENERGY     RMS[dD(SAO)]   TOL
  19  -2415.2549256434    -20364.695728     9375.2576534    0.346D-08 0.526D-14
                            Exc = -344.615273606     Coul =  9719.87292697    
                              N = 408.00077645    
                            current damping = 0.500
 
          Norm of current diis error: 0.13172E-04
          max. resid. norm for Fia-block=  1.682D-07 for orbital    193a         
          max. resid. fock norm         =  4.029D-07 for orbital   4960a         

 ENERGY & DENSITY CONVERGED !


 ITERATION  ENERGY          1e-ENERGY        2e-ENERGY     RMS[dD(SAO)]   TOL
  20  -2415.2548783453    -20364.695741     9375.2577130    0.121D-08 0.526D-14
                            Exc = -344.615227175     Coul =  9719.87294016    
                              N = 407.99985268    
                            current damping = 0.350
 
          Norm of current diis error: 0.48783E-05
          max. resid. norm for Fia-block=  5.512D-08 for orbital    203a         
          max. resid. fock norm         =  1.103D-07 for orbital   5079a         

 End of SCF iterations

   convergence criteria satisfied after   20 iterations


                  ------------------------------------------ 
                 |  total energy      =  -2415.25487834528  |
                  ------------------------------------------ 
                 :  kinetic energy    =   2403.73749243064  :
                 :  potential energy  =  -4818.99237077591  :
                 :  virial theorem    =      1.99523139938  :
                 :  wavefunction norm =      1.00000000000  :
                  .......................................... 


 <geterg> : there is no data group $energy 


 <skperg> : $end is missing 


 orbitals $scfmo  will be written to file mos

    irrep                200a        201a        202a        203a        204a   
 eigenvalues H         -0.19874    -0.19378    -0.19117    -0.18579    -0.17438
            eV          -5.4081     -5.2729     -5.2022     -5.0558     -4.7450
 occupation              2.0000      2.0000      2.0000      2.0000      2.0000 

    irrep                205a        206a        207a        208a        209a   
 eigenvalues H         -0.06785    -0.06399    -0.06066    -0.03270    -0.02206
            eV          -1.8462     -1.7412     -1.6507     -0.8898     -0.6002
 
 
 ! grave: sending quit signal to master process
 
 
 
 
 ==============================================================================
                           electrostatic moments
 ==============================================================================

 reference point for electrostatic moments:    0.00000   0.00000   0.00000

 
              nuc           elec       ->  total
 ------------------------------------------------------------------------------
                          charge      
 ------------------------------------------------------------------------------
         408.000000    -408.000000      -0.000000
 
 ------------------------------------------------------------------------------
                       dipole moment  
 ------------------------------------------------------------------------------
   x      -6.221825       6.373384       0.151559
   y       4.979313      -4.832345       0.146967
   z    -113.933533     112.887311      -1.046222
 
   | dipole moment | =     1.0673 a.u. =     2.7128 debye 
 
 ------------------------------------------------------------------------------
                     quadrupole moment
 ------------------------------------------------------------------------------
  xx   12909.953586  -13165.917431    -255.963845
  yy    9873.660809  -10106.969133    -233.308324
  zz    9725.798943   -9997.096257    -271.297314
  xy    1093.497559   -1099.004669      -5.507109
  xz     581.325477    -580.425278       0.900199
  yz    -198.349973     198.601562       0.251589
 
     1/3  trace=    -253.523161
     anisotropy=      34.487409
 
 ==============================================================================
 

    ridft profiling
  --------------------------------------------------------------------
             module   cpu total (s)       %  wall total (s)       %

               RIDFT          7502.6  100.00          7555.7  100.00
         Ridft_b_scf           298.5    3.98           298.6    3.95
        b_scf_prelim             0.0    0.00             0.0    0.00
        b_scf_molinp             0.0    0.00             0.0    0.00
         b_scf_init0             0.0    0.00             0.0    0.00
        b_scf_auxbas             0.0    0.00             0.0    0.00
      b_scf_symmetry             0.0    0.00             0.0    0.00
         b_scf_cosmo             0.0    0.00             0.0    0.00
        b_scf_params            27.6    0.37            27.6    0.37
          b_scf_ri-j           108.8    1.45           108.8    1.44
    b_scf_ri-j_auxpq           108.6    1.45           108.7    1.44
     ri-j_auxpq_chol             3.6    0.05             3.6    0.05
         b_scf_1elec            13.8    0.18            13.8    0.18
       b_scf_moinput           148.2    1.98           148.2    1.96
     moinput_orthmos           146.9    1.96           146.9    1.94
    b_scf_dft-dstmax             0.0    0.00             0.0    0.00
           Ridft_scf          7200.9   95.98          7253.8   96.00
          Scf_b_loop             0.0    0.00             0.0    0.00
                noga             0.0    0.00             0.0    0.00
            Scf_loop          7185.4   95.77          7235.9   95.77
     scf_loop_mkdmat            48.4    0.65            48.4    0.64
       scf_loop_ri-j          1970.8   26.27          1970.5   26.08
      parlp1.bc.dens             2.4    0.03             2.4    0.03
        parlp1.gs.gp           121.8    1.62           121.8    1.61
        parlp2.bc.gq             0.0    0.00             0.0    0.00
        scf_loop_dft          3377.4   45.02          3377.2   44.70
      pardft.bc.dens             0.0    0.00             0.0    0.00
        dft_grid_con            18.7    0.25            18.7    0.25
           dft_xcrhf          3043.4   40.56          3043.3   40.28
          dft_getval            96.3    1.28            96.3    1.27
          funct2 dst             1.4    0.02             1.3    0.02
      funct2 f2loop1            16.6    0.22            16.7    0.22
      funct2 f2loop2            49.1    0.65            49.1    0.65
          funct2 s+c            28.1    0.38            28.2    0.37
        funct2 cmf_2            25.4    0.34            25.4    0.34
          dft_mkdens          1320.9   17.61          1320.8   17.48
         dft_gga-fun             0.7    0.01             0.7    0.01
          dft_mkfock          1624.6   21.65          1624.7   21.50
     pardft.red.fock           548.7    7.31           548.6    7.26
     scf_loop_energy             0.3    0.00             0.3    0.00
     scf_loop_mkfock             0.5    0.01             0.5    0.01
       scf_loop_diis           826.6   11.02           826.5   10.94
       scf_loop_diag           523.2    6.97           523.4    6.93
         diag_tritrn           168.3    2.24           168.3    2.23
          diag_rdiag           353.7    4.72           353.8    4.68
     scf_loop_modump           281.7    3.76           332.8    4.40
      scf_loop_ortho           145.9    1.94           145.9    1.93
          Scf_a_loop            15.5    0.21            17.9    0.24
         Ridft_a_scf             3.2    0.04             3.3    0.04
         a_scf_fanal             3.2    0.04             3.2    0.04
 


    ------------------------------------------------------------------------
         total  cpu-time :  2 hours  5 minutes and 24 seconds
         total wall-time :  2 hours  6 minutes and 17 seconds
    ------------------------------------------------------------------------


   ****  ridft : all done  ****


    2017-12-19 22:10:46.563 

