
   OpenMP run-time library returned nthreads = 32
 operating system is UNIX !

 dscf (c-15-38) : TURBOMOLE V7.3 ( 22142 ) 4 Jul 2018 at 18:12:42
 Copyright (C) 2018 TURBOMOLE GmbH, Karlsruhe


    2019-03-11 15:10:15.922 



                             d s c f - program

                   idea & directorship : reinhart ahlrichs
                   program development : marco haeser
                                         michael baer
                           dft version : oliver treutler


                          quantum chemistry group
                          universitaet  karlsruhe
                                  germany




                          References             
                                                 
          TURBOMOLE:                             
              R. Ahlrichs, M. Baer, M. Haeser, H. Horn, and
              C. Koelmel
              Electronic structure calculations on workstation
              computers: the program system TURBOMOLE
              Chem. Phys. Lett. 162: 165 (1989)
          Density Functional:                              
              O. Treutler and R. Ahlrichs                      
              Efficient Molecular Numerical Integration Schemes
              J. Chem. Phys. 102: 346 (1995)                   
          Parallel Version:                                
              Performance of parallel TURBOMOLE for Density    
              Functional Calculations                          
              M. v. Arnim and R. Ahlrichs                      
              J. Comp. Chem. 19: 1746 (1998)                   
                                         



 UHF mode switched on !


              +--------------------------------------------------+
              | Atomic coordinate, charge and isotop information |
              +--------------------------------------------------+

                    atomic coordinates            atom    charge  isotop
          1.71035248   -0.09469273    0.00000000    c      6.000     0
          2.66705263   -2.27810921    0.00000000    o      8.000     0
         -1.25432395    0.03299317    0.00000000    c      6.000     0
          2.79757682    2.02816025    0.00000000    o      8.000     0
         -1.90628923    1.08352506   -1.66814008    h      1.000     0
         -1.90628923    1.08352506    1.66814008    h      1.000     0
         -2.10807952   -1.85540160    0.00000000    h      1.000     0
 
       center of nuclear mass  :    1.47244236   -0.07495948    0.00000000
       center of nuclear charge:    1.30750157   -0.06639163    0.00000000

              +--------------------------------------------------+
              |               basis set information              |
              +--------------------------------------------------+

              we will work with the 1s 3p 5d 7f 9g ... basis set
              ...i.e. with spherical basis functions...

   type   atoms  prim   cont   basis
   ---------------------------------------------------------------------------
    c        2     50     30   cc-pVTZ   [4s3p2d1f|18s5p2d1f]
    o        2     50     30   cc-pVTZ   [4s3p2d1f|18s5p2d1f]
    h        3     16     14   cc-pVTZ   [3s2p1d|5s2p1d]
   ---------------------------------------------------------------------------
   total:    7    248    162
   ---------------------------------------------------------------------------

   total number of primitive shells          :   60
   total number of contracted shells         :   58
   total number of cartesian basis functions :  185
   total number of SCF-basis functions       :  162


 integral neglect threshold       :  0.18E-12
 integral storage threshold THIZE :  0.10E-04
 integral storage threshold THIME :         5


 DENSITY CONVERGENCE CHECK SWITCHED ON !
 SCF CONVERGENCE IF RMS(delta[D]) <     0.1000000000E-06


 symmetry group of the molecule :   c1 

 the group has the following generators :
   c1(z)

    1 symmetry operations found

 there are 1 real representations :   a   

 maximum number of shells which are related by symmetry :  1


    mo occupation :
   irrep   mo's   occupied
    a      162       16
 
 number of basis functions   :                    162
 number of occupied orbitals :                     16
 

 automatic virtual orbital shift switched on 
      shift if e(lumo)-e(homo) < 0.10000000    


          ------------------------
          nuclear repulsion energy  :   111.104029603    
          ------------------------


         -----------------
         -S,T+V- integrals
         -----------------

 1e-integrals will be neglected if expon. factor < 0.180647E-13
 
   Difference densities algorithm switched on.
   The maximal number of linear combinations of
   difference densities is                    20 .

 DIIS switched on: error vector is FDS-SDF
 Max. Iterations for DIIS is     :   5
 DIIS matrix (see manual) 
    Scaling factor of diagonals  :  1.200
    threshold for scaling factor :  0.000

 scf convergence criterion : increment of total energy < .1000000D-08
                  and increment of one-electron energy < .1000000D-05

  MOs are in ASCII format !


 reading orbital data $uhfmo_alpha  from file alpha
 orbital characterization : scfconv=9

 reading orbital data $uhfmo_beta  from file beta
 orbital characterization : scfconv=9

 DSCF restart information will be dumped onto file alpha

 
                                              current damping :  0.300
 ITERATION  ENERGY          1e-ENERGY        2e-ENERGY     RMS[dD(SAO)]   TOL
   1  -227.26197534315    -538.93926382     200.57325887    0.000D+00 0.180D-12
          max. resid. norm for Fia-block=  8.658D-02 for orbital     16a    beta 
          max. resid. fock norm         =  9.189D-02 for orbital     16a    beta 
          Delta Eig. =     7.0296958662 eV 
 
                                              current damping :  0.250
 ITERATION  ENERGY          1e-ENERGY        2e-ENERGY     RMS[dD(SAO)]   TOL
   2  -227.30090563335    -539.64293100     201.23799576    0.129D-01 0.145D-12
          Norm of current diis error: 0.21851    
          max. resid. norm for Fia-block=  4.534D-02 for orbital     15a    beta 
          max. resid. fock norm         =  6.297D-02 for orbital     17a    alpha
          Delta Eig. =     2.0110963662 eV 
 
                                              current damping :  0.200
 ITERATION  ENERGY          1e-ENERGY        2e-ENERGY     RMS[dD(SAO)]   TOL
   3  -227.31074225824    -539.64666517     201.23189331    0.315D-02 0.976D-13
          Norm of current diis error: 0.12138    
          max. resid. norm for Fia-block=  3.943D-02 for orbital     16a    beta 
          max. resid. fock norm         =  3.964D-02 for orbital     16a    beta 
          Delta Eig. =     0.9791235390 eV 
 
                                              current damping :  0.250
 ITERATION  ENERGY          1e-ENERGY        2e-ENERGY     RMS[dD(SAO)]   TOL
   4  -227.31554419857    -539.62365983     201.20408603    0.198D-02 0.724D-13
          Norm of current diis error: 0.53296E-01
          max. resid. norm for Fia-block=  2.208D-02 for orbital     16a    beta 
          max. resid. fock norm         =  2.268D-02 for orbital     16a    beta 
          Delta Eig. =     0.3919301354 eV 
 
                                              current damping :  0.300
 ITERATION  ENERGY          1e-ENERGY        2e-ENERGY     RMS[dD(SAO)]   TOL
   5  -227.31652973055    -539.67417959     201.25362026    0.542D-03 0.647D-13
          Norm of current diis error: 0.24058E-01
          max. resid. norm for Fia-block=  9.078D-03 for orbital     16a    beta 
          max. resid. fock norm         =  9.190D-03 for orbital     14a    beta 
 mo-orthogonalization: Cholesky decomposition
          Delta Eig. =     0.1358905855 eV 
 
                                              current damping :  0.350
 ITERATION  ENERGY          1e-ENERGY        2e-ENERGY     RMS[dD(SAO)]   TOL
   6  -227.31674091456    -539.66283401     201.24206349    0.106D-03 0.611D-13
          Norm of current diis error: 0.11796E-01
          max. resid. norm for Fia-block=  5.179D-03 for orbital     15a    beta 
          max. resid. fock norm         =  5.333D-03 for orbital     15a    beta 
          Delta Eig. =     0.0520825472 eV 
 
                                              current damping :  0.400
 ITERATION  ENERGY          1e-ENERGY        2e-ENERGY     RMS[dD(SAO)]   TOL
   7  -227.31679356073    -539.66724383     201.24642066    0.192D-04 0.585D-13
          Norm of current diis error: 0.57681E-02
          max. resid. norm for Fia-block=  2.373D-03 for orbital     15a    beta 
          max. resid. fock norm         =  2.423D-03 for orbital     15a    beta 
          Delta Eig. =     0.0207376387 eV 
 
                                              current damping :  0.450
 ITERATION  ENERGY          1e-ENERGY        2e-ENERGY     RMS[dD(SAO)]   TOL
   8  -227.31680658390    -539.66697200     201.24613581    0.113D-04 0.562D-13
          Norm of current diis error: 0.28965E-02
          max. resid. norm for Fia-block=  1.214D-03 for orbital     15a    alpha
          max. resid. fock norm         =  1.236D-03 for orbital     15a    alpha
          Delta Eig. =     0.0099099481 eV 
 
                                              current damping :  0.500
 ITERATION  ENERGY          1e-ENERGY        2e-ENERGY     RMS[dD(SAO)]   TOL
   9  -227.31680981617    -539.66706284     201.24622342    0.842D-05 0.540D-13
          Norm of current diis error: 0.15545E-02
          max. resid. norm for Fia-block=  6.569D-04 for orbital     15a    alpha
          max. resid. fock norm         =  6.735D-04 for orbital     15a    alpha
          Delta Eig. =     0.0049563151 eV 
 
                                              current damping :  0.550
 ITERATION  ENERGY          1e-ENERGY        2e-ENERGY     RMS[dD(SAO)]   TOL
  10  -227.31681071095    -539.66687236     201.24603205    0.500D-05 0.518D-13
          Norm of current diis error: 0.92750E-03
          max. resid. norm for Fia-block=  3.415D-04 for orbital     15a    alpha
          max. resid. fock norm         =  3.464D-04 for orbital     15a    alpha
 mo-orthogonalization: Cholesky decomposition
          Delta Eig. =     0.0019869682 eV 
 
                                              current damping :  0.600
 ITERATION  ENERGY          1e-ENERGY        2e-ENERGY     RMS[dD(SAO)]   TOL
  11  -227.31681103048    -539.66693776     201.24609712    0.260D-05 0.496D-13
          Norm of current diis error: 0.60264E-03
          max. resid. norm for Fia-block=  2.058D-04 for orbital     16a    beta 
          max. resid. fock norm         =  2.209D-04 for orbital     16a    beta 
          Delta Eig. =     0.0011575870 eV 
 
                                              current damping :  0.650
 ITERATION  ENERGY          1e-ENERGY        2e-ENERGY     RMS[dD(SAO)]   TOL
  12  -227.31681117530    -539.66686726     201.24602648    0.137D-05 0.471D-13
          Norm of current diis error: 0.41771E-03
          max. resid. norm for Fia-block=  1.797D-04 for orbital     16a    beta 
          max. resid. fock norm         =  1.919D-04 for orbital     16a    alpha
          Delta Eig. =     0.0008735301 eV 
 
                                              current damping :  0.700
 ITERATION  ENERGY          1e-ENERGY        2e-ENERGY     RMS[dD(SAO)]   TOL
  13  -227.31681125411    -539.66687959     201.24603874    0.627D-06 0.444D-13
          Norm of current diis error: 0.30612E-03
          max. resid. norm for Fia-block=  1.609D-04 for orbital     16a    beta 
          max. resid. fock norm         =  1.730D-04 for orbital     16a    beta 
          Delta Eig. =     0.0005780555 eV 
 
                                              current damping :  0.750
 ITERATION  ENERGY          1e-ENERGY        2e-ENERGY     RMS[dD(SAO)]   TOL
  14  -227.31681130206    -539.66686747     201.24602657    0.282D-06 0.416D-13
          Norm of current diis error: 0.23414E-03
          max. resid. norm for Fia-block=  1.430D-04 for orbital     16a    beta 
          max. resid. fock norm         =  1.538D-04 for orbital     16a    alpha
          Delta Eig. =     0.0004466686 eV 
 
                                              current damping :  0.800
 ITERATION  ENERGY          1e-ENERGY        2e-ENERGY     RMS[dD(SAO)]   TOL
  15  -227.31681133340    -539.66687259     201.24603166    0.102D-06 0.387D-13
          Norm of current diis error: 0.18380E-03
          max. resid. norm for Fia-block=  1.317D-04 for orbital     16a    beta 
          max. resid. fock norm         =  1.416D-04 for orbital     16a    beta 
 mo-orthogonalization: Cholesky decomposition
          Delta Eig. =     0.0003098619 eV 

 DENSITY CONVERGED !

 
                                              current damping :  0.850
 ITERATION  ENERGY          1e-ENERGY        2e-ENERGY     RMS[dD(SAO)]   TOL
  16  -227.31681135483    -539.66686984     201.24602888    0.359D-07 0.358D-13
          Norm of current diis error: 0.14481E-03
          max. resid. norm for Fia-block=  1.210D-04 for orbital     16a    beta 
          max. resid. fock norm         =  1.302D-04 for orbital     16a    alpha
          Delta Eig. =     0.0002360750 eV 

 DENSITY CONVERGED !

 
                                              current damping :  0.900
 ITERATION  ENERGY          1e-ENERGY        2e-ENERGY     RMS[dD(SAO)]   TOL
  17  -227.31681136953    -539.66687224     201.24603126    0.268D-07 0.514D-13
          Norm of current diis error: 0.11243E-03
          max. resid. norm for Fia-block=  1.099D-04 for orbital     16a    beta 
          max. resid. fock norm         =  1.182D-04 for orbital     16a    beta 
          Delta Eig. =     0.0001698896 eV 

 DENSITY CONVERGED !

 
                                              current damping :  0.950
 ITERATION  ENERGY          1e-ENERGY        2e-ENERGY     RMS[dD(SAO)]   TOL
  18  -227.31681137916    -539.66687219     201.24603120    0.296D-07 0.514D-13
          Norm of current diis error: 0.84991E-04
          max. resid. norm for Fia-block=  9.371D-05 for orbital     16a    beta 
          max. resid. fock norm         =  1.008D-04 for orbital     16a    beta 
          Delta Eig. =     0.0001127615 eV 

 DENSITY CONVERGED !

 
                                              current damping :  1.000
 ITERATION  ENERGY          1e-ENERGY        2e-ENERGY     RMS[dD(SAO)]   TOL
  19  -227.31681138490    -539.66687299     201.24603200    0.286D-07 0.513D-13
          Norm of current diis error: 0.62443E-04
          max. resid. norm for Fia-block=  7.418D-05 for orbital     16a    beta 
          max. resid. fock norm         =  7.981D-05 for orbital     16a    beta 
          Delta Eig. =     0.0000737394 eV 

 DENSITY CONVERGED !

 
                                              current damping :  0.850
 ITERATION  ENERGY          1e-ENERGY        2e-ENERGY     RMS[dD(SAO)]   TOL
  20  -227.31681138794    -539.66687319     201.24603220    0.227D-07 0.514D-13
          Norm of current diis error: 0.44947E-04
          max. resid. norm for Fia-block=  5.448D-05 for orbital     16a    beta 
          max. resid. fock norm         =  5.860D-05 for orbital     16a    beta 
 mo-orthogonalization: Cholesky decomposition
          Delta Eig. =     0.0000603183 eV 
 density matrices became linear dependent...
 subr. ddmat can not establish optimal linear combination of delta densities !
 next fock matrix will be calculated from scratch !

 ENERGY & DENSITY CONVERGED !

 
                                              current damping :  0.700
 ITERATION  ENERGY          1e-ENERGY        2e-ENERGY     RMS[dD(SAO)]   TOL
  21  -227.31681138950    -539.66687340     201.24603241    0.178D-07 0.180D-12
          max. resid. norm for Fia-block=  6.046D-06 for orbital     16a    beta 
          max. resid. fock norm         =  6.463D-06 for orbital     16a    beta 

 convergence criteria satisfied after    21 iterations


                  ------------------------------------------ 
                 |  total energy      =   -227.31681138950  |
                  ------------------------------------------ 
                 :  kinetic energy    =    226.98067209572  :
                 :  potential energy  =   -454.29748348522  :
                 :  virial theorem    =      1.99852127394  :
                 :  wavefunction norm =      1.00000000000  :
                  .......................................... 


 orbitals $uhfmo_beta  will be written to file beta

 orbitals $uhfmo_alpha  will be written to file alpha
 
 alpha: 

    irrep                 12a         13a         14a         15a         16a   
 eigenvalues H         -0.35032    -0.30700    -0.19165    -0.18078    -0.17664
            eV          -9.5329     -8.3540     -5.2152     -4.9194     -4.8066
 occupation              1.0000      1.0000      1.0000      1.0000      1.0000 

    irrep                 17a         18a         19a         20a         21a   
 eigenvalues H          0.30365     0.36140     0.36970     0.45224     0.47070
            eV           8.2627      9.8344     10.0600     12.3063     12.8084
 
 beta:  

    irrep                 12a         13a         14a         15a         16a   
 eigenvalues H         -0.35033    -0.30700    -0.19166    -0.18078    -0.17665
            eV          -9.5329     -8.3540     -5.2153     -4.9194     -4.8068
 occupation              1.0000      1.0000      1.0000      1.0000      1.0000 

    irrep                 17a         18a         19a         20a         21a   
 eigenvalues H          0.30365     0.36141     0.36970     0.45224     0.47070
            eV           8.2627      9.8344     10.0600     12.3062     12.8084
 

                                             _ _ _ 
  IRREP     alpha occ.     beta occ.      tr(D*D-D)


 a         16.00000000    16.00000000    -0.00000001

   -------------------------------------------------

   sum     16.00000000    16.00000000    -0.00000001

 <S*S>     0.00000002

 
 
 
 ==============================================================================
                           electrostatic moments
 ==============================================================================

 reference point for electrostatic moments:    0.00000   0.00000   0.00000

 
              nuc           elec       ->  total
 ------------------------------------------------------------------------------
                          charge      
 ------------------------------------------------------------------------------
          31.000000     -32.000000      -1.000000
 a-b                                    -0.000000
 
 ------------------------------------------------------------------------------
                       dipole moment  
 ------------------------------------------------------------------------------
   x      40.532549     -43.390106      -2.857557
   y      -2.058140       2.182862       0.124722
   z       0.000000       0.000000       0.000000
 
   | dipole moment | =     2.8603 a.u. =     7.2701 debye 
 
 ------------------------------------------------------------------------------
                     quadrupole moment
 ------------------------------------------------------------------------------
  xx     158.220528    -187.448819     -29.228291
  yy      80.276624    -106.529109     -26.252485
  zz       5.565383     -24.099387     -18.534005
  xy      -4.654967       4.800501       0.145534
  xz       0.000000       0.000000       0.000000
  yz       0.000000       0.000000       0.000000
 
     1/3  trace=     -24.671594
     anisotropy=       9.563608



 ==============================================================================
                  MULLIKEN POPULATION ANALYSIS (CAO-BASIS)
 ==============================================================================

         BRUTTO POPULATIONS  
 
       values displayed are larger than   0.010000
 
 
 atomic populations from total density:
 
 atom      charge    n(s)      n(p)      n(d)      n(f)      n(g)
     1c      0.39258   3.06908   2.26346   0.24908   0.02581
     2o     -0.61674   3.72144   4.86336   0.02975   0.00219
     3c     -0.30542   3.22923   3.01570   0.05617   0.00433
     4o     -0.62972   3.72320   4.87442   0.02990   0.00219
     5h      0.05055   0.91804   0.02916   0.00226
     6h      0.05055   0.91804   0.02916   0.00226
     7h      0.05821   0.91381   0.02573   0.00225
 
 moments (from total density versus population analysis)
 <charge> =            -1.000000           -1.000000
 <x   >   =            -2.857557           -2.667481
 <y   >   =             0.124722            0.082120
 <z   >   =             0.000000           -0.000000
 
 Unpaired electrons from D(alpha)-D(beta)
 
 atom      total     n(s)      n(p)      n(d)      n(f)      n(g)
 
 
 ==============================================================================
 


    ------------------------------------------------------------------------
         total  cpu-time :  7 minutes and  1 seconds
         total wall-time :  26.62 seconds
    ------------------------------------------------------------------------

   ****  dscf : all done  ****


    2019-03-11 15:10:42.441 

