           Doing BLAS/Lapack in the master proc. with  8 CPUs.
           SMPCPUS    set: Shared-memory Parallelization with   8 CPUs.

           SMP Parallelization Reference:
           C. van Wullen, J. Comput. Chem. 32 (2011) 1195--1201
 operating system is UNIX !

 ridft (c-18-171.gp.local) : TURBOMOLE V7.2 ( 21454 ) 4 Oct 2017 at 12:48:15
 Copyright (C) 2017 TURBOMOLE GmbH, Karlsruhe


    2018-04-24 21:11:22.168 



                                  r i d f t

                        DFT program with RI approximation 
                                for coulomb part 




                                                 
                                 References:     
                                                 
          TURBOMOLE:                             
              R. Ahlrichs, M. Baer, M. Haeser, H. Horn, and
              C. Koelmel
              Electronic structure calculations on workstation
              computers: the program system TURBOMOLE
              Chem. Phys. Lett. 162: 165 (1989)
          Density Functional:                              
              O. Treutler and R. Ahlrichs                      
              Efficient Molecular Numerical Integration Schemes
              J. Chem. Phys. 102: 346 (1995)                   
          Parallel Version:                                
              Performance of parallel TURBOMOLE for Density    
              Functional Calculations                          
              M. v. Arnim and R. Ahlrichs                      
              J. Comp. Chem. 19: 1746 (1998)                   
          RI-J Method:                                     
              Auxiliary Basis Sets to approximate Coulomb      
              Potentials                                       
              Chem. Phys. Lett. 240: 283 (1995)                
              K. Eichkorn, O. Treutler, H. Oehm, M. Haeser     
              and R. Ahlrichs                                  
              Chem. Phys. Lett. 242: 652 (1995)                
                                                           
              Auxiliary Basis Sets for Main Row Atoms and their
              Use to approximate Coulomb Potentials            
              K. Eichkorn, F. Weigend, O. Treutler and         
              R. Ahlrichs                                      
              Theo. Chem. Acc. 97: 119 (1997)                   
                                                           
              Accurate Coulomb-fitting basis sets for H to Rn 
              F. Weigend                                        
              Phys. Chem. Chem. Phys. 8: 1057 (2006)            
                                                           
          Multipole accelerated RI-J (MARI-J):             
              Fast evaluation of the Coulomb potential for     
              electron densities using multipole accelerated   
              resolution of identity approximation             
              M. Sierka, A. Hogekamp and R. Ahlrichs           
              J. Chem. Phys. 118: 9136 (2003)                  
          RI-JK Method:                                     
              A fully direct RI-HF algorithm: Implementation,
              optimised auxiliary basis sets, demonstration of
              accuracy and efficiency                         
              F. Weigend                                      
              Phys. Chem. Chem. Phys. 4: 4285 (2002)           
          Two-component HF and DFT with spin-orbit coupling:  
              Self-consistent treatment of spin-orbit         
              interactions with efficient Hartree-Fock and    
              density functional methods                      
              M. K. Armbruster, F. Weigend, C. van Wüllen and 
              W. Klopper                                      
              Phys. Chem. Chem. Phys. 10: 1748 (2008)         
          Relativistic all-electron 2c calculations           
              An efficient implementation of two-component    
              relativistic exact-decoupling methods for large 
              molecules                                       
              D. Peng, N. Middendorf, F. Weigend, M. Reiher   
              J. Chem. Phys. 138, 184105 (2013)               
                                         




              +--------------------------------------------------+
              |      general information about current run       |
              +--------------------------------------------------+

 

 DENSITY CONVERGENCE CHECK SWITCHED ON !
 SCF CONVERGENCE IF RMS(delta[D]) <     0.1000000000E-06

 PBE functional
 exchange:    LDA + PBE
 correlation: LDA (PW) + PBE
 A DFT calculation using the RI-J approximation will be carried out.
 Allocatable memory for RI due to $ricore (MB):                   500


              +--------------------------------------------------+
              | Atomic coordinate, charge and isotop information |
              +--------------------------------------------------+

                    atomic coordinates            atom    charge  isotop
         -2.32951643    2.28966581   -0.26763069    c      6.000     0
         -1.07955646    4.23679572    0.04840871    o      8.000     0
         -1.26721351    0.00734873   -0.59390591    n      7.000     0
          0.64977656   -0.17113380   -0.58265296    h      1.000     0
         -2.35122321   -1.52373097   -0.84410799    h      1.000     0
         -5.17453305    2.39382506   -0.29458293    c      6.000     0
         -5.81653043    3.11163270    1.52028768    h      1.000     0
         -6.05112046    0.57233283   -0.65424419    h      1.000     0
         -5.76364103    3.73313601   -1.73589745    h      1.000     0
          7.92780344    2.11163411   -0.22590150    n      7.000     0
          8.85382489    0.45631493   -0.44877291    h      1.000     0
          9.44643651    4.27129806    0.05846769    c      6.000     0
         11.74351584    4.09059805    0.02977262    o      8.000     0
          7.98644889    6.56791337    0.36676505    c      6.000     0
          8.97243805    8.33139231    0.59926774    h      1.000     0
          5.43690463    6.45136351    0.35603754    c      6.000     0
          4.26451088    8.10744464    0.57841465    h      1.000     0
          4.14228707    4.23607251    0.06395057    n      7.000     0
          2.19059592    4.21894958    0.06236827    h      1.000     0
          5.33449633    1.95995503   -0.24267646    c      6.000     0
          4.20597318   -0.05055477   -0.51065378    o      8.000     0
 
       center of nuclear mass  :    3.75587701    3.13141367   -0.11280522
       center of nuclear charge:    3.59699613    3.12378403   -0.11553148

              +--------------------------------------------------+
              |               basis set information              |
              +--------------------------------------------------+

              we will work with the 1s 3p 5d 7f 9g ... basis set
              ...i.e. with spherical basis functions...

   type   atoms  prim   cont   basis
   ---------------------------------------------------------------------------
    c        6     77     55   cc-pVQZ   [5s4p3d2f1g|21s6p3d2f1g]
    o        3     77     55   cc-pVQZ   [5s4p3d2f1g|21s6p3d2f1g]
    n        3     77     55   cc-pVQZ   [5s4p3d2f1g|21s6p3d2f1g]
    h        9     32     30   cc-pVQZ   [4s3p2d1f|6s3p2d1f]
   ---------------------------------------------------------------------------
   total:   21   1212    930
   ---------------------------------------------------------------------------

   total number of primitive shells          :  111
   total number of contracted shells         :  270
   total number of cartesian basis functions : 1155
   total number of SCF-basis functions       :  930


 integral neglect threshold       :  0.29E-13
 integral storage threshold THIZE :  0.10E-04
 integral storage threshold THIME :         5

 RI-J AUXILIARY BASIS SET information:

              we will work with the 1s 3p 5d 7f 9g ... basis set
              ...i.e. with spherical basis functions...

   type   atoms  prim   cont   basis
   ---------------------------------------------------------------------------
    c        6     70     49   cc-pVQZ   [6s4p3d1f1g|12s5p4d2f1g]
    o        3     70     49   cc-pVQZ   [6s4p3d1f1g|12s5p4d2f1g]
    n        3     70     49   cc-pVQZ   [6s4p3d1f1g|12s5p4d2f1g]
    h        9     16     11   cc-pVQZ   [3s1p1d|5s2p1d]
   ---------------------------------------------------------------------------
   total:   21    984    687
   ---------------------------------------------------------------------------

   total number of primitive shells          :   80
   total number of contracted shells         :  225
   total number of cartesian basis functions :  840
   total number of SCF-basis functions       :  687


 symmetry group of the molecule :   c1 

 the group has the following generators :
   c1(z)

    1 symmetry operations found

 there are 1 real representations :   a   

 maximum number of shells which are related by symmetry :  1


    mo occupation :
   irrep   mo's   occupied
    a      930       45
 
 number of basis functions   :                    930
 number of occupied orbitals :                     45
 
  
           ------------------
           density functional
           ------------------
 PBE functional
 exchange:    LDA + PBE
 correlation: LDA (PW) + PBE

 iterations will be done with small grid
  
 spherical integration : Lebedev's spherical grid
 spherical gridsize    :                     5
    i.e. gridpoints    :                   590
 value for diffuse not defined
 radial integration    : Chebyshev 2nd kind (scaling 3)
 radial gridsize       :                     8
 integration cells     :                    21
 partition function    : becke
 partition sharpness   :                     3
  

 biggest AO integral is expected to be     4.785886462
  
           ------------------------
               RI-J - INFORMATION
           ------------------------
 Contributions to RI integral batches: 
  neglected integral batches:                 12550
  direct contribution:                        17426
  memory contribution:                  6609
 Memory core needed for (P|Q) and Cholesky      4 MByte
 Memory core minimum needed except of (P|Q)     1 MByte
 Total minimum memory core needed (sum)         5 MByte
  
 ****************************************
 Memory allocated for RI-J   181 MByte
 ****************************************
                                            

          ------------------------
          nuclear repulsion energy  :   682.464506840    
          ------------------------


         -----------------
         -S,T+V- integrals
         -----------------

 1e-integrals will be neglected if expon. factor < 0.289347E-14
 Difference densities >>NOT<< switched on in parallel ridft!

 DIIS switched on: error vector is FDS-SDF
 Max. Iterations for DIIS is     :   4
 DIIS matrix (see manual) 
    Scaling factor of diagonals  :  1.200
    threshold for scaling factor :  0.000

 scf convergence criterion : increment of total energy < .1000000D-08
                  and increment of one-electron energy < .1000000D-05

  MOs are in ASCII format !


 automatic virtual orbital shift switched on 
      shift if e(lumo)-e(homo) < 0.10000000    


 reading orbital data $scfmo  from file mos
 orbital characterization : expanded
 mo provided and orthogonalized by Cholesky decomposition

 DSCF restart information will be dumped onto file mos


 Starting SCF iterations

          Overall gridpoints after grid construction =        105386

 ITERATION  ENERGY          1e-ENERGY        2e-ENERGY     RMS[dD(SAO)]   TOL
   1  -620.83520297762    -2190.7884185     887.48870870    0.000D+00 0.289D-13
                            Exc = -81.3884259701     Coul =  968.877134669    
                              N = 90.000052112    
                            current damping = 0.700
 
          max. resid. norm for Fia-block=  4.364D-01 for orbital     31a         
          max. resid. fock norm         =  1.114D+01 for orbital    884a         

 ITERATION  ENERGY          1e-ENERGY        2e-ENERGY     RMS[dD(SAO)]   TOL
   2  -623.22712202077    -2199.4841376     893.79250872    0.328D-02 0.289D-13
                            Exc = -81.4231013826     Coul =  975.215610099    
                              N = 90.000044719    
                            current damping = 0.650
 
          Norm of current diis error:  3.8552    
          max. resid. norm for Fia-block=  1.640D-01 for orbital      3a         
          max. resid. fock norm         =  3.640D-01 for orbital    846a         

 ITERATION  ENERGY          1e-ENERGY        2e-ENERGY     RMS[dD(SAO)]   TOL
   3  -623.53394853447    -2203.2588571     897.26040177    0.193D-02 0.289D-13
                            Exc = -81.8420945220     Coul =  979.102496293    
                              N = 90.000040430    
                            current damping = 0.550
 
          Norm of current diis error:  1.8412    
          max. resid. norm for Fia-block=  6.573D-02 for orbital      3a         
          max. resid. fock norm         =  7.344D-02 for orbital    462a         

 ITERATION  ENERGY          1e-ENERGY        2e-ENERGY     RMS[dD(SAO)]   TOL
   4  -623.62386053234    -2203.2468458     897.15847844    0.155D-02 0.289D-13
                            Exc = -81.7230600060     Coul =  978.881538442    
                              N = 90.000039812    
                            current damping = 0.600
 
          Norm of current diis error: 0.84218    
          max. resid. norm for Fia-block=  3.257D-02 for orbital     15a         
          max. resid. fock norm         =  7.162D-02 for orbital    822a         

 ITERATION  ENERGY          1e-ENERGY        2e-ENERGY     RMS[dD(SAO)]   TOL
   5  -623.64003750831    -2203.9394871     897.83494275    0.494D-03 0.289D-13
                            Exc = -81.8568433268     Coul =  979.691786080    
                              N = 90.000038773    
                            current damping = 0.650
 
          Norm of current diis error: 0.44154    
          max. resid. norm for Fia-block=  9.361D-03 for orbital     40a         
          max. resid. fock norm         =  1.282D-02 for orbital    863a         
          mo-orthogonalization: Cholesky decomposition

 ITERATION  ENERGY          1e-ENERGY        2e-ENERGY     RMS[dD(SAO)]   TOL
   6  -623.64552890889    -2204.2824866     898.17245087    0.405D-03 0.289D-13
                            Exc = -81.8667767457     Coul =  980.039227618    
                              N = 90.000038620    
                            current damping = 0.500
 
          Norm of current diis error: 0.13063    
          max. resid. norm for Fia-block=  4.893D-03 for orbital     43a         
          max. resid. fock norm         =  1.038D-02 for orbital    929a         

 ITERATION  ENERGY          1e-ENERGY        2e-ENERGY     RMS[dD(SAO)]   TOL
   7  -623.64592559892    -2204.0498016     897.93936913    0.182D-03 0.289D-13
                            Exc = -81.8458464178     Coul =  979.785215546    
                              N = 90.000038980    
                            current damping = 0.550
 
          Norm of current diis error: 0.88442E-01
          max. resid. norm for Fia-block=  2.635D-03 for orbital     14a         
          max. resid. fock norm         =  5.629D-03 for orbital    929a         

 ITERATION  ENERGY          1e-ENERGY        2e-ENERGY     RMS[dD(SAO)]   TOL
   8  -623.64609883346    -2204.1316542     898.02104855    0.889D-04 0.289D-13
                            Exc = -81.8484927778     Coul =  979.869541325    
                              N = 90.000038946    
                            current damping = 0.600
 
          Norm of current diis error: 0.43217E-01
          max. resid. norm for Fia-block=  1.753D-03 for orbital     45a         
          max. resid. fock norm         =  3.325D-03 for orbital    893a         

 ITERATION  ENERGY          1e-ENERGY        2e-ENERGY     RMS[dD(SAO)]   TOL
   9  -623.64613403230    -2204.1821404     898.07149948    0.258D-04 0.289D-13
                            Exc = -81.8595244255     Coul =  979.931023909    
                              N = 90.000038808    
                            current damping = 0.450
 
          Norm of current diis error: 0.23939E-01
          max. resid. norm for Fia-block=  6.837D-04 for orbital     45a         
          max. resid. fock norm         =  8.140D-04 for orbital    840a         

 ITERATION  ENERGY          1e-ENERGY        2e-ENERGY     RMS[dD(SAO)]   TOL
  10  -623.64614505679    -2204.1842139     898.07356198    0.208D-04 0.289D-13
                            Exc = -81.8566928001     Coul =  979.930254783    
                              N = 90.000038846    
                            current damping = 0.300
 
          Norm of current diis error: 0.14728E-01
          max. resid. norm for Fia-block=  3.374D-04 for orbital     42a         
          max. resid. fock norm         =  4.825D-04 for orbital    854a         
          mo-orthogonalization: Cholesky decomposition

 ITERATION  ENERGY          1e-ENERGY        2e-ENERGY     RMS[dD(SAO)]   TOL
  11  -623.64614984978    -2204.1674641     898.05680742    0.408D-05 0.289D-13
                            Exc = -81.8557216876     Coul =  979.912529103    
                              N = 90.000038872    
                            current damping = 0.350
 
          Norm of current diis error: 0.40159E-02
          max. resid. norm for Fia-block=  1.135D-04 for orbital     23a         
          max. resid. fock norm         =  1.844D-04 for orbital    929a         

 ITERATION  ENERGY          1e-ENERGY        2e-ENERGY     RMS[dD(SAO)]   TOL
  12  -623.64615005502    -2204.1691093     898.05845243    0.216D-05 0.289D-13
                            Exc = -81.8558470596     Coul =  979.914299491    
                              N = 90.000038863    
                            current damping = 0.400
 
          Norm of current diis error: 0.23292E-02
          max. resid. norm for Fia-block=  5.334D-05 for orbital     44a         
          max. resid. fock norm         =  1.611D-04 for orbital    929a         

 ITERATION  ENERGY          1e-ENERGY        2e-ENERGY     RMS[dD(SAO)]   TOL
  13  -623.64615018724    -2204.1687537     898.05809664    0.138D-05 0.289D-13
                            Exc = -81.8559263583     Coul =  979.914022995    
                              N = 90.000038864    
                            current damping = 0.450
 
          Norm of current diis error: 0.77702E-03
          max. resid. norm for Fia-block=  1.866D-05 for orbital     44a         
          max. resid. fock norm         =  3.460D-05 for orbital    929a         

 ITERATION  ENERGY          1e-ENERGY        2e-ENERGY     RMS[dD(SAO)]   TOL
  14  -623.64615020191    -2204.1702696     898.05961257    0.323D-06 0.289D-13
                            Exc = -81.8560168879     Coul =  979.915629459    
                              N = 90.000038864    
                            current damping = 0.500
 
          Norm of current diis error: 0.25359E-03
          max. resid. norm for Fia-block=  6.943D-06 for orbital     40a         
          max. resid. fock norm         =  1.022D-05 for orbital    925a         

 ITERATION  ENERGY          1e-ENERGY        2e-ENERGY     RMS[dD(SAO)]   TOL
  15  -623.64615020320    -2204.1697075     898.05905050    0.133D-06 0.289D-13
                            Exc = -81.8559552129     Coul =  979.915005713    
                              N = 90.000038865    
                            current damping = 0.550
 
          Norm of current diis error: 0.10969E-03
          max. resid. norm for Fia-block=  3.465D-06 for orbital     41a         
          max. resid. fock norm         =  5.580D-06 for orbital    840a         
          mo-orthogonalization: Cholesky decomposition

 DENSITY CONVERGED !


 ITERATION  ENERGY          1e-ENERGY        2e-ENERGY     RMS[dD(SAO)]   TOL
  16  -623.64615020334    -2204.1696012     898.05894412    0.514D-07 0.289D-13
                            Exc = -81.8559639289     Coul =  979.914908053    
                              N = 90.000038865    
                            current damping = 0.400
 
          Norm of current diis error: 0.80703E-04
          max. resid. norm for Fia-block=  1.640D-06 for orbital     41a         
          max. resid. fock norm         =  2.408D-06 for orbital    840a         

 DENSITY CONVERGED !


 ITERATION  ENERGY          1e-ENERGY        2e-ENERGY     RMS[dD(SAO)]   TOL
  17  -623.64615020349    -2204.1696469     898.05898982    0.257D-07 0.289D-13
                            Exc = -81.8559632759     Coul =  979.914953096    
                              N = 90.000038865    
                            current damping = 0.450
 
          Norm of current diis error: 0.17711E-04
          max. resid. norm for Fia-block=  5.472D-07 for orbital     44a         
          max. resid. fock norm         =  1.203D-06 for orbital    928a         

 DENSITY CONVERGED !


 ITERATION  ENERGY          1e-ENERGY        2e-ENERGY     RMS[dD(SAO)]   TOL
  18  -623.64615020350    -2204.1696650     898.05900797    0.132D-07 0.289D-13
                            Exc = -81.8559647078     Coul =  979.914972677    
                              N = 90.000038865    
                            current damping = 0.300
 
          Norm of current diis error: 0.14047E-04
          max. resid. norm for Fia-block=  3.660D-07 for orbital     44a         
          max. resid. fock norm         =  8.707D-07 for orbital    928a         

 ENERGY & DENSITY CONVERGED !

          Overall gridpoints after grid construction =        336479

 ITERATION  ENERGY          1e-ENERGY        2e-ENERGY     RMS[dD(SAO)]   TOL
  19  -623.64615714866    -2204.1696752     898.05901126    0.989D-08 0.289D-13
                            Exc = -81.8559715970     Coul =  979.914982857    
                              N = 89.999998041    
                            current damping = 0.150
 
          Norm of current diis error: 0.62546E-05
          max. resid. norm for Fia-block=  1.549D-07 for orbital     40a         
          max. resid. fock norm         =  2.237D-07 for orbital    915a         

 End of SCF iterations

   convergence criteria satisfied after    19 iterations


                  ------------------------------------------ 
                 |  total energy      =   -623.64615714866  |
                  ------------------------------------------ 
                 :  kinetic energy    =    621.35318050840  :
                 :  potential energy  =  -1244.99933765705  :
                 :  virial theorem    =      1.99632327304  :
                 :  wavefunction norm =      1.00000000000  :
                  .......................................... 


 <geterg> : there is no data group $energy 


 <skperg> : $end is missing 


 orbitals $scfmo  will be written to file mos

    irrep                 41a         42a         43a         44a         45a   
 eigenvalues H         -0.25560    -0.25192    -0.23574    -0.22062    -0.21937
            eV          -6.9552     -6.8553     -6.4149     -6.0034     -5.9694
 occupation              2.0000      2.0000      2.0000      2.0000      2.0000 

    irrep                 46a         47a         48a         49a         50a   
 eigenvalues H         -0.07311    -0.03524    -0.02670    -0.00973     0.01756
            eV          -1.9894     -0.9590     -0.7266     -0.2647      0.4777
 
 
 
 
 ==============================================================================
                           electrostatic moments
 ==============================================================================

 reference point for electrostatic moments:    0.00000   0.00000   0.00000

 
              nuc           elec       ->  total
 ------------------------------------------------------------------------------
                          charge      
 ------------------------------------------------------------------------------
          90.000000     -90.000000       0.000000
 
 ------------------------------------------------------------------------------
                       dipole moment  
 ------------------------------------------------------------------------------
   x     323.729652    -325.869016      -2.139364
   y     281.140563    -281.446670      -0.306107
   z     -10.397833      10.327222      -0.070611
 
   | dipole moment | =     2.1623 a.u. =     5.4960 debye 
 
 ------------------------------------------------------------------------------
                     quadrupole moment
 ------------------------------------------------------------------------------
  xx    3576.351842   -3648.169151     -71.817309
  yy    1320.654852   -1369.564717     -48.909865
  zz      15.562489     -68.198273     -52.635784
  xy    1392.640171   -1396.502130      -3.861959
  xz      28.139532     -27.433914       0.705618
  yz      29.322100     -28.626738       0.695363
 
     1/3  trace=     -57.787653
     anisotropy=      22.382373
 
 ==============================================================================
 


    ------------------------------------------------------------------------
         total  cpu-time : 14 minutes and  3 seconds
         total wall-time :  2 minutes and 11 seconds
    ------------------------------------------------------------------------

   ****  ridft : all done  ****


    2018-04-24 21:13:33.224 

