
   OpenMP run-time library returned nthreads = 16
 operating system is UNIX !

 dscf (c-3-41) : TURBOMOLE V7.3 ( 22142 ) 4 Jul 2018 at 18:12:42
 Copyright (C) 2018 TURBOMOLE GmbH, Karlsruhe


    2019-04-02 17:17:07.558 



                             d s c f - program

                   idea & directorship : reinhart ahlrichs
                   program development : marco haeser
                                         michael baer
                           dft version : oliver treutler


                          quantum chemistry group
                          universitaet  karlsruhe
                                  germany




                          References             
                                                 
          TURBOMOLE:                             
              R. Ahlrichs, M. Baer, M. Haeser, H. Horn, and
              C. Koelmel
              Electronic structure calculations on workstation
              computers: the program system TURBOMOLE
              Chem. Phys. Lett. 162: 165 (1989)
          Density Functional:                              
              O. Treutler and R. Ahlrichs                      
              Efficient Molecular Numerical Integration Schemes
              J. Chem. Phys. 102: 346 (1995)                   
          Parallel Version:                                
              Performance of parallel TURBOMOLE for Density    
              Functional Calculations                          
              M. v. Arnim and R. Ahlrichs                      
              J. Comp. Chem. 19: 1746 (1998)                   
                                         




              +--------------------------------------------------+
              | Atomic coordinate, charge and isotop information |
              +--------------------------------------------------+

                    atomic coordinates            atom    charge  isotop
         -1.04469923   -0.19218040   -0.00094257    o      8.000     0
         -1.64738696    1.51516767    0.00027288    h      1.000     0
          0.77981344   -0.00346245   -0.00047585    h      1.000     0
          4.46735224    0.18259041    0.00027741    n      7.000     0
          5.78242520    0.11839492    2.16353733    c      6.000     0
          4.67755420    0.16301313    3.88482845    h      1.000     0
          8.40729938   -0.00478203    2.25801620    c      6.000     0
          9.36332389   -0.05174958    4.06143688    h      1.000     0
          9.75120296   -0.06738072   -0.00003862    c      6.000     0
         11.79180474   -0.16521855   -0.00019060    h      1.000     0
          8.40702508   -0.00490799   -2.25788585    c      6.000     0
          9.36284279   -0.05191120   -4.06143783    h      1.000     0
          5.78213876    0.11829269   -2.16312315    c      6.000     0
          4.67708572    0.16289146   -3.88427164    h      1.000     0
 
       center of nuclear mass  :    5.59280947    0.03069611   -0.00005102
       center of nuclear charge:    5.59037419    0.04359849   -0.00004617

              +--------------------------------------------------+
              |               basis set information              |
              +--------------------------------------------------+

              we will work with the 1s 3p 5d 7f 9g ... basis set
              ...i.e. with spherical basis functions...

   type   atoms  prim   cont   basis
   ---------------------------------------------------------------------------
    o        1     77     57   def2-QZVP   [7s4p3d2f1g|15s8p3d2f1g]
    h        7     33     30   def2-QZVP   [4s3p2d1f|7s3p2d1f]
    n        1     77     57   def2-QZVP   [7s4p3d2f1g|15s8p3d2f1g]
    c        5     77     57   def2-QZVP   [7s4p3d2f1g|15s8p3d2f1g]
   ---------------------------------------------------------------------------
   total:   14    770    609
   ---------------------------------------------------------------------------

   total number of primitive shells          :  100
   total number of contracted shells         :  189
   total number of cartesian basis functions :  749
   total number of SCF-basis functions       :  609


 integral neglect threshold       :  0.45E-13
 integral storage threshold THIZE :  0.10E-04
 integral storage threshold THIME :         5


 DENSITY CONVERGENCE CHECK SWITCHED ON !
 SCF CONVERGENCE IF RMS(delta[D]) <     0.1000000000E-06


 symmetry group of the molecule :   c1 

 the group has the following generators :
   c1(z)

    1 symmetry operations found

 there are 1 real representations :   a   

 maximum number of shells which are related by symmetry :  1


    mo occupation :
   irrep   mo's   occupied
    a      609       26
 
 number of basis functions   :                    609
 number of occupied orbitals :                     26
 

 automatic virtual orbital shift switched on 
      shift if e(lumo)-e(homo) < 0.10000000    


          ------------------------
          nuclear repulsion energy  :   269.396539097    
          ------------------------


         -----------------
         -S,T+V- integrals
         -----------------

 1e-integrals will be neglected if expon. factor < 0.446190E-14
 
   Difference densities algorithm switched on.
   The maximal number of linear combinations of
   difference densities is                    20 .

 DIIS switched on: error vector is FDS-SDF
 Max. Iterations for DIIS is     :   5
 DIIS matrix (see manual) 
    Scaling factor of diagonals  :  1.200
    threshold for scaling factor :  0.000

 scf convergence criterion : increment of total energy < .1000000D-08
                  and increment of one-electron energy < .1000000D-05

  MOs are in ASCII format !


 reading orbital data $scfmo  from file mos
 orbital characterization : scfconv=9

 DSCF restart information will be dumped onto file mos

 
                                              current damping :  0.700
 ITERATION  ENERGY          1e-ENERGY        2e-ENERGY     RMS[dD(SAO)]   TOL
   1  -322.79920334819    -972.95440204     380.75865960    0.000D+00 0.445D-13
          max. resid. norm for Fia-block=  2.613D-01 for orbital      1a         
          max. resid. fock norm         =  8.027D-01 for orbital    609a         
          Delta Eig. =    62.2348951920 eV 
 
                                              current damping :  0.650
 ITERATION  ENERGY          1e-ENERGY        2e-ENERGY     RMS[dD(SAO)]   TOL
   2  -322.85413896019    -972.16038588     379.90970783    0.832D-03 0.292D-13
          Norm of current diis error: 0.75493    
          max. resid. norm for Fia-block=  1.142D-01 for orbital      1a         
          max. resid. fock norm         =  3.294D-01 for orbital    609a         
          Delta Eig. =    26.2832829869 eV 
 
                                              current damping :  0.600
 ITERATION  ENERGY          1e-ENERGY        2e-ENERGY     RMS[dD(SAO)]   TOL
   3  -322.86523106004    -972.25320058     379.99143042    0.372D-03 0.219D-13
          Norm of current diis error: 0.32194    
          max. resid. norm for Fia-block=  4.632D-02 for orbital      1a         
          max. resid. fock norm         =  1.300D-01 for orbital    609a         
          Delta Eig. =    10.6587317502 eV 
 
                                              current damping :  0.650
 ITERATION  ENERGY          1e-ENERGY        2e-ENERGY     RMS[dD(SAO)]   TOL
   4  -322.86746731916    -972.19026940     379.92626298    0.162D-03 0.190D-13
          Norm of current diis error: 0.12862    
          max. resid. norm for Fia-block=  1.746D-02 for orbital      1a         
          max. resid. fock norm         =  4.888D-02 for orbital    609a         
          Delta Eig. =     3.8945196728 eV 
 
                                              current damping :  0.500
 ITERATION  ENERGY          1e-ENERGY        2e-ENERGY     RMS[dD(SAO)]   TOL
   5  -322.86784848676    -972.17595734     379.91156975    0.616D-04 0.174D-13
          Norm of current diis error: 0.54758E-01
          max. resid. norm for Fia-block=  6.871D-03 for orbital      1a         
          max. resid. fock norm         =  1.927D-02 for orbital    609a         
 mo-orthogonalization: Cholesky decomposition
          Delta Eig. =     1.6867407730 eV 
 
                                              current damping :  0.350
 ITERATION  ENERGY          1e-ENERGY        2e-ENERGY     RMS[dD(SAO)]   TOL
   6  -322.86793166043    -972.17075610     379.90628534    0.290D-04 0.162D-13
          Norm of current diis error: 0.21408E-01
          max. resid. norm for Fia-block=  2.277D-03 for orbital      1a         
          max. resid. fock norm         =  6.426D-03 for orbital    609a         
          Delta Eig. =     0.6249678100 eV 
 
                                              current damping :  0.200
 ITERATION  ENERGY          1e-ENERGY        2e-ENERGY     RMS[dD(SAO)]   TOL
   7  -322.86794922141    -972.16787639     379.90338807    0.124D-04 0.150D-13
          Norm of current diis error: 0.84804E-02
          max. resid. norm for Fia-block=  6.359D-04 for orbital     26a         
          max. resid. fock norm         =  1.666D-03 for orbital    609a         
          Delta Eig. =     0.1823439986 eV 
 
                                              current damping :  0.050
 ITERATION  ENERGY          1e-ENERGY        2e-ENERGY     RMS[dD(SAO)]   TOL
   8  -322.86795375471    -972.16764648     379.90315363    0.534D-05 0.139D-13
          Norm of current diis error: 0.41174E-02
          max. resid. norm for Fia-block=  4.196D-04 for orbital     26a         
          max. resid. fock norm         =  4.196D-04 for orbital     26a         
          Delta Eig. =     0.0379509606 eV 
 
                                              current damping :  0.050
 ITERATION  ENERGY          1e-ENERGY        2e-ENERGY     RMS[dD(SAO)]   TOL
   9  -322.86795542116    -972.16737157     379.90287705    0.288D-05 0.127D-13
          Norm of current diis error: 0.20911E-02
          max. resid. norm for Fia-block=  2.758D-04 for orbital     25a         
          max. resid. fock norm         =  2.800D-04 for orbital     25a         
          Delta Eig. =     0.0035384783 eV 
 
                                              current damping :  0.100
 ITERATION  ENERGY          1e-ENERGY        2e-ENERGY     RMS[dD(SAO)]   TOL
  10  -322.86795595051    -972.16776589     379.90327084    0.175D-05 0.117D-13
          Norm of current diis error: 0.93562E-03
          max. resid. norm for Fia-block=  1.317D-04 for orbital     26a         
          max. resid. fock norm         =  1.317D-04 for orbital     26a         
 mo-orthogonalization: Cholesky decomposition
          Delta Eig. =     0.0057599666 eV 
 
                                              current damping :  0.150
 ITERATION  ENERGY          1e-ENERGY        2e-ENERGY     RMS[dD(SAO)]   TOL
  11  -322.86795604053    -972.16756236     379.90306723    0.778D-06 0.111D-13
          Norm of current diis error: 0.41899E-03
          max. resid. norm for Fia-block=  5.723D-05 for orbital     25a         
          max. resid. fock norm         =  6.191D-05 for orbital     25a         
          Delta Eig. =     0.0021231612 eV 
 
                                              current damping :  0.200
 ITERATION  ENERGY          1e-ENERGY        2e-ENERGY     RMS[dD(SAO)]   TOL
  12  -322.86795605434    -972.16772243     379.90322728    0.276D-06 0.108D-13
          Norm of current diis error: 0.15359E-03
          max. resid. norm for Fia-block=  1.801D-05 for orbital     25a         
          max. resid. fock norm         =  1.817D-05 for orbital     24a         
          Delta Eig. =     0.0005951433 eV 
 
                                              current damping :  0.250
 ITERATION  ENERGY          1e-ENERGY        2e-ENERGY     RMS[dD(SAO)]   TOL
  13  -322.86795605642    -972.16771124     379.90321609    0.130D-06 0.107D-13
          Norm of current diis error: 0.54023E-04
          max. resid. norm for Fia-block=  7.715D-06 for orbital     25a         
          max. resid. fock norm         =  7.775D-06 for orbital     25a         
          Delta Eig. =     0.0000695506 eV 

 DENSITY CONVERGED !

 
                                              current damping :  0.300
 ITERATION  ENERGY          1e-ENERGY        2e-ENERGY     RMS[dD(SAO)]   TOL
  14  -322.86795605671    -972.16771408     379.90321893    0.529D-07 0.127D-13
          Norm of current diis error: 0.22731E-04
          max. resid. norm for Fia-block=  3.050D-06 for orbital     24a         
          max. resid. fock norm         =  3.241D-06 for orbital     24a         
          Delta Eig. =     0.0000300007 eV 

 ENERGY & DENSITY CONVERGED !

 
                                              current damping :  0.150
 ITERATION  ENERGY          1e-ENERGY        2e-ENERGY     RMS[dD(SAO)]   TOL
  15  -322.86795605677    -972.16771545     379.90322030    0.224D-07 0.127D-13
          max. resid. norm for Fia-block=  7.096D-07 for orbital     24a         
          max. resid. fock norm         =  7.718D-07 for orbital     24a         

 convergence criteria satisfied after    15 iterations


                  ------------------------------------------ 
                 |  total energy      =   -322.86795605677  |
                  ------------------------------------------ 
                 :  kinetic energy    =    322.45234589762  :
                 :  potential energy  =   -645.32030195439  :
                 :  virial theorem    =      1.99871275501  :
                 :  wavefunction norm =      1.00000000000  :
                  .......................................... 


 orbitals $scfmo  will be written to file mos

    irrep                 22a         23a         24a         25a         26a   
 eigenvalues H         -0.53304    -0.46809    -0.43745    -0.39862    -0.36012
            eV         -14.5048    -12.7375    -11.9036    -10.8471     -9.7994
 occupation              2.0000      2.0000      2.0000      2.0000      2.0000 

    irrep                 27a         28a         29a         30a         31a   
 eigenvalues H          0.08369     0.09861     0.10275     0.11635     0.11689
            eV           2.2772      2.6834      2.7961      3.1660      3.1809
 
 
 
 
 ==============================================================================
                           electrostatic moments
 ==============================================================================

 reference point for electrostatic moments:    0.00000   0.00000   0.00000

 
              nuc           elec       ->  total
 ------------------------------------------------------------------------------
                          charge      
 ------------------------------------------------------------------------------
          52.000000     -52.000000       0.000000
 
 ------------------------------------------------------------------------------
                       dipole moment  
 ------------------------------------------------------------------------------
   x     290.699458    -288.943854       1.755604
   y       2.267121      -1.670960       0.596161
   z      -0.002401       0.002941       0.000540
 
   | dipole moment | =     1.8541 a.u. =     4.7126 debye 
 
 ------------------------------------------------------------------------------
                     quadrupole moment
 ------------------------------------------------------------------------------
  xx    2329.787475   -2345.606941     -15.819466
  yy       3.105949     -36.089153     -32.983204
  zz     180.510101    -207.382708     -26.872608
  xy       7.203334      -8.988705      -1.785370
  xz       0.045973      -0.047305      -0.001332
  yz       0.006809      -0.006314       0.000496
 
     1/3  trace=     -25.225093
     anisotropy=      15.382304
 
 ==============================================================================
 


    ------------------------------------------------------------------------
         total  cpu-time :  1 hours 16 minutes and  6 seconds
         total wall-time :  6 minutes and 10 seconds
    ------------------------------------------------------------------------

   ****  dscf : all done  ****


    2019-04-02 17:23:17.451 

