Using Slurm to start processes with PMI2
STARTING ridft ON 8 PROCESSORS!
RUNNING PROGRAM /beegfs/modfac/apps/TURBOMOLE/7.0_intel_GA/bin/em64t-unknown-linux-gnu_mpi/ridft_mpi.
PLEASE WAIT UNTIL ridft HAS FINISHED.
Look for the output in slave1.output.
  this is node-proc. number 1 running on node c-3-341.local
  the total number of node-proc. spawned is            8
  parallel platform: MPP, or cluster with fast interconnect

 ridft (c-3-341.local) : TURBOMOLE V7.0.2( ) 15 Jan 2016 at 17:47:42
 Copyright (C) 2016 TURBOMOLE GmbH, Karlsruhe


    2017-11-07 20:44:03.251 



                                  r i d f t

                        DFT program with RI approximation 
                                for coulomb part 




                                                 
                                 References:     
                                                 
          TURBOMOLE:                             
              R. Ahlrichs, M. Baer, M. Haeser, H. Horn, and
              C. Koelmel
              Electronic structure calculations on workstation
              computers: the program system TURBOMOLE
              Chem. Phys. Lett. 162: 165 (1989)
          Density Functional:                              
              O. Treutler and R. Ahlrichs                      
              Efficient Molecular Numerical Integration Schemes
              J. Chem. Phys. 102: 346 (1995)                   
          Parallel Version:                                
              Performance of parallel TURBOMOLE for Density    
              Functional Calculations                          
              M. v. Arnim and R. Ahlrichs                      
              J. Comp. Chem. 19: 1746 (1998)                   
          RI-J Method:                                     
              Auxiliary Basis Sets to approximate Coulomb      
              Potentials                                       
              Chem. Phys. Lett. 240: 283 (1995)                
              K. Eichkorn, O. Treutler, H. Oehm, M. Haeser     
              and R. Ahlrichs                                  
              Chem. Phys. Lett. 242: 652 (1995)                
                                                           
              Auxiliary Basis Sets for Main Row Atoms and their
              Use to approximate Coulomb Potentials            
              K. Eichkorn, F. Weigend, O. Treutler and         
              R. Ahlrichs                                      
              Theo. Chem. Acc. 97: 119 (1997)                   
                                                           
              Accurate Coulomb-fitting basis sets for H to Rn 
              F. Weigend                                        
              Phys. Chem. Chem. Phys. 8: 1057 (2006)            
                                                           
          Multipole accelerated RI-J (MARI-J):             
              Fast evaluation of the Coulomb potential for     
              electron densities using multipole accelerated   
              resolution of identity approximation             
              M. Sierka, A. Hogekamp and R. Ahlrichs           
              J. Chem. Phys. 118: 9136 (2003)                  
          RI-JK Method:                                     
              A fully direct RI-HF algorithm: Implementation,
              optimised auxiliary basis sets, demonstration of
              accuracy and efficiency                         
              F. Weigend                                      
              Phys. Chem. Chem. Phys. 4: 4285 (2002)           
          Two-component HF and DFT with spin-orbit coupling:  
              Self-consistent treatment of spin-orbit         
              interactions with efficient Hartree-Fock and    
              density functional methods                      
              M. K. Armbruster, F. Weigend, C. van Wüllen and 
              W. Klopper                                      
              Phys. Chem. Chem. Phys. 10: 1748 (2008)         
          Relativistic all-electron 2c calculations           
              An efficient implementation of two-component    
              relativistic exact-decoupling methods for large 
              molecules                                       
              D. Peng, N. Middendorf, F. Weigend, M. Reiher   
              J. Chem. Phys. 138, 184105 (2013)               
                                         


 


              +--------------------------------------------------+
              |      general information about current run       |
              +--------------------------------------------------+

 

 SCF run will be profiled !


 DENSITY CONVERGENCE CHECK SWITCHED ON !
 SCF CONVERGENCE IF RMS(delta[D]) <     0.1000000000E-06

 TPSS meta-GGA functional
 exchange:    LDA + TPSS
 correlation: LDA (PW) + TPSS
 A DFT calculation using the RI-J approximation will be carried out.
 Allocatable memory for RI due to $ricore (MB):       12000


              +--------------------------------------------------+
              | Atomic coordinate, charge and isotop information |
              +--------------------------------------------------+

                    atomic coordinates            atom    charge  isotop
          0.03087599   -2.73416033   -0.43315891    c      6.000     0
         -2.32492522    1.34882738   -0.49239404    c      6.000     0
          0.05509231    2.73389290    0.43154703    c      6.000     0
          2.40615525   -1.34276488    0.50452142    c      6.000     0
          2.38288229    1.33884600   -0.61353517    c      6.000     0
         -2.30234052   -1.34527729    0.59815730    c      6.000     0
          0.13077801    0.12974653    4.37881871    c      6.000     0
         -0.06895955   -0.12999672   -4.37989499    c      6.000     0
          2.31134358    1.27276831   -3.51941694    c      6.000     0
         -2.25663040   -1.24308822    3.49676876    c      6.000     0
          0.01744015   -2.82753678   -3.33677486    c      6.000     0
          0.17384500    2.82719859    3.33278816    c      6.000     0
         -2.41176526    1.24611914   -3.39006169    c      6.000     0
          2.46763028   -1.27591944    3.41054115    c      6.000     0
         -2.76648499   -0.99879609   -8.28419171    c      6.000     0
          2.09969971    2.07070760    8.33242655    c      6.000     0
          1.71125477   -2.07841833   -8.41806727    c      6.000     0
         -2.38316153    1.00730487    8.40255703    c      6.000     0
          0.40457876    2.33887917   -8.49432431    c      6.000     0
          0.78209354   -2.34158961    8.46740403    c      6.000     0
          0.15846524    0.21627394    7.37103786    n      7.000     0
         -0.17756290   -0.21675733   -7.37023349    n      7.000     0
          0.03944332   -4.67918434    0.28364704    h      1.000     0
          0.03424120    4.67902700   -0.28479133    h      1.000     0
          4.09656009    2.34492829   -0.02738462    h      1.000     0
         -4.02292896   -2.33841597    0.00250677    h      1.000     0
         -4.01505366    2.34487119    0.18070508    h      1.000     0
          4.08965300   -2.35195463   -0.15890532    h      1.000     0
         -1.59127142   -3.93649316   -4.00939424    h      1.000     0
          1.92668216    3.76470230    3.88863655    h      1.000     0
         -2.50236861    3.15916908   -4.16225813    h      1.000     0
          2.49909600   -3.21403409    4.11908977    h      1.000     0
          4.00258750    0.32962736   -4.24092116    h      1.000     0
         -3.94374409   -0.25336198    4.15179363    h      1.000     0
         -2.31430020   -3.15606282    4.27172999    h      1.000     0
          2.31193354    3.21108954   -4.22799837    h      1.000     0
         -1.40078436    3.93882100    4.07767023    h      1.000     0
          1.74156187   -3.76803455   -3.97181178    h      1.000     0
          4.19121906   -0.33407120    4.05313634    h      1.000     0
         -4.12863223    0.25872649   -3.96675018    h      1.000     0
         -3.34795518   -2.72578207   -7.32711784    h      1.000     0
          1.49873380    3.98680389    7.88520287    h      1.000     0
         -0.80277393    3.76407304   -7.63368526    h      1.000     0
          2.74739340   -2.79602628    8.06643844    h      1.000     0
          3.57312072   -1.68618719   -7.63956305    h      1.000     0
         -3.74598081   -0.50262171    8.10447346    h      1.000     0
          3.92313974    1.67081588    7.47160244    h      1.000     0
         -4.10856705    0.51629285   -7.92480513    h      1.000     0
         -3.00141281    2.73700380    7.47412373    h      1.000     0
          1.12317483   -3.99229021   -7.94488751    h      1.000     0
         -0.46864082   -3.76220345    7.66308087    h      1.000     0
          2.38785423    2.78613151   -8.18372631    h      1.000     0
         -2.60841766   -1.33897680  -10.31152828    h      1.000     0
          2.21048654    1.82031208   10.37602475    h      1.000     0
          1.73169441   -1.82762116  -10.46447360    h      1.000     0
         -2.13129758    1.34529221   10.42080075    h      1.000     0
          0.01258724    2.21192085  -10.51445861    h      1.000     0
          0.48347917   -2.21336169   10.50339038    h      1.000     0
 
       center of nuclear mass  :    0.01886514   -0.00017412   -0.00021244
       center of nuclear charge:    0.01831319   -0.00017648   -0.00019127

              +--------------------------------------------------+
              |               basis set information              |
              +--------------------------------------------------+

              we will work with the 1s 3p 5d 7f 9g ... basis set
              ...i.e. with spherical basis functions...

   type   atoms  prim   cont   basis
   ---------------------------------------------------------------------------
    c       20     50     30   cc-pVTZ   [4s3p2d1f|18s5p2d1f]
    n        2     50     30   cc-pVTZ   [4s3p2d1f|18s5p2d1f]
    h       36     16     14   cc-pVTZ   [3s2p1d|5s2p1d]
   ---------------------------------------------------------------------------
   total:   58   1676   1164
   ---------------------------------------------------------------------------

   total number of primitive shells          :   60
   total number of contracted shells         :  436
   total number of cartesian basis functions : 1310
   total number of SCF-basis functions       : 1164


 integral neglect threshold       :  0.25E-13
 integral storage threshold THIZE :  0.10E-04
 integral storage threshold THIME :         5

 RI-J AUXILIARY BASIS SET information:

              we will work with the 1s 3p 5d 7f 9g ... basis set
              ...i.e. with spherical basis functions...

   type   atoms  prim   cont   basis
   ---------------------------------------------------------------------------
    c       20     70     49   cc-pVTZ   [6s4p3d1f1g|12s5p4d2f1g]
    n        2     70     49   cc-pVTZ   [6s4p3d1f1g|12s5p4d2f1g]
    h       36     16     11   cc-pVTZ   [3s1p1d|5s2p1d]
   ---------------------------------------------------------------------------
   total:   58   2116   1474
   ---------------------------------------------------------------------------

   total number of primitive shells          :   56
   total number of contracted shells         :  510
   total number of cartesian basis functions : 1774
   total number of SCF-basis functions       : 1474


 symmetry group of the molecule :   c1 

 the group has the following generators :
   c1(z)

    1 symmetry operations found

 there are 1 real representations :   a   

 maximum number of shells which are related by symmetry :  1


    mo occupation :
   irrep   mo's   occupied
    a     1164       84
 
 number of basis functions   :         1164
 number of occupied orbitals :           84
 
  
           ------------------
           density functional
           ------------------
 TPSS meta-GGA functional
 exchange:    LDA + TPSS
 correlation: LDA (PW) + TPSS
 grinp -> nfun, dfgga, dfhybrid 
           5 F F
 iterations will be done with small grid
  
 spherical integration : Lebedev's spherical grid
 spherical gridsize    :           5
    i.e. gridpoints    :         590
 value for diffuse not defined
 radial integration    : Chebyshev 2nd kind (scaling 3)
 radial gridsize       :           8
 integration cells     :          58
 partition function    : becke
 partition sharpness   :           3
  

 <rddim> : input of entry tasksize
           from data group '$pardft' failed !

               Default values taken

 <rddim> : input of entry memdiv
           from data group '$pardft' failed !

               Default values taken
  RIDFT: memory allocation for DFT gridpoints
  MEMORY is divided by 1 as DEFAULT
 Each node can hold at most  the            1 -th part
 of the gridpoints    

 biggest AO integral is expected to be     4.229423036
  
           ------------------------
               RI-J - INFORMATION
           ------------------------
 
 
 **************************************************
 *      MEMORY ALLOCATION FOR PARALLEL RI-DFT     *
 **************************************************
 
 
MEMORY FOR (MU NU/ ALPHA), SEQUENTIAL RUN              11983 MByte
 
            DIFFERENCE IN MEMORY NEED:       DIAG./SLAVE  
 
      TOTAL DIFFERENCE :                     72 MByte
 
      difference in xcore:                   18 MByte
      difference in fatmat:                  21 MByte
      getcor calls skipped by slaves:        34 MByte
 
 
           Integral memory available for diagonal.     11983 MByte
 
           Integral memory available for slave             0 MByte
 
         MEMORY FOR (MU NU/ ALPHA) ON DIAGONALIZER     11983 MByte
 
         MEMORY FOR (MU NU/ ALPHA) ON ONE SLAVE            0 MByte
 
         TOTAL MEMORY FOR (MU NU/ ALPHA),ALL NODES     11983 MByte
 
 Contributions to RI integral batches: 
  neglected integral batches:       28937
  direct contribution:                  0
  memory contribution:       66329
 Memory core needed for (P|Q) and Cholesky     17 MByte
 Memory core minimum needed except of (P|Q)     6 MByte
 Total minimum memory core needed (sum)        22 MByte
  
 ****************************************
 Memory allocated for RI-J 12005 MByte
 ****************************************
                                            

          ------------------------
          nuclear repulsion energy  :   2180.83991053    
          ------------------------

 
          -----------------
          -S integrals
          -----------------

 1e-integrals will be neglected if expon. factor < 0.255112E-14
 
          -----------------
          -T+V integrals
          -----------------

 1e-integrals will be neglected if expon. factor < 0.255112E-14
 Difference densities >>NOT<< switched on in parallel ridft!

 automatic virtual orbital shift switched on 
      shift if e(lumo)-e(homo) < 0.10000000    


 DIIS switched on: error vector is FDS-SDF
 Max. Iterations for DIIS is     :   4
 DIIS matrix (see manual) 
    Scaling factor of diagonals  :  1.200
    threshold for scaling factor :  0.000

 scf convergence criterion : increment of total energy < .1000000D-08
                  and increment of one-electron energy < .1000000D-05


 <geterg> : there is no data group $energy 

  MOs are in ASCII format !


 reading orbital data $scfmo  from file mos . 

 orbital characterization : expanded
 
 mo provided and orthogonalized by Cholesky decomposition

 DSCF restart information will be dumped onto file mos


 Starting SCF iterations


 ITERATION  ENERGY          1e-ENERGY        2e-ENERGY     RMS[dD(SAO)]   TOL
   1  -890.35826111972    -5453.9955855     2382.7974139    0.000D+00 0.254D-13
                            Exc = -132.022500041     Coul =  2514.81991392    
                              N = 167.99968719    
                            current damping = 0.700
 
          max. resid. norm for Fia-block=  2.528D-01 for orbital     37a         
          max. resid. fock norm         =  4.213D+00 for orbital   1103a         

 ITERATION  ENERGY          1e-ENERGY        2e-ENERGY     RMS[dD(SAO)]   TOL
   2  -892.59601191333    -5485.7604120     2412.3244895    0.196D-02 0.254D-13
                            Exc = -134.350395096     Coul =  2546.67488461    
                              N = 167.99977750    
                            current damping = 0.650
 
          Norm of current diis error:  3.8613    
          max. resid. norm for Fia-block=  1.121D-01 for orbital      2a         
          max. resid. fock norm         =  1.401D-01 for orbital    183a         

 ITERATION  ENERGY          1e-ENERGY        2e-ENERGY     RMS[dD(SAO)]   TOL
   3  -893.06542727495    -5490.1119375     2416.2065997    0.100D-02 0.254D-13
                            Exc = -135.084386475     Coul =  2551.29098620    
                              N = 167.99980115    
                            current damping = 0.550
 
          Norm of current diis error:  1.9780    
          max. resid. norm for Fia-block=  5.524D-02 for orbital     25a         
          max. resid. fock norm         =  6.388D-02 for orbital     25a         

 ITERATION  ENERGY          1e-ENERGY        2e-ENERGY     RMS[dD(SAO)]   TOL
   4  -893.21240423004    -5498.2577994     2424.2054846    0.577D-03 0.254D-13
                            Exc = -135.671555188     Coul =  2559.87703982    
                              N = 167.99983683    
                            current damping = 0.450
 
          Norm of current diis error: 0.75017    
          max. resid. norm for Fia-block=  2.148D-02 for orbital     25a         
          max. resid. fock norm         =  3.052D-02 for orbital    240a         

 ITERATION  ENERGY          1e-ENERGY        2e-ENERGY     RMS[dD(SAO)]   TOL
   5  -893.23561503220    -5497.8484356     2423.7729100    0.275D-03 0.254D-13
                            Exc = -135.848968836     Coul =  2559.62187884    
                              N = 167.99983795    
                            current damping = 0.500
 
          Norm of current diis error: 0.38173    
          max. resid. norm for Fia-block=  8.279D-03 for orbital     43a         
          max. resid. fock norm         =  1.193D-02 for orbital   1162a         
          mo-orthogonalization: Cholesky decomposition

 ITERATION  ENERGY          1e-ENERGY        2e-ENERGY     RMS[dD(SAO)]   TOL
   6  -893.24054975947    -5499.8796055     2425.7991452    0.123D-03 0.254D-13
                            Exc = -135.948126645     Coul =  2561.74727184    
                              N = 167.99984630    
                            current damping = 0.550
 
          Norm of current diis error: 0.93224E-01
          max. resid. norm for Fia-block=  2.649D-03 for orbital     37a         
          max. resid. fock norm         =  3.600D-03 for orbital     88a         

 ITERATION  ENERGY          1e-ENERGY        2e-ENERGY     RMS[dD(SAO)]   TOL
   7  -893.24090624901    -5499.8214955     2425.7406787    0.379D-04 0.254D-13
                            Exc = -135.964094314     Coul =  2561.70477301    
                              N = 167.99984587    
                            current damping = 0.600
 
          Norm of current diis error: 0.37339E-01
          max. resid. norm for Fia-block=  1.149D-03 for orbital     24a         
          max. resid. fock norm         =  1.746D-03 for orbital   1144a         

 ITERATION  ENERGY          1e-ENERGY        2e-ENERGY     RMS[dD(SAO)]   TOL
   8  -893.24095919526    -5499.8361904     2425.7553206    0.136D-04 0.254D-13
                            Exc = -135.969597574     Coul =  2561.72491821    
                              N = 167.99984624    
                            current damping = 0.650
 
          Norm of current diis error: 0.16699E-01
          max. resid. norm for Fia-block=  4.510D-04 for orbital     37a         
          max. resid. fock norm         =  5.644D-04 for orbital     88a         

 ITERATION  ENERGY          1e-ENERGY        2e-ENERGY     RMS[dD(SAO)]   TOL
   9  -893.24096995987    -5499.8962980     2425.8154175    0.514D-05 0.254D-13
                            Exc = -135.973997370     Coul =  2561.78941488    
                              N = 167.99984633    
                            current damping = 0.500
 
          Norm of current diis error: 0.41754E-02
          max. resid. norm for Fia-block=  1.366D-04 for orbital     25a         
          max. resid. fock norm         =  1.726D-04 for orbital     85a         

 ITERATION  ENERGY          1e-ENERGY        2e-ENERGY     RMS[dD(SAO)]   TOL
  10  -893.24097077778    -5499.8994718     2425.8185905    0.241D-05 0.254D-13
                            Exc = -135.974569498     Coul =  2561.79315999    
                              N = 167.99984634    
                            current damping = 0.350
 
          Norm of current diis error: 0.19093E-02
          max. resid. norm for Fia-block=  5.637D-05 for orbital     26a         
          max. resid. fock norm         =  1.044D-04 for orbital   1145a         
          mo-orthogonalization: Cholesky decomposition

 ITERATION  ENERGY          1e-ENERGY        2e-ENERGY     RMS[dD(SAO)]   TOL
  11  -893.24097088989    -5499.8970533     2425.8161719    0.109D-05 0.254D-13
                            Exc = -135.975046354     Coul =  2561.79121827    
                              N = 167.99984633    
                            current damping = 0.400
 
          Norm of current diis error: 0.14198E-02
          max. resid. norm for Fia-block=  3.435D-05 for orbital     74a         
          max. resid. fock norm         =  5.270D-05 for orbital   1152a         

 ITERATION  ENERGY          1e-ENERGY        2e-ENERGY     RMS[dD(SAO)]   TOL
  12  -893.24097093359    -5499.9054239     2425.8245424    0.451D-06 0.254D-13
                            Exc = -135.975327076     Coul =  2561.79986948    
                              N = 167.99984636    
                            current damping = 0.450
 
          Norm of current diis error: 0.77080E-03
          max. resid. norm for Fia-block=  1.375D-05 for orbital     82a         
          max. resid. fock norm         =  2.166D-05 for orbital   1144a         

 ITERATION  ENERGY          1e-ENERGY        2e-ENERGY     RMS[dD(SAO)]   TOL
  13  -893.24097095165    -5499.9037274     2425.8228459    0.190D-06 0.254D-13
                            Exc = -135.975265061     Coul =  2561.79811095    
                              N = 167.99984635    
                            current damping = 0.500
 
          Norm of current diis error: 0.16187E-03
          max. resid. norm for Fia-block=  5.008D-06 for orbital     48a         
          max. resid. fock norm         =  8.248D-06 for orbital     36a         

 DENSITY CONVERGED !


 ITERATION  ENERGY          1e-ENERGY        2e-ENERGY     RMS[dD(SAO)]   TOL
  14  -893.24097095228    -5499.9022500     2425.8213685    0.792D-07 0.254D-13
                            Exc = -135.975210845     Coul =  2561.79657933    
                              N = 167.99984634    
                            current damping = 0.350
 
          Norm of current diis error: 0.98617E-04
          max. resid. norm for Fia-block=  2.020D-06 for orbital     49a         
          max. resid. fock norm         =  3.484D-06 for orbital   1144a         

 DENSITY CONVERGED !


 ITERATION  ENERGY          1e-ENERGY        2e-ENERGY     RMS[dD(SAO)]   TOL
  15  -893.24097095255    -5499.9026431     2425.8217617    0.225D-07 0.254D-13
                            Exc = -135.975231194     Coul =  2561.79699286    
                              N = 167.99984635    
                            current damping = 0.400
 
          Norm of current diis error: 0.20538E-04
          max. resid. norm for Fia-block=  6.236D-07 for orbital     74a         
          max. resid. fock norm         =  9.293D-07 for orbital   1145a         
          mo-orthogonalization: Cholesky decomposition

 DENSITY CONVERGED !


 ITERATION  ENERGY          1e-ENERGY        2e-ENERGY     RMS[dD(SAO)]   TOL
  16  -893.24097095258    -5499.9027179     2425.8218364    0.784D-08 0.254D-13
                            Exc = -135.975233056     Coul =  2561.79706944    
                              N = 167.99984635    
                            current damping = 0.250
 
          Norm of current diis error: 0.55739E-05
          max. resid. norm for Fia-block=  1.472D-07 for orbital     74a         
          max. resid. fock norm         =  2.506D-07 for orbital   1145a         

 ENERGY & DENSITY CONVERGED !


 ITERATION  ENERGY          1e-ENERGY        2e-ENERGY     RMS[dD(SAO)]   TOL
  17  -893.24055268551    -5499.9027200     2425.8222568    0.432D-08 0.254D-13
                            Exc = -135.974815532     Coul =  2561.79707230    
                              N = 168.00008740    
                            current damping = 0.100
 
          Norm of current diis error: 0.23187E-05
          max. resid. norm for Fia-block=  4.929D-08 for orbital     82a         
          max. resid. fock norm         =  7.977D-08 for orbital   1150a         

 End of SCF iterations

   convergence criteria satisfied after   17 iterations


                  ------------------------------------------ 
                 |  total energy      =   -893.24055268551  |
                  ------------------------------------------ 
                 :  kinetic energy    =    887.92286685621  :
                 :  potential energy  =  -1781.16341954172  :
                 :  virial theorem    =      1.99404674831  :
                 :  wavefunction norm =      1.00000000000  :
                  .......................................... 


 <geterg> : there is no data group $energy 


 <skperg> : $end is missing 


 orbitals $scfmo  will be written to file mos

    irrep                 80a         81a         82a         83a         84a   
 eigenvalues H         -0.51300    -0.50945    -0.49844    -0.47634    -0.47624
            eV         -13.9597    -13.8628    -13.5632    -12.9619    -12.9593
 occupation              2.0000      2.0000      2.0000      2.0000      2.0000 

    irrep                 85a         86a         87a         88a         89a   
 eigenvalues H         -0.21955    -0.20229    -0.19194    -0.19096    -0.17836
            eV          -5.9744     -5.5048     -5.2229     -5.1962     -4.8534
 
 
 ! grave: sending quit signal to master process
 
 
 
 
 ==============================================================================
                           electrostatic moments
 ==============================================================================

 reference point for electrostatic moments:    0.00000   0.00000   0.00000

 
              nuc           elec       ->  total
 ------------------------------------------------------------------------------
                          charge      
 ------------------------------------------------------------------------------
         170.000000    -168.000000       2.000000
 
 ------------------------------------------------------------------------------
                       dipole moment  
 ------------------------------------------------------------------------------
   x       3.113242      -3.115588      -0.002346
   y      -0.030002       0.029598      -0.000404
   z      -0.032516       0.032973       0.000458
 
   | dipole moment | =     0.0024 a.u. =     0.0062 debye 
 
 ------------------------------------------------------------------------------
                     quadrupole moment
 ------------------------------------------------------------------------------
  xx     679.315784    -764.671963     -85.356179
  yy     680.307978    -765.646865     -85.338887
  zz    5541.607083   -5525.828310      15.778773
  xy       3.292615      -3.224679       0.067936
  xz     110.931188    -108.624447       2.306741
  yz     143.480328    -140.496726       2.983601
 
     1/3  trace=     -51.638765
     anisotropy=     101.337123
 
 ==============================================================================
 

    ridft profiling
  --------------------------------------------------------------------
             module   cpu total (s)       %  wall total (s)       %

               RIDFT          1121.8  100.00          1127.9  100.00
         Ridft_b_scf            75.5    6.73            80.4    7.13
        b_scf_prelim             0.0    0.00             0.0    0.00
        b_scf_molinp             0.0    0.00             0.0    0.00
         b_scf_init0             0.0    0.00             0.0    0.00
        b_scf_auxbas             0.0    0.00             0.0    0.00
      b_scf_symmetry             0.0    0.00             0.0    0.00
         b_scf_cosmo             0.0    0.00             0.0    0.00
        b_scf_params             0.7    0.07             0.7    0.07
          b_scf_ri-j            69.7    6.21            74.5    6.61
    b_scf_ri-j_auxpq            69.7    6.21            74.5    6.60
     ri-j_auxpq_chol             0.5    0.05             0.5    0.04
         b_scf_1elec             0.9    0.08             1.0    0.09
       b_scf_moinput             4.1    0.37             4.1    0.37
     moinput_orthmos             4.0    0.36             4.0    0.35
    b_scf_dft-dstmax             0.0    0.00             0.0    0.00
           Ridft_scf          1045.6   93.21          1046.9   92.81
          Scf_b_loop             0.0    0.00             0.0    0.00
                noga             0.0    0.00             0.0    0.00
            Scf_loop          1044.5   93.12          1045.8   92.72
     scf_loop_mkdmat             1.6    0.15             1.6    0.15
       scf_loop_ri-j            46.7    4.17            46.8    4.15
      parlp1.bc.dens             0.9    0.08             1.0    0.08
        parlp1.gs.gp             0.0    0.00             0.0    0.00
        parlp2.bc.gq             0.0    0.00             0.0    0.00
        scf_loop_dft           939.0   83.71           940.2   83.36
      pardft.bc.dens             0.0    0.00             0.0    0.00
        dft_grid_con             1.8    0.16             1.8    0.16
          dft_xcmrhf           924.1   82.38           925.1   82.02
          dft_getval            21.0    1.88            21.1    1.87
          funct2 dst             0.4    0.03             0.4    0.04
      funct2 f2loop1             4.2    0.38             4.2    0.37
      funct2 f2loop2             8.6    0.77             8.7    0.77
          funct2 s+c             7.2    0.64             7.1    0.63
        funct2 cmf_2             6.6    0.59             6.5    0.58
          dft_mkdens           464.3   41.39           464.8   41.21
        dft_mgga-fun             0.8    0.07             0.8    0.07
          dft_mkfock           437.6   39.01           437.9   38.83
     pardft.red.fock            91.1    8.12            91.2    8.08
     scf_loop_energy             0.0    0.00             0.0    0.00
     scf_loop_mkfock             0.0    0.00             0.0    0.00
       scf_loop_diis            22.0    1.96            22.0    1.95
       scf_loop_diag            16.7    1.49            16.7    1.48
         diag_tritrn             4.6    0.41             4.6    0.41
          diag_rdiag            12.0    1.07            12.0    1.06
     scf_loop_modump            14.3    1.27            14.3    1.26
      scf_loop_ortho             3.6    0.32             3.6    0.32
          Scf_a_loop             1.0    0.09             1.0    0.09
         Ridft_a_scf             0.7    0.06             0.7    0.06
         a_scf_fanal             0.2    0.02             0.3    0.02
 


    ------------------------------------------------------------------------
         total  cpu-time : 18 minutes and 43 seconds
         total wall-time : 18 minutes and 49 seconds
    ------------------------------------------------------------------------


   ****  ridft : all done  ****


    2017-11-07 21:02:52.416 

