
   OpenMP run-time library returned nthreads = 28
 operating system is UNIX !

 dscf (c-13-42) : TURBOMOLE V7.3 ( 22142 ) 4 Jul 2018 at 18:12:42
 Copyright (C) 2018 TURBOMOLE GmbH, Karlsruhe


    2019-04-01 23:54:48.911 



                             d s c f - program

                   idea & directorship : reinhart ahlrichs
                   program development : marco haeser
                                         michael baer
                           dft version : oliver treutler


                          quantum chemistry group
                          universitaet  karlsruhe
                                  germany




                          References             
                                                 
          TURBOMOLE:                             
              R. Ahlrichs, M. Baer, M. Haeser, H. Horn, and
              C. Koelmel
              Electronic structure calculations on workstation
              computers: the program system TURBOMOLE
              Chem. Phys. Lett. 162: 165 (1989)
          Density Functional:                              
              O. Treutler and R. Ahlrichs                      
              Efficient Molecular Numerical Integration Schemes
              J. Chem. Phys. 102: 346 (1995)                   
          Parallel Version:                                
              Performance of parallel TURBOMOLE for Density    
              Functional Calculations                          
              M. v. Arnim and R. Ahlrichs                      
              J. Comp. Chem. 19: 1746 (1998)                   
                                         




              +--------------------------------------------------+
              | Atomic coordinate, charge and isotop information |
              +--------------------------------------------------+

                    atomic coordinates            atom    charge  isotop
          1.14665739    2.51413293    0.59797456    c      0.000     0
          2.35554071    4.16167648    0.62427540    h      0.000     0
          2.11287380    0.16487645    1.29468260    c      0.000     0
          4.06301990   -0.00734496    1.87793091    h      0.000     0
          0.55350511   -1.95792138    1.26442949    c      0.000     0
          1.30107051   -3.78126921    1.80540272    h      0.000     0
         -1.97066638   -1.73233297    0.54459949    c      0.000     0
         -3.17986023   -3.37975298    0.52789316    h      0.000     0
         -2.93585656    0.61859994   -0.15107070    c      0.000     0
         -4.89294495    0.79423126   -0.71308097    h      0.000     0
         -1.37579931    2.74169623   -0.12632505    c      0.000     0
         -2.12334124    4.56493328   -0.66870120    h      0.000     0
          0.79177046   -0.51339860    7.60610416    c      6.000     0
          3.05092420   -0.20357659    7.75069802    o      8.000     0
         -0.30332900   -2.80262221    7.98298803    o      8.000     0
          1.08458198   -3.93855264    8.34777720    h      1.000     0
         -1.13931087    1.45934607    7.00010455    c      6.000     0
         -0.23546541    3.29416876    6.91162234    h      1.000     0
         -1.99497906    1.01866914    5.18085000    h      1.000     0
         -2.62246435    1.44888360    8.42212248    h      1.000     0
 
       center of nuclear mass  :    0.02773396   -0.03120651    3.62508906
       center of nuclear charge:    0.50397476   -0.51721053    7.57403477

              +--------------------------------------------------+
              |               basis set information              |
              +--------------------------------------------------+

              we will work with the 1s 3p 5d 7f 9g ... basis set
              ...i.e. with spherical basis functions...

   type   atoms  prim   cont   basis
   ---------------------------------------------------------------------------
    c        8     77     55   cc-pVQZ   [5s4p3d2f1g|21s6p3d2f1g]
    h       10     32     30   cc-pVQZ   [4s3p2d1f|6s3p2d1f]
    o        2     77     55   cc-pVQZ   [5s4p3d2f1g|21s6p3d2f1g]
   ---------------------------------------------------------------------------
   total:   20   1090    850
   ---------------------------------------------------------------------------

   total number of primitive shells          :   78
   total number of contracted shells         :  250
   total number of cartesian basis functions : 1050
   total number of SCF-basis functions       :  850


 integral neglect threshold       :  0.32E-13
 integral storage threshold THIZE :  0.10E-04
 integral storage threshold THIME :         5


 DENSITY CONVERGENCE CHECK SWITCHED ON !
 SCF CONVERGENCE IF RMS(delta[D]) <     0.1000000000E-06


 symmetry group of the molecule :   c1 

 the group has the following generators :
   c1(z)

    1 symmetry operations found

 there are 1 real representations :   a   

 maximum number of shells which are related by symmetry :  1


    mo occupation :
   irrep   mo's   occupied
    a      850       16
 
 number of basis functions   :                    850
 number of occupied orbitals :                     16
 

 automatic virtual orbital shift switched on 
      shift if e(lumo)-e(homo) < 0.10000000    


          ------------------------
          nuclear repulsion energy  :   121.235662066    
          ------------------------


         -----------------
         -S,T+V- integrals
         -----------------

 1e-integrals will be neglected if expon. factor < 0.318282E-14
 
   Difference densities algorithm switched on.
   The maximal number of linear combinations of
   difference densities is                    20 .

 DIIS switched on: error vector is FDS-SDF
 Max. Iterations for DIIS is     :   5
 DIIS matrix (see manual) 
    Scaling factor of diagonals  :  1.200
    threshold for scaling factor :  0.000

 scf convergence criterion : increment of total energy < .1000000D-08
                  and increment of one-electron energy < .1000000D-05

  MOs are in ASCII format !


 reading orbital data $scfmo  from file mos
 orbital characterization : scfconv=9

 DSCF restart information will be dumped onto file mos

 
                                              current damping :  0.700
 ITERATION  ENERGY          1e-ENERGY        2e-ENERGY     RMS[dD(SAO)]   TOL
   1  -227.86925025754    -552.31430909     203.20939677    0.000D+00 0.317D-13
          max. resid. norm for Fia-block=  1.187D-01 for orbital      1a         
          max. resid. fock norm         =  3.878D-01 for orbital    765a         
          Delta Eig. =    29.9459944456 eV 
 
                                              current damping :  0.650
 ITERATION  ENERGY          1e-ENERGY        2e-ENERGY     RMS[dD(SAO)]   TOL
   2  -227.90891202029    -551.89451188     202.74993779    0.544D-03 0.205D-13
          Norm of current diis error: 0.53589    
          max. resid. norm for Fia-block=  5.371D-02 for orbital      1a         
          max. resid. fock norm         =  1.619D-01 for orbital    798a         
          Delta Eig. =    12.7763335093 eV 
 
                                              current damping :  0.600
 ITERATION  ENERGY          1e-ENERGY        2e-ENERGY     RMS[dD(SAO)]   TOL
   3  -227.91680977345    -551.93866087     202.78618903    0.262D-03 0.155D-13
          Norm of current diis error: 0.23618    
          max. resid. norm for Fia-block=  2.382D-02 for orbital      2a         
          max. resid. fock norm         =  5.432D-02 for orbital    755a         
          Delta Eig. =     5.4781229357 eV 
 
                                              current damping :  0.450
 ITERATION  ENERGY          1e-ENERGY        2e-ENERGY     RMS[dD(SAO)]   TOL
   4  -227.91863605002    -551.95060051     202.79630239    0.127D-03 0.135D-13
          Norm of current diis error: 0.99611E-01
          max. resid. norm for Fia-block=  8.908D-03 for orbital     11a         
          max. resid. fock norm         =  2.609D-02 for orbital    815a         
          Delta Eig. =     2.2687120068 eV 
 
                                              current damping :  0.500
 ITERATION  ENERGY          1e-ENERGY        2e-ENERGY     RMS[dD(SAO)]   TOL
   5  -227.91899988267    -551.93758169     202.78291974    0.546D-04 0.124D-13
          Norm of current diis error: 0.36591E-01
          max. resid. norm for Fia-block=  3.763D-03 for orbital     11a         
          max. resid. fock norm         =  7.370D-03 for orbital    795a         
 mo-orthogonalization: Cholesky decomposition
          Delta Eig. =     0.6675768291 eV 
 
                                              current damping :  0.550
 ITERATION  ENERGY          1e-ENERGY        2e-ENERGY     RMS[dD(SAO)]   TOL
   6  -227.91905548790    -551.93830805     202.78359050    0.199D-04 0.118D-13
          Norm of current diis error: 0.15004E-01
          max. resid. norm for Fia-block=  1.665D-03 for orbital     11a         
          max. resid. fock norm         =  2.594D-03 for orbital    775a         
          Delta Eig. =     0.2183927942 eV 
 
                                              current damping :  0.400
 ITERATION  ENERGY          1e-ENERGY        2e-ENERGY     RMS[dD(SAO)]   TOL
   7  -227.91906601485    -551.93838228     202.78365420    0.736D-05 0.113D-13
          Norm of current diis error: 0.67609E-02
          max. resid. norm for Fia-block=  8.133D-04 for orbital     11a         
          max. resid. fock norm         =  9.405D-04 for orbital    796a         
          Delta Eig. =     0.0862637449 eV 
 
                                              current damping :  0.450
 ITERATION  ENERGY          1e-ENERGY        2e-ENERGY     RMS[dD(SAO)]   TOL
   8  -227.91906861914    -551.93832512     202.78359444    0.362D-05 0.107D-13
          Norm of current diis error: 0.27162E-02
          max. resid. norm for Fia-block=  3.477D-04 for orbital     11a         
          max. resid. fock norm         =  3.626D-04 for orbital     11a         
          Delta Eig. =     0.0240951479 eV 
 
                                              current damping :  0.500
 ITERATION  ENERGY          1e-ENERGY        2e-ENERGY     RMS[dD(SAO)]   TOL
   9  -227.91906910259    -551.93841407     202.78368291    0.137D-05 0.102D-13
          Norm of current diis error: 0.11890E-02
          max. resid. norm for Fia-block=  1.539D-04 for orbital     11a         
          max. resid. fock norm         =  1.568D-04 for orbital     11a         
          Delta Eig. =     0.0077407879 eV 
 
                                              current damping :  0.350
 ITERATION  ENERGY          1e-ENERGY        2e-ENERGY     RMS[dD(SAO)]   TOL
  10  -227.91906920342    -551.93843887     202.78370760    0.590D-06 0.973D-14
          Norm of current diis error: 0.54247E-03
          max. resid. norm for Fia-block=  6.871D-05 for orbital     11a         
          max. resid. fock norm         =  7.289D-05 for orbital     11a         
 mo-orthogonalization: Cholesky decomposition
          Delta Eig. =     0.0029104352 eV 
 
                                              current damping :  0.200
 ITERATION  ENERGY          1e-ENERGY        2e-ENERGY     RMS[dD(SAO)]   TOL
  11  -227.91906922850    -551.93845470     202.78372341    0.307D-06 0.914D-14
          Norm of current diis error: 0.22850E-03
          max. resid. norm for Fia-block=  3.219D-05 for orbital     16a         
          max. resid. fock norm         =  3.451D-05 for orbital     16a         
          Delta Eig. =     0.0011777601 eV 
 
                                              current damping :  0.050
 ITERATION  ENERGY          1e-ENERGY        2e-ENERGY     RMS[dD(SAO)]   TOL
  12  -227.91906923343    -551.93846215     202.78373085    0.149D-06 0.853D-14
          Norm of current diis error: 0.82695E-04
          max. resid. norm for Fia-block=  1.428D-05 for orbital     15a         
          max. resid. fock norm         =  1.549D-05 for orbital     15a         
          Delta Eig. =     0.0003687941 eV 

 DENSITY CONVERGED !

 
                                              current damping :  0.050
 ITERATION  ENERGY          1e-ENERGY        2e-ENERGY     RMS[dD(SAO)]   TOL
  13  -227.91906923416    -551.93846406     202.78373276    0.592D-07 0.905D-14
          Norm of current diis error: 0.39152E-04
          max. resid. norm for Fia-block=  4.388D-06 for orbital     16a         
          max. resid. fock norm         =  6.077D-06 for orbital    771a         
          Delta Eig. =     0.0002976190 eV 

 ENERGY & DENSITY CONVERGED !

 
                                              current damping :  0.050
 ITERATION  ENERGY          1e-ENERGY        2e-ENERGY     RMS[dD(SAO)]   TOL
  14  -227.91906923426    -551.93846464     202.78373334    0.210D-07 0.906D-14
          max. resid. norm for Fia-block=  2.219D-06 for orbital     15a         
          max. resid. fock norm         =  2.578D-06 for orbital    826a         

 convergence criteria satisfied after    14 iterations


                  ------------------------------------------ 
                 |  total energy      =   -227.91906923426  |
                  ------------------------------------------ 
                 :  kinetic energy    =    227.64026626020  :
                 :  potential energy  =   -455.55933549446  :
                 :  virial theorem    =      1.99877674573  :
                 :  wavefunction norm =      1.00000000000  :
                  .......................................... 


 orbitals $scfmo  will be written to file mos

    irrep                 12a         13a         14a         15a         16a   
 eigenvalues H         -0.58673    -0.57610    -0.56400    -0.48499    -0.45717
            eV         -15.9658    -15.6766    -15.3473    -13.1973    -12.4404
 occupation              2.0000      2.0000      2.0000      2.0000      2.0000 

    irrep                 17a         18a         19a         20a         21a   
 eigenvalues H          0.05371     0.09191     0.09590     0.12231     0.13747
            eV           1.4614      2.5011      2.6095      3.3281      3.7407
 
 
 
 
 ==============================================================================
                           electrostatic moments
 ==============================================================================

 reference point for electrostatic moments:    0.00000   0.00000   0.00000

 
              nuc           elec       ->  total
 ------------------------------------------------------------------------------
                          charge      
 ------------------------------------------------------------------------------
          32.000000     -32.000000      -0.000000
 
 ------------------------------------------------------------------------------
                       dipole moment  
 ------------------------------------------------------------------------------
   x      16.127192     -16.902552      -0.775359
   y     -16.550737      16.485677      -0.065060
   z     242.369113    -242.431617      -0.062505
 
   | dipole moment | =     0.7806 a.u. =     1.9841 debye 
 
 ------------------------------------------------------------------------------
                     quadrupole moment
 ------------------------------------------------------------------------------
  xx      98.839777    -120.387148     -21.547371
  yy     107.029387    -122.037179     -15.007791
  zz    1846.766308   -1864.699579     -17.933271
  xy     -21.461913      18.999362      -2.462551
  xz     133.088521    -138.720579      -5.632058
  yz    -146.375474     145.196269      -1.179205
 
     1/3  trace=     -18.162811
     anisotropy=      12.235905
 
 ==============================================================================
 


    ------------------------------------------------------------------------
         total  cpu-time :  4 hours 49 minutes and 31 seconds
         total wall-time : 14 minutes and 25 seconds
    ------------------------------------------------------------------------

   ****  dscf : all done  ****


    2019-04-02 00:09:13.968 

