           Doing BLAS/Lapack in the master proc. with  8 CPUs.
           SMPCPUS    set: Shared-memory Parallelization with   8 CPUs.

           SMP Parallelization Reference:
           C. van Wullen, J. Comput. Chem. 32 (2011) 1195--1201
 operating system is UNIX !

 ridft (c-18-262.gp.local) : TURBOMOLE V7.2 ( 21454 ) 4 Oct 2017 at 12:48:15
 Copyright (C) 2017 TURBOMOLE GmbH, Karlsruhe


    2018-04-28 20:54:32.828 



                                  r i d f t

                        DFT program with RI approximation 
                                for coulomb part 




                                                 
                                 References:     
                                                 
          TURBOMOLE:                             
              R. Ahlrichs, M. Baer, M. Haeser, H. Horn, and
              C. Koelmel
              Electronic structure calculations on workstation
              computers: the program system TURBOMOLE
              Chem. Phys. Lett. 162: 165 (1989)
          Density Functional:                              
              O. Treutler and R. Ahlrichs                      
              Efficient Molecular Numerical Integration Schemes
              J. Chem. Phys. 102: 346 (1995)                   
          Parallel Version:                                
              Performance of parallel TURBOMOLE for Density    
              Functional Calculations                          
              M. v. Arnim and R. Ahlrichs                      
              J. Comp. Chem. 19: 1746 (1998)                   
          RI-J Method:                                     
              Auxiliary Basis Sets to approximate Coulomb      
              Potentials                                       
              Chem. Phys. Lett. 240: 283 (1995)                
              K. Eichkorn, O. Treutler, H. Oehm, M. Haeser     
              and R. Ahlrichs                                  
              Chem. Phys. Lett. 242: 652 (1995)                
                                                           
              Auxiliary Basis Sets for Main Row Atoms and their
              Use to approximate Coulomb Potentials            
              K. Eichkorn, F. Weigend, O. Treutler and         
              R. Ahlrichs                                      
              Theo. Chem. Acc. 97: 119 (1997)                   
                                                           
              Accurate Coulomb-fitting basis sets for H to Rn 
              F. Weigend                                        
              Phys. Chem. Chem. Phys. 8: 1057 (2006)            
                                                           
          Multipole accelerated RI-J (MARI-J):             
              Fast evaluation of the Coulomb potential for     
              electron densities using multipole accelerated   
              resolution of identity approximation             
              M. Sierka, A. Hogekamp and R. Ahlrichs           
              J. Chem. Phys. 118: 9136 (2003)                  
          RI-JK Method:                                     
              A fully direct RI-HF algorithm: Implementation,
              optimised auxiliary basis sets, demonstration of
              accuracy and efficiency                         
              F. Weigend                                      
              Phys. Chem. Chem. Phys. 4: 4285 (2002)           
          Two-component HF and DFT with spin-orbit coupling:  
              Self-consistent treatment of spin-orbit         
              interactions with efficient Hartree-Fock and    
              density functional methods                      
              M. K. Armbruster, F. Weigend, C. van Wüllen and 
              W. Klopper                                      
              Phys. Chem. Chem. Phys. 10: 1748 (2008)         
          Relativistic all-electron 2c calculations           
              An efficient implementation of two-component    
              relativistic exact-decoupling methods for large 
              molecules                                       
              D. Peng, N. Middendorf, F. Weigend, M. Reiher   
              J. Chem. Phys. 138, 184105 (2013)               
                                         




              +--------------------------------------------------+
              |      general information about current run       |
              +--------------------------------------------------+

 

 DENSITY CONVERGENCE CHECK SWITCHED ON !
 SCF CONVERGENCE IF RMS(delta[D]) <     0.1000000000E-06

 PBE functional
 exchange:    LDA + PBE
 correlation: LDA (PW) + PBE
 A DFT calculation using the RI-J approximation will be carried out.
 Allocatable memory for RI due to $ricore (MB):                  5000


              +--------------------------------------------------+
              | Atomic coordinate, charge and isotop information |
              +--------------------------------------------------+

                    atomic coordinates            atom    charge  isotop
         -1.04469923   -0.19218040   -0.00094257    o      0.000     0
         -1.64738696    1.51516767    0.00027288    h      0.000     0
          0.77981344   -0.00346245   -0.00047585    h      0.000     0
          4.46735224    0.18259041    0.00027741    n      7.000     0
          5.78242520    0.11839492    2.16353733    c      6.000     0
          4.67755420    0.16301313    3.88482845    h      1.000     0
          8.40729938   -0.00478203    2.25801620    c      6.000     0
          9.36332389   -0.05174958    4.06143688    h      1.000     0
          9.75120296   -0.06738072   -0.00003862    c      6.000     0
         11.79180474   -0.16521855   -0.00019060    h      1.000     0
          8.40702508   -0.00490799   -2.25788585    c      6.000     0
          9.36284279   -0.05191120   -4.06143783    h      1.000     0
          5.78213876    0.11829269   -2.16312315    c      6.000     0
          4.67708572    0.16289146   -3.88427164    h      1.000     0
 
       center of nuclear mass  :    5.59280947    0.03069611   -0.00005102
       center of nuclear charge:    7.14106251    0.05459189    0.00012721

              +--------------------------------------------------+
              |               basis set information              |
              +--------------------------------------------------+

              we will work with the 1s 3p 5d 7f 9g ... basis set
              ...i.e. with spherical basis functions...

   type   atoms  prim   cont   basis
   ---------------------------------------------------------------------------
    o        1     50     30   cc-pVTZ   [4s3p2d1f|18s5p2d1f]
    h        7     16     14   cc-pVTZ   [3s2p1d|5s2p1d]
    n        1     50     30   cc-pVTZ   [4s3p2d1f|18s5p2d1f]
    c        5     50     30   cc-pVTZ   [4s3p2d1f|18s5p2d1f]
   ---------------------------------------------------------------------------
   total:   14    462    308
   ---------------------------------------------------------------------------

   total number of primitive shells          :   86
   total number of contracted shells         :  112
   total number of cartesian basis functions :  350
   total number of SCF-basis functions       :  308


 integral neglect threshold       :  0.95E-13
 integral storage threshold THIZE :  0.10E-04
 integral storage threshold THIME :         5

 RI-J AUXILIARY BASIS SET information:

              we will work with the 1s 3p 5d 7f 9g ... basis set
              ...i.e. with spherical basis functions...

   type   atoms  prim   cont   basis
   ---------------------------------------------------------------------------
    o        1     70     49   cc-pVTZ   [6s4p3d1f1g|12s5p4d2f1g]
    h        7     16     11   cc-pVTZ   [3s1p1d|5s2p1d]
    n        1     70     49   cc-pVTZ   [6s4p3d1f1g|12s5p4d2f1g]
    c        5     70     49   cc-pVTZ   [6s4p3d1f1g|12s5p4d2f1g]
   ---------------------------------------------------------------------------
   total:   14    602    420
   ---------------------------------------------------------------------------

   total number of primitive shells          :   80
   total number of contracted shells         :  140
   total number of cartesian basis functions :  511
   total number of SCF-basis functions       :  420


 symmetry group of the molecule :   c1 

 the group has the following generators :
   c1(z)

    1 symmetry operations found

 there are 1 real representations :   a   

 maximum number of shells which are related by symmetry :  1


    mo occupation :
   irrep   mo's   occupied
    a      308       21
 
 number of basis functions   :                    308
 number of occupied orbitals :                     21
 
  
           ------------------
           density functional
           ------------------
 Dummy atoms with grid-point found.
 DFT quadrature threshold dgrenze tightened by factor 1/10.

 PBE functional
 exchange:    LDA + PBE
 correlation: LDA (PW) + PBE
 Dummy atoms with grid-point found.
 DFT quadrature threshold dgrenze tightened by factor 1/10.

 Dummy atoms with grid-point found.
 DFT quadrature threshold dgrenze tightened by factor 1/10.


 iterations will be done with small grid
  
 spherical integration : Lebedev's spherical grid
 spherical gridsize    :                     5
    i.e. gridpoints    :                   590
 value for diffuse not defined
 radial integration    : Chebyshev 2nd kind (scaling 3)
 radial gridsize       :                     8
 integration cells     :                    14
 partition function    : becke
 partition sharpness   :                     3
  
 found dummy atom(s) with basis: included in dft

 biggest AO integral is expected to be     4.866064444
  
           ------------------------
               RI-J - INFORMATION
           ------------------------
 Contributions to RI integral batches: 
  neglected integral batches:                   771
  direct contribution:                            0
  memory contribution:                  5557
 Memory core needed for (P|Q) and Cholesky      2 MByte
 Memory core minimum needed except of (P|Q)     1 MByte
 Total minimum memory core needed (sum)         2 MByte
  
 ****************************************
 Memory allocated for RI-J   208 MByte
 ****************************************
                                            

          ------------------------
          nuclear repulsion energy  :   206.285463432    
          ------------------------


         -----------------
         -S,T+V- integrals
         -----------------

 1e-integrals will be neglected if expon. factor < 0.954846E-14
 Difference densities >>NOT<< switched on in parallel ridft!

 DIIS switched on: error vector is FDS-SDF
 Max. Iterations for DIIS is     :   4
 DIIS matrix (see manual) 
    Scaling factor of diagonals  :  1.200
    threshold for scaling factor :  0.000

 scf convergence criterion : increment of total energy < .1000000D-08
                  and increment of one-electron energy < .1000000D-05

  MOs are in ASCII format !


 automatic virtual orbital shift switched on 
      shift if e(lumo)-e(homo) < 0.10000000    


 reading orbital data $scfmo  from file mos
 orbital characterization : expanded
 mo provided and orthogonalized by Cholesky decomposition

 DSCF restart information will be dumped onto file mos


 Starting SCF iterations

          Overall gridpoints after grid construction =         72635

 ITERATION  ENERGY          1e-ENERGY        2e-ENERGY     RMS[dD(SAO)]   TOL
   1  -247.09206788439    -733.04844241     279.67091110    0.000D+00 0.952D-13
                            Exc = -34.7904129686     Coul =  314.461324064    
                              N = 42.000015349    
                            current damping = 0.700
 
          max. resid. norm for Fia-block=  2.843D-01 for orbital     15a         
          max. resid. fock norm         =  1.084D+01 for orbital    286a         

 ITERATION  ENERGY          1e-ENERGY        2e-ENERGY     RMS[dD(SAO)]   TOL
   2  -247.86894469997    -739.37614000     285.22173187    0.358D-02 0.952D-13
                            Exc = -35.2619581802     Coul =  320.483690053    
                              N = 42.000017948    
                            current damping = 0.650
 
          Norm of current diis error:  1.9967    
          max. resid. norm for Fia-block=  1.315D-01 for orbital      1a         
          max. resid. fock norm         =  2.316D-01 for orbital    303a         

 ITERATION  ENERGY          1e-ENERGY        2e-ENERGY     RMS[dD(SAO)]   TOL
   3  -248.00076135480    -741.00360025     286.71737547    0.179D-02 0.952D-13
                            Exc = -35.4511360116     Coul =  322.168511477    
                              N = 42.000018225    
                            current damping = 0.550
 
          Norm of current diis error: 0.99628    
          max. resid. norm for Fia-block=  5.507D-02 for orbital     21a         
          max. resid. fock norm         =  6.051D-02 for orbital      7a         

 ITERATION  ENERGY          1e-ENERGY        2e-ENERGY     RMS[dD(SAO)]   TOL
   4  -248.04337370430    -741.61397782     287.28514069    0.128D-02 0.952D-13
                            Exc = -35.5039441494     Coul =  322.789084838    
                              N = 42.000023142    
                            current damping = 0.450
 
          Norm of current diis error: 0.40342    
          max. resid. norm for Fia-block=  2.740D-02 for orbital      7a         
          max. resid. fock norm         =  4.496D-02 for orbital    303a         

 ITERATION  ENERGY          1e-ENERGY        2e-ENERGY     RMS[dD(SAO)]   TOL
   5  -248.04898879417    -742.36121045     288.02675823    0.620D-03 0.952D-13
                            Exc = -35.5799729380     Coul =  323.606731164    
                              N = 42.000023191    
                            current damping = 0.350
 
          Norm of current diis error: 0.24071    
          max. resid. norm for Fia-block=  1.336D-02 for orbital     21a         
          max. resid. fock norm         =  1.415D-02 for orbital     21a         
          mo-orthogonalization: Cholesky decomposition

 ITERATION  ENERGY          1e-ENERGY        2e-ENERGY     RMS[dD(SAO)]   TOL
   6  -248.05151018426    -742.18559237     287.84861875    0.456D-03 0.952D-13
                            Exc = -35.5664792795     Coul =  323.415098031    
                              N = 42.000025542    
                            current damping = 0.400
 
          Norm of current diis error: 0.98565E-01
          max. resid. norm for Fia-block=  3.270D-03 for orbital     20a         
          max. resid. fock norm         =  7.579D-03 for orbital    303a         

 ITERATION  ENERGY          1e-ENERGY        2e-ENERGY     RMS[dD(SAO)]   TOL
   7  -248.05186281989    -742.23802493     287.90069867    0.111D-03 0.952D-13
                            Exc = -35.5715531109     Coul =  323.472251785    
                              N = 42.000025522    
                            current damping = 0.450
 
          Norm of current diis error: 0.39290E-01
          max. resid. norm for Fia-block=  1.488D-03 for orbital     13a         
          max. resid. fock norm         =  2.318D-03 for orbital    125a         

 ITERATION  ENERGY          1e-ENERGY        2e-ENERGY     RMS[dD(SAO)]   TOL
   8  -248.05191967738    -742.28020377     287.94282066    0.366D-04 0.952D-13
                            Exc = -35.5754827660     Coul =  323.518303428    
                              N = 42.000025460    
                            current damping = 0.300
 
          Norm of current diis error: 0.91102E-02
          max. resid. norm for Fia-block=  3.058D-04 for orbital     21a         
          max. resid. fock norm         =  4.096D-04 for orbital    170a         

 ITERATION  ENERGY          1e-ENERGY        2e-ENERGY     RMS[dD(SAO)]   TOL
   9  -248.05192316283    -742.28082927     287.94344268    0.116D-04 0.952D-13
                            Exc = -35.5755069939     Coul =  323.518949674    
                              N = 42.000025516    
                            current damping = 0.150
 
          Norm of current diis error: 0.16197E-02
          max. resid. norm for Fia-block=  8.617D-05 for orbital     20a         
          max. resid. fock norm         =  1.686D-04 for orbital    148a         

 ITERATION  ENERGY          1e-ENERGY        2e-ENERGY     RMS[dD(SAO)]   TOL
  10  -248.05192316654    -742.27492999     287.93754339    0.304D-05 0.952D-13
                            Exc = -35.5751452141     Coul =  323.512688607    
                              N = 42.000025522    
                            current damping = 0.200
 
          Norm of current diis error: 0.16345E-02
          max. resid. norm for Fia-block=  5.386D-05 for orbital     20a         
          max. resid. fock norm         =  7.072D-05 for orbital    301a         
          mo-orthogonalization: Cholesky decomposition

 ITERATION  ENERGY          1e-ENERGY        2e-ENERGY     RMS[dD(SAO)]   TOL
  11  -248.05192325359    -742.27765153     287.94026484    0.163D-05 0.952D-13
                            Exc = -35.5753206228     Coul =  323.515585465    
                              N = 42.000025521    
                            current damping = 0.250
 
          Norm of current diis error: 0.69964E-03
          max. resid. norm for Fia-block=  2.780D-05 for orbital     19a         
          max. resid. fock norm         =  4.710D-05 for orbital    303a         

 ITERATION  ENERGY          1e-ENERGY        2e-ENERGY     RMS[dD(SAO)]   TOL
  12  -248.05192326894    -742.27784291     287.94045621    0.974D-06 0.952D-13
                            Exc = -35.5753202349     Coul =  323.515776441    
                              N = 42.000025524    
                            current damping = 0.100
 
          Norm of current diis error: 0.36500E-03
          max. resid. norm for Fia-block=  1.220D-05 for orbital     19a         
          max. resid. fock norm         =  2.037D-05 for orbital    303a         

 ITERATION  ENERGY          1e-ENERGY        2e-ENERGY     RMS[dD(SAO)]   TOL
  13  -248.05192327391    -742.27813554     287.94074884    0.398D-06 0.952D-13
                            Exc = -35.5753497156     Coul =  323.516098554    
                              N = 42.000025522    
                            current damping = 0.050
 
          Norm of current diis error: 0.11867E-03
          max. resid. norm for Fia-block=  4.844D-06 for orbital     19a         
          max. resid. fock norm         =  6.632D-06 for orbital    303a         

 ITERATION  ENERGY          1e-ENERGY        2e-ENERGY     RMS[dD(SAO)]   TOL
  14  -248.05192327430    -742.27776922     287.94038251    0.168D-06 0.952D-13
                            Exc = -35.5753215442     Coul =  323.515704054    
                              N = 42.000025523    
                            current damping = 0.100
 
          Norm of current diis error: 0.69911E-04
          max. resid. norm for Fia-block=  2.044D-06 for orbital     19a         
          max. resid. fock norm         =  2.529D-06 for orbital     17a         

 DENSITY CONVERGED !


 ITERATION  ENERGY          1e-ENERGY        2e-ENERGY     RMS[dD(SAO)]   TOL
  15  -248.05192327449    -742.27789829     287.94051159    0.649D-07 0.952D-13
                            Exc = -35.5753309368     Coul =  323.515842523    
                              N = 42.000025523    
                            current damping = 0.150
 
          Norm of current diis error: 0.12438E-04
          max. resid. norm for Fia-block=  6.495D-07 for orbital     20a         
          max. resid. fock norm         =  9.325D-07 for orbital    305a         
          mo-orthogonalization: Cholesky decomposition

 DENSITY CONVERGED !


 ITERATION  ENERGY          1e-ENERGY        2e-ENERGY     RMS[dD(SAO)]   TOL
  16  -248.05192327449    -742.27791743     287.94053072    0.169D-07 0.952D-13
                            Exc = -35.5753321164     Coul =  323.515862839    
                              N = 42.000025523    
                            current damping = 0.050
 
          Norm of current diis error: 0.10835E-04
          max. resid. norm for Fia-block=  2.480D-07 for orbital     20a         
          max. resid. fock norm         =  3.141D-07 for orbital    301a         

 ENERGY & DENSITY CONVERGED !

          Overall gridpoints after grid construction =        221610

 ITERATION  ENERGY          1e-ENERGY        2e-ENERGY     RMS[dD(SAO)]   TOL
  17  -248.05190531661    -742.27790706     287.94053831    0.780D-08 0.952D-13
                            Exc = -35.5753137437     Coul =  323.515852055    
                              N = 42.000000179    
                            current damping = 0.100
 
          Norm of current diis error: 0.21954E-05
          max. resid. norm for Fia-block=  9.667D-08 for orbital     21a         
          max. resid. fock norm         =  1.260D-07 for orbital    302a         

 End of SCF iterations

   convergence criteria satisfied after    17 iterations


                  ------------------------------------------ 
                 |  total energy      =   -248.05190531661  |
                  ------------------------------------------ 
                 :  kinetic energy    =    246.49488984518  :
                 :  potential energy  =   -494.54679516179  :
                 :  virial theorem    =      1.99372302555  :
                 :  wavefunction norm =      1.00000000000  :
                  .......................................... 


 <geterg> : there is no data group $energy 


 <skperg> : $end is missing 


 orbitals $scfmo  will be written to file mos

    irrep                 17a         18a         19a         20a         21a   
 eigenvalues H         -0.36015    -0.32298    -0.26662    -0.24504    -0.21492
            eV          -9.8001     -8.7889     -7.2551     -6.6678     -5.8484
 occupation              2.0000      2.0000      2.0000      2.0000      2.0000 

    irrep                 22a         23a         24a         25a         26a   
 eigenvalues H         -0.06547    -0.05230     0.02068     0.05052     0.05873
            eV          -1.7815     -1.4231      0.5626      1.3748      1.5980
 
 
 
 
 ==============================================================================
                           electrostatic moments
 ==============================================================================

 reference point for electrostatic moments:    0.00000   0.00000   0.00000

 
              nuc           elec       ->  total
 ------------------------------------------------------------------------------
                          charge      
 ------------------------------------------------------------------------------
          42.000000     -42.000000      -0.000000
 
 ------------------------------------------------------------------------------
                       dipole moment  
 ------------------------------------------------------------------------------
   x     299.924625    -299.049496       0.875129
   y       2.292859      -2.333845      -0.040986
   z       0.005343      -0.005399      -0.000057
 
   | dipole moment | =     0.8761 a.u. =     2.2268 debye 
 
 ------------------------------------------------------------------------------
                     quadrupole moment
 ------------------------------------------------------------------------------
  xx    2317.734310   -2332.426698     -14.692387
  yy       0.514737     -28.389804     -27.875066
  zz     180.510093    -202.521262     -22.011169
  xy       8.095936      -8.386272      -0.290336
  xz       0.038916      -0.038872       0.000044
  yz       0.004945      -0.004883       0.000062
 
     1/3  trace=     -21.526208
     anisotropy=      11.450735
 
 ==============================================================================
 


    ------------------------------------------------------------------------
         total  cpu-time :  2 minutes and 16 seconds
         total wall-time :  14.39 seconds
    ------------------------------------------------------------------------

   ****  ridft : all done  ****


    2018-04-28 20:54:47.211 

