           Doing BLAS/Lapack in the master proc. with  8 CPUs.
           SMPCPUS    set: Shared-memory Parallelization with   8 CPUs.

           SMP Parallelization Reference:
           C. van Wullen, J. Comput. Chem. 32 (2011) 1195--1201
 operating system is UNIX !

 ridft (c-18-211.gp.local) : TURBOMOLE V7.2 ( 21454 ) 4 Oct 2017 at 12:48:15
 Copyright (C) 2017 TURBOMOLE GmbH, Karlsruhe


    2018-04-28 20:59:16.880 



                                  r i d f t

                        DFT program with RI approximation 
                                for coulomb part 




                                                 
                                 References:     
                                                 
          TURBOMOLE:                             
              R. Ahlrichs, M. Baer, M. Haeser, H. Horn, and
              C. Koelmel
              Electronic structure calculations on workstation
              computers: the program system TURBOMOLE
              Chem. Phys. Lett. 162: 165 (1989)
          Density Functional:                              
              O. Treutler and R. Ahlrichs                      
              Efficient Molecular Numerical Integration Schemes
              J. Chem. Phys. 102: 346 (1995)                   
          Parallel Version:                                
              Performance of parallel TURBOMOLE for Density    
              Functional Calculations                          
              M. v. Arnim and R. Ahlrichs                      
              J. Comp. Chem. 19: 1746 (1998)                   
          RI-J Method:                                     
              Auxiliary Basis Sets to approximate Coulomb      
              Potentials                                       
              Chem. Phys. Lett. 240: 283 (1995)                
              K. Eichkorn, O. Treutler, H. Oehm, M. Haeser     
              and R. Ahlrichs                                  
              Chem. Phys. Lett. 242: 652 (1995)                
                                                           
              Auxiliary Basis Sets for Main Row Atoms and their
              Use to approximate Coulomb Potentials            
              K. Eichkorn, F. Weigend, O. Treutler and         
              R. Ahlrichs                                      
              Theo. Chem. Acc. 97: 119 (1997)                   
                                                           
              Accurate Coulomb-fitting basis sets for H to Rn 
              F. Weigend                                        
              Phys. Chem. Chem. Phys. 8: 1057 (2006)            
                                                           
          Multipole accelerated RI-J (MARI-J):             
              Fast evaluation of the Coulomb potential for     
              electron densities using multipole accelerated   
              resolution of identity approximation             
              M. Sierka, A. Hogekamp and R. Ahlrichs           
              J. Chem. Phys. 118: 9136 (2003)                  
          RI-JK Method:                                     
              A fully direct RI-HF algorithm: Implementation,
              optimised auxiliary basis sets, demonstration of
              accuracy and efficiency                         
              F. Weigend                                      
              Phys. Chem. Chem. Phys. 4: 4285 (2002)           
          Two-component HF and DFT with spin-orbit coupling:  
              Self-consistent treatment of spin-orbit         
              interactions with efficient Hartree-Fock and    
              density functional methods                      
              M. K. Armbruster, F. Weigend, C. van Wüllen and 
              W. Klopper                                      
              Phys. Chem. Chem. Phys. 10: 1748 (2008)         
          Relativistic all-electron 2c calculations           
              An efficient implementation of two-component    
              relativistic exact-decoupling methods for large 
              molecules                                       
              D. Peng, N. Middendorf, F. Weigend, M. Reiher   
              J. Chem. Phys. 138, 184105 (2013)               
                                         




              +--------------------------------------------------+
              |      general information about current run       |
              +--------------------------------------------------+

 

 DENSITY CONVERGENCE CHECK SWITCHED ON !
 SCF CONVERGENCE IF RMS(delta[D]) <     0.1000000000E-06

 PBE functional
 exchange:    LDA + PBE
 correlation: LDA (PW) + PBE
 A DFT calculation using the RI-J approximation will be carried out.
 Allocatable memory for RI due to $ricore (MB):                  5000


              +--------------------------------------------------+
              | Atomic coordinate, charge and isotop information |
              +--------------------------------------------------+

                    atomic coordinates            atom    charge  isotop
         -0.08646646    0.97887259    7.13601528    c      6.000     0
         -0.09569128    2.38137783    8.62111811    h      1.000     0
         -1.31201575    1.29590937    5.53223577    h      1.000     0
          1.36580754   -1.07518777    7.26793633    c      6.000     0
          2.58525720   -1.39989118    8.87444517    h      1.000     0
          1.35614729   -2.46451467    5.77068878    h      1.000     0
 
       center of nuclear mass  :    0.63877286   -0.04795956    7.20163751
       center of nuclear charge:    0.63810900   -0.04781311    7.20138734

              +--------------------------------------------------+
              |               basis set information              |
              +--------------------------------------------------+

              we will work with the 1s 3p 5d 7f 9g ... basis set
              ...i.e. with spherical basis functions...

   type   atoms  prim   cont   basis
   ---------------------------------------------------------------------------
    c        2     77     55   cc-pVQZ   [5s4p3d2f1g|21s6p3d2f1g]
    h        4     32     30   cc-pVQZ   [4s3p2d1f|6s3p2d1f]
   ---------------------------------------------------------------------------
   total:    6    282    230
   ---------------------------------------------------------------------------

   total number of primitive shells          :   45
   total number of contracted shells         :   70
   total number of cartesian basis functions :  280
   total number of SCF-basis functions       :  230


 integral neglect threshold       :  0.12E-12
 integral storage threshold THIZE :  0.10E-04
 integral storage threshold THIME :         5

 RI-J AUXILIARY BASIS SET information:

              we will work with the 1s 3p 5d 7f 9g ... basis set
              ...i.e. with spherical basis functions...

   type   atoms  prim   cont   basis
   ---------------------------------------------------------------------------
    c        2     70     49   cc-pVQZ   [6s4p3d1f1g|12s5p4d2f1g]
    h        4     16     11   cc-pVQZ   [3s1p1d|5s2p1d]
   ---------------------------------------------------------------------------
   total:    6    204    142
   ---------------------------------------------------------------------------

   total number of primitive shells          :   32
   total number of contracted shells         :   50
   total number of cartesian basis functions :  170
   total number of SCF-basis functions       :  142


 symmetry group of the molecule :   c1 

 the group has the following generators :
   c1(z)

    1 symmetry operations found

 there are 1 real representations :   a   

 maximum number of shells which are related by symmetry :  1


    mo occupation :
   irrep   mo's   occupied
    a      230        8
 
 number of basis functions   :                    230
 number of occupied orbitals :                      8
 
  
           ------------------
           density functional
           ------------------
 PBE functional
 exchange:    LDA + PBE
 correlation: LDA (PW) + PBE

 iterations will be done with small grid
  
 spherical integration : Lebedev's spherical grid
 spherical gridsize    :                     5
    i.e. gridpoints    :                   590
 value for diffuse not defined
 radial integration    : Chebyshev 2nd kind (scaling 3)
 radial gridsize       :                     8
 integration cells     :                     6
 partition function    : becke
 partition sharpness   :                     3
  

 biggest AO integral is expected to be     3.537514283
  
           ------------------------
               RI-J - INFORMATION
           ------------------------
 Contributions to RI integral batches: 
  neglected integral batches:                    28
  direct contribution:                            0
  memory contribution:                  2457
 Memory core needed for (P|Q) and Cholesky      1 MByte
 Memory core minimum needed except of (P|Q)     1 MByte
 Total minimum memory core needed (sum)         1 MByte
  
 ****************************************
 Memory allocated for RI-J    52 MByte
 ****************************************
                                            

          ------------------------
          nuclear repulsion energy  :   33.4189513800    
          ------------------------


         -----------------
         -S,T+V- integrals
         -----------------

 1e-integrals will be neglected if expon. factor < 0.119356E-13
 Difference densities >>NOT<< switched on in parallel ridft!

 DIIS switched on: error vector is FDS-SDF
 Max. Iterations for DIIS is     :   4
 DIIS matrix (see manual) 
    Scaling factor of diagonals  :  1.200
    threshold for scaling factor :  0.000

 scf convergence criterion : increment of total energy < .1000000D-08
                  and increment of one-electron energy < .1000000D-05

  MOs are in ASCII format !


 automatic virtual orbital shift switched on 
      shift if e(lumo)-e(homo) < 0.10000000    


 reading orbital data $scfmo  from file mos
 orbital characterization : expanded
 mo provided and orthogonalized by Cholesky decomposition

 DSCF restart information will be dumped onto file mos


 Starting SCF iterations

          Overall gridpoints after grid construction =         27227

 ITERATION  ENERGY          1e-ENERGY        2e-ENERGY     RMS[dD(SAO)]   TOL
   1  -78.200146786544    -167.13641556     55.517317389    0.000D+00 0.119D-12
                            Exc = -11.7190250547     Coul =  67.2363424437    
                              N = 16.000005249    
                            current damping = 0.700
 
          max. resid. norm for Fia-block=  2.509D-01 for orbital      1a         
          max. resid. fock norm         =  7.419D+00 for orbital    189a         

 ITERATION  ENERGY          1e-ENERGY        2e-ENERGY     RMS[dD(SAO)]   TOL
   2  -78.441866193753    -169.38731718     57.526499602    0.336D-02 0.119D-12
                            Exc = -12.0066370482     Coul =  69.5331366498    
                              N = 16.000003005    
                            current damping = 0.650
 
          Norm of current diis error:  1.5734    
          max. resid. norm for Fia-block=  1.082D-01 for orbital      1a         
          max. resid. fock norm         =  1.190D-01 for orbital      2a         

 ITERATION  ENERGY          1e-ENERGY        2e-ENERGY     RMS[dD(SAO)]   TOL
   3  -78.489454094233    -169.89125256     57.982847088    0.155D-02 0.119D-12
                            Exc = -12.0936293443     Coul =  70.0764764326    
                              N = 16.000001120    
                            current damping = 0.500
 
          Norm of current diis error: 0.72270    
          max. resid. norm for Fia-block=  4.418D-02 for orbital      1a         
          max. resid. fock norm         =  5.089D-02 for orbital      3a         

 ITERATION  ENERGY          1e-ENERGY        2e-ENERGY     RMS[dD(SAO)]   TOL
   4  -78.503275741993    -170.31548452     58.393257394    0.797D-03 0.119D-12
                            Exc = -12.1577729828     Coul =  70.5510303764    
                              N = 16.000000139    
                            current damping = 0.350
 
          Norm of current diis error: 0.24439    
          max. resid. norm for Fia-block=  1.570D-02 for orbital      3a         
          max. resid. fock norm         =  1.792D-02 for orbital      3a         

 ITERATION  ENERGY          1e-ENERGY        2e-ENERGY     RMS[dD(SAO)]   TOL
   5  -78.505275497166    -170.39699406     58.472767180    0.322D-03 0.119D-12
                            Exc = -12.1750126020     Coul =  70.6477797825    
                              N = 15.999999674    
                            current damping = 0.200
 
          Norm of current diis error: 0.73130E-01
          max. resid. norm for Fia-block=  4.271D-03 for orbital      5a         
          max. resid. fock norm         =  4.860D-03 for orbital      3a         
          mo-orthogonalization: Cholesky decomposition

 ITERATION  ENERGY          1e-ENERGY        2e-ENERGY     RMS[dD(SAO)]   TOL
   6  -78.505470441726    -170.47520862     58.550786797    0.110D-03 0.119D-12
                            Exc = -12.1854388900     Coul =  70.7362256870    
                              N = 15.999999579    
                            current damping = 0.050
 
          Norm of current diis error: 0.18602E-01
          max. resid. norm for Fia-block=  1.142D-03 for orbital      8a         
          max. resid. fock norm         =  1.617D-03 for orbital     37a         

 ITERATION  ENERGY          1e-ENERGY        2e-ENERGY     RMS[dD(SAO)]   TOL
   7  -78.505476699369    -170.44595895     58.521530871    0.268D-04 0.119D-12
                            Exc = -12.1830085761     Coul =  70.7045394475    
                              N = 15.999999521    
                            current damping = 0.100
 
          Norm of current diis error: 0.12193E-01
          max. resid. norm for Fia-block=  3.894D-04 for orbital      5a         
          max. resid. fock norm         =  4.943D-04 for orbital      6a         

 ITERATION  ENERGY          1e-ENERGY        2e-ENERGY     RMS[dD(SAO)]   TOL
   8  -78.505480066301    -170.46073600     58.536304558    0.978D-05 0.119D-12
                            Exc = -12.1845033129     Coul =  70.7208078707    
                              N = 15.999999533    
                            current damping = 0.150
 
          Norm of current diis error: 0.35714E-03
          max. resid. norm for Fia-block=  2.730D-05 for orbital      8a         
          max. resid. fock norm         =  5.389D-05 for orbital      1a         

 ITERATION  ENERGY          1e-ENERGY        2e-ENERGY     RMS[dD(SAO)]   TOL
   9  -78.505480059551    -170.46050576     58.536074323    0.604D-06 0.119D-12
                            Exc = -12.1844777093     Coul =  70.7205520320    
                              N = 15.999999533    
                            current damping = 0.200
 
          Norm of current diis error: 0.65306E-03
          max. resid. norm for Fia-block=  1.413D-05 for orbital      8a         
          max. resid. fock norm         =  2.994D-05 for orbital      2a         

 ITERATION  ENERGY          1e-ENERGY        2e-ENERGY     RMS[dD(SAO)]   TOL
  10  -78.505480068792    -170.46047507     58.536043618    0.291D-06 0.119D-12
                            Exc = -12.1844745294     Coul =  70.7205181472    
                              N = 15.999999533    
                            current damping = 0.050
 
          Norm of current diis error: 0.15386E-03
          max. resid. norm for Fia-block=  4.530D-06 for orbital      8a         
          max. resid. fock norm         =  9.452D-06 for orbital      1a         
          mo-orthogonalization: Cholesky decomposition

 ITERATION  ENERGY          1e-ENERGY        2e-ENERGY     RMS[dD(SAO)]   TOL
  11  -78.505480069314    -170.46050398     58.536072528    0.108D-06 0.119D-12
                            Exc = -12.1844783861     Coul =  70.7205509140    
                              N = 15.999999533    
                            current damping = 0.100
 
          Norm of current diis error: 0.30491E-04
          max. resid. norm for Fia-block=  9.053D-07 for orbital      8a         
          max. resid. fock norm         =  1.827D-06 for orbital      1a         

 ENERGY & DENSITY CONVERGED !

          Overall gridpoints after grid construction =         91274

 ITERATION  ENERGY          1e-ENERGY        2e-ENERGY     RMS[dD(SAO)]   TOL
  12  -78.505481384916    -170.46051502     58.536082254    0.216D-07 0.119D-12
                            Exc = -12.1844807793     Coul =  70.7205630332    
                              N = 16.000000469    
                            current damping = 0.050
 
          Norm of current diis error: 0.65723E-05
          max. resid. norm for Fia-block=  2.894D-07 for orbital      6a         
          max. resid. fock norm         =  3.758D-07 for orbital     37a         

 End of SCF iterations

   convergence criteria satisfied after    12 iterations


                  ------------------------------------------ 
                 |  total energy      =    -78.50548138492  |
                  ------------------------------------------ 
                 :  kinetic energy    =     78.13439397874  :
                 :  potential energy  =   -156.63987536366  :
                 :  virial theorem    =      1.99527310196  :
                 :  wavefunction norm =      1.00000000000  :
                  .......................................... 


 <geterg> : there is no data group $energy 


 <skperg> : $end is missing 


 orbitals $scfmo  will be written to file mos

    irrep                  4a          5a          6a          7a          8a   
 eigenvalues H         -0.52291    -0.42372    -0.37184    -0.31453    -0.24739
            eV         -14.2292    -11.5302    -10.1183     -8.5589     -6.7319
 occupation              2.0000      2.0000      2.0000      2.0000      2.0000 

    irrep                  9a         10a         11a         12a         13a   
 eigenvalues H         -0.03637     0.02622     0.05276     0.05442     0.11396
            eV          -0.9897      0.7134      1.4357      1.4808      3.1011
 
 
 
 
 ==============================================================================
                           electrostatic moments
 ==============================================================================

 reference point for electrostatic moments:    0.00000   0.00000   0.00000

 
              nuc           elec       ->  total
 ------------------------------------------------------------------------------
                          charge      
 ------------------------------------------------------------------------------
          16.000000     -16.000000       0.000000
 
 ------------------------------------------------------------------------------
                       dipole moment  
 ------------------------------------------------------------------------------
   x      10.209744     -10.211623      -0.001879
   y      -0.765010       0.765027       0.000018
   z     115.222197    -115.221688       0.000509
 
   | dipole moment | =     0.0019 a.u. =     0.0049 debye 
 
 ------------------------------------------------------------------------------
                     quadrupole moment
 ------------------------------------------------------------------------------
  xx      21.490673     -32.014377     -10.523704
  yy      28.069191     -37.895642      -9.826451
  zz     839.459611    -849.157196      -9.697585
  xy     -18.208290      17.383300      -0.824989
  xz      78.542739     -77.751227       0.791511
  yz      -3.920668       4.473988       0.553320
 
     1/3  trace=     -10.015913
     anisotropy=       2.330751
 
 ==============================================================================
 


    ------------------------------------------------------------------------
         total  cpu-time :  49.35 seconds
         total wall-time :   4.62 seconds
    ------------------------------------------------------------------------

   ****  ridft : all done  ****


    2018-04-28 20:59:21.481 

