Using Slurm to start processes with PMI2
STARTING ridft ON 8 PROCESSORS!
RUNNING PROGRAM /beegfs/modfac/apps/TURBOMOLE/7.0_intel_GA/bin/em64t-unknown-linux-gnu_mpi/ridft_mpi.
PLEASE WAIT UNTIL ridft HAS FINISHED.
Look for the output in slave1.output.
  this is node-proc. number 1 running on node c-7-12.local
  the total number of node-proc. spawned is            8
  parallel platform: MPP, or cluster with fast interconnect

 ridft (c-7-12.local) : TURBOMOLE V7.0.2( ) 15 Jan 2016 at 17:47:42
 Copyright (C) 2016 TURBOMOLE GmbH, Karlsruhe


    2018-02-01 18:23:20.940 



                                  r i d f t

                        DFT program with RI approximation 
                                for coulomb part 




                                                 
                                 References:     
                                                 
          TURBOMOLE:                             
              R. Ahlrichs, M. Baer, M. Haeser, H. Horn, and
              C. Koelmel
              Electronic structure calculations on workstation
              computers: the program system TURBOMOLE
              Chem. Phys. Lett. 162: 165 (1989)
          Density Functional:                              
              O. Treutler and R. Ahlrichs                      
              Efficient Molecular Numerical Integration Schemes
              J. Chem. Phys. 102: 346 (1995)                   
          Parallel Version:                                
              Performance of parallel TURBOMOLE for Density    
              Functional Calculations                          
              M. v. Arnim and R. Ahlrichs                      
              J. Comp. Chem. 19: 1746 (1998)                   
          RI-J Method:                                     
              Auxiliary Basis Sets to approximate Coulomb      
              Potentials                                       
              Chem. Phys. Lett. 240: 283 (1995)                
              K. Eichkorn, O. Treutler, H. Oehm, M. Haeser     
              and R. Ahlrichs                                  
              Chem. Phys. Lett. 242: 652 (1995)                
                                                           
              Auxiliary Basis Sets for Main Row Atoms and their
              Use to approximate Coulomb Potentials            
              K. Eichkorn, F. Weigend, O. Treutler and         
              R. Ahlrichs                                      
              Theo. Chem. Acc. 97: 119 (1997)                   
                                                           
              Accurate Coulomb-fitting basis sets for H to Rn 
              F. Weigend                                        
              Phys. Chem. Chem. Phys. 8: 1057 (2006)            
                                                           
          Multipole accelerated RI-J (MARI-J):             
              Fast evaluation of the Coulomb potential for     
              electron densities using multipole accelerated   
              resolution of identity approximation             
              M. Sierka, A. Hogekamp and R. Ahlrichs           
              J. Chem. Phys. 118: 9136 (2003)                  
          RI-JK Method:                                     
              A fully direct RI-HF algorithm: Implementation,
              optimised auxiliary basis sets, demonstration of
              accuracy and efficiency                         
              F. Weigend                                      
              Phys. Chem. Chem. Phys. 4: 4285 (2002)           
          Two-component HF and DFT with spin-orbit coupling:  
              Self-consistent treatment of spin-orbit         
              interactions with efficient Hartree-Fock and    
              density functional methods                      
              M. K. Armbruster, F. Weigend, C. van Wüllen and 
              W. Klopper                                      
              Phys. Chem. Chem. Phys. 10: 1748 (2008)         
          Relativistic all-electron 2c calculations           
              An efficient implementation of two-component    
              relativistic exact-decoupling methods for large 
              molecules                                       
              D. Peng, N. Middendorf, F. Weigend, M. Reiher   
              J. Chem. Phys. 138, 184105 (2013)               
                                         


 


              +--------------------------------------------------+
              |      general information about current run       |
              +--------------------------------------------------+

 

 SCF run will be profiled !


 DENSITY CONVERGENCE CHECK SWITCHED ON !
 SCF CONVERGENCE IF RMS(delta[D]) <     0.1000000000E-06

 TPSS meta-GGA functional
 exchange:    LDA + TPSS
 correlation: LDA (PW) + TPSS
 A DFT calculation using the RI-J approximation will be carried out.
 Allocatable memory for RI due to $ricore (MB):        5000


              +--------------------------------------------------+
              | Atomic coordinate, charge and isotop information |
              +--------------------------------------------------+

                    atomic coordinates            atom    charge  isotop
         -2.86614385    0.50730076    0.00000000    c      6.000     0
         -2.35868435   -4.10118003    0.00000000    c      6.000     0
         -6.22007703   -2.54675178    0.00000000    c      6.000     0
         -5.50322076   -0.05275926    0.00000000    c      6.000     0
         -9.48081459    0.00062550    0.00000000    c      6.000     0
         -1.43115007   -1.70294749    0.00000000    n      7.000     0
         -4.76389754   -4.62925266    0.00000000    n      7.000     0
         -7.59671039    1.50604370    0.00000000    n      7.000     0
         -8.77716940   -2.50497750    0.00000000    n      7.000     0
         -0.65378855   -5.96273979    0.00000000    n      7.000     0
         -1.81438653    2.53911162    0.00000000    o      8.000     0
          0.45590021   -1.44738660    0.00000000    h      1.000     0
        -11.42969860    0.54723256    0.00000000    h      1.000     0
         -9.89513516   -4.01115348    0.00000000    h      1.000     0
         -1.30933455   -7.71737697    0.00000000    h      1.000     0
          1.21098753   -5.64747111    0.00000000    h      1.000     0
          5.71905583   -2.73330933    0.00000000    c      6.000     0
          9.34454077    0.00005480    0.00000000    c      6.000     0
          7.87541665    2.05488631    0.00000000    c      6.000     0
          5.17778724    1.61591426    0.00000000    c      6.000     0
          8.31202654   -2.33919749    0.00000000    n      7.000     0
          4.21541208   -0.67433743    0.00000000    n      7.000     0
          3.60926731    3.56229061    0.00000000    n      7.000     0
          4.94584793   -4.88457923    0.00000000    o      8.000     0
          9.37925504   -3.88610085    0.00000000    h      1.000     0
         11.37159519    0.09310681    0.00000000    h      1.000     0
          8.64799150    3.92634068    0.00000000    h      1.000     0
          4.26422182    5.31735297    0.00000000    h      1.000     0
          1.72740244    3.27472720    0.00000000    h      1.000     0
 
       center of nuclear mass  :   -0.05467987   -1.10127937    0.00000000
       center of nuclear charge:   -0.00000025   -1.09604124    0.00000000

              +--------------------------------------------------+
              |               basis set information              |
              +--------------------------------------------------+

              we will work with the 1s 3p 5d 7f 9g ... basis set
              ...i.e. with spherical basis functions...

   type   atoms  prim   cont   basis
   ---------------------------------------------------------------------------
    c        9     50     30   cc-pVTZ   [4s3p2d1f|18s5p2d1f]
    n        8     50     30   cc-pVTZ   [4s3p2d1f|18s5p2d1f]
    o        2     50     30   cc-pVTZ   [4s3p2d1f|18s5p2d1f]
    h       10     16     14   cc-pVTZ   [3s2p1d|5s2p1d]
   ---------------------------------------------------------------------------
   total:   29   1110    710
   ---------------------------------------------------------------------------

   total number of primitive shells          :   86
   total number of contracted shells         :  250
   total number of cartesian basis functions :  815
   total number of SCF-basis functions       :  710


 integral neglect threshold       :  0.41E-13
 integral storage threshold THIZE :  0.10E-04
 integral storage threshold THIME :         5

 RI-J AUXILIARY BASIS SET information:

              we will work with the 1s 3p 5d 7f 9g ... basis set
              ...i.e. with spherical basis functions...

   type   atoms  prim   cont   basis
   ---------------------------------------------------------------------------
    c        9     70     49   cc-pVTZ   [6s4p3d1f1g|12s5p4d2f1g]
    n        8     70     49   cc-pVTZ   [6s4p3d1f1g|12s5p4d2f1g]
    o        2     70     49   cc-pVTZ   [6s4p3d1f1g|12s5p4d2f1g]
    h       10     16     11   cc-pVTZ   [3s1p1d|5s2p1d]
   ---------------------------------------------------------------------------
   total:   29   1490   1041
   ---------------------------------------------------------------------------

   total number of primitive shells          :   80
   total number of contracted shells         :  335
   total number of cartesian basis functions : 1279
   total number of SCF-basis functions       : 1041


 symmetry group of the molecule :   c1 

 the group has the following generators :
   c1(z)

    1 symmetry operations found

 there are 1 real representations :   a   

 maximum number of shells which are related by symmetry :  1


    mo occupation :
   irrep   mo's   occupied
    a      710       68
 
 number of basis functions   :          710
 number of occupied orbitals :           68
 
  
           ------------------
           density functional
           ------------------
 TPSS meta-GGA functional
 exchange:    LDA + TPSS
 correlation: LDA (PW) + TPSS
 grinp -> nfun, dfgga, dfhybrid 
           5 F F
 iterations will be done with small grid
  
 spherical integration : Lebedev's spherical grid
 spherical gridsize    :           5
    i.e. gridpoints    :         590
 value for diffuse not defined
 radial integration    : Chebyshev 2nd kind (scaling 3)
 radial gridsize       :           8
 integration cells     :          29
 partition function    : becke
 partition sharpness   :           3
  

 <rddim> : input of entry tasksize
           from data group '$pardft' failed !

               Default values taken

 <rddim> : input of entry memdiv
           from data group '$pardft' failed !

               Default values taken
  RIDFT: memory allocation for DFT gridpoints
  MEMORY is divided by 1 as DEFAULT
 Each node can hold at most  the            1 -th part
 of the gridpoints    

 biggest AO integral is expected to be     4.866064444
  
           ------------------------
               RI-J - INFORMATION
           ------------------------
 
 
 **************************************************
 *      MEMORY ALLOCATION FOR PARALLEL RI-DFT     *
 **************************************************
 
 
MEMORY FOR (MU NU/ ALPHA), SEQUENTIAL RUN               4992 MByte
 
            DIFFERENCE IN MEMORY NEED:       DIAG./SLAVE  
 
      TOTAL DIFFERENCE :                     29 MByte
 
      difference in xcore:                    9 MByte
      difference in fatmat:                   8 MByte
      getcor calls skipped by slaves:        13 MByte
 
 
           Integral memory available for diagonal.      4992 MByte
 
           Integral memory available for slave             0 MByte
 
         MEMORY FOR (MU NU/ ALPHA) ON DIAGONALIZER      4992 MByte
 
         MEMORY FOR (MU NU/ ALPHA) ON ONE SLAVE            0 MByte
 
         TOTAL MEMORY FOR (MU NU/ ALPHA),ALL NODES      4992 MByte
 
 Contributions to RI integral batches: 
  neglected integral batches:       11027
  direct contribution:                  0
  memory contribution:       20348
 Memory core needed for (P|Q) and Cholesky      9 MByte
 Memory core minimum needed except of (P|Q)     2 MByte
 Total minimum memory core needed (sum)        11 MByte
  
 ****************************************
 Memory allocated for RI-J  5002 MByte
 ****************************************
                                            

          ------------------------
          nuclear repulsion energy  :   1391.97690407    
          ------------------------

 
          -----------------
          -S integrals
          -----------------

 1e-integrals will be neglected if expon. factor < 0.410057E-14
 
          -----------------
          -T+V integrals
          -----------------

 1e-integrals will be neglected if expon. factor < 0.410057E-14
 Difference densities >>NOT<< switched on in parallel ridft!

 automatic virtual orbital shift switched on 
      shift if e(lumo)-e(homo) < 0.10000000    


 DIIS switched on: error vector is FDS-SDF
 Max. Iterations for DIIS is     :   4
 DIIS matrix (see manual) 
    Scaling factor of diagonals  :  1.200
    threshold for scaling factor :  0.000

 scf convergence criterion : increment of total energy < .1000000D-08
                  and increment of one-electron energy < .1000000D-05


 <geterg> : there is no data group $energy 

  MOs are in ASCII format !


 reading orbital data $scfmo  from file mos . 

 orbital characterization : expanded
 
 mo provided and orthogonalized by Cholesky decomposition

 DSCF restart information will be dumped onto file mos


 Starting SCF iterations


 ITERATION  ENERGY          1e-ENERGY        2e-ENERGY     RMS[dD(SAO)]   TOL
   1  -934.04021017152    -4020.1350320     1694.1179178    0.000D+00 0.409D-13
                            Exc = -124.911852634     Coul =  1819.02977041    
                              N = 135.99983112    
                            current damping = 0.700
 
          max. resid. norm for Fia-block=  3.615D-01 for orbital     57a         
          max. resid. fock norm         =  4.730D+00 for orbital    677a         

 ITERATION  ENERGY          1e-ENERGY        2e-ENERGY     RMS[dD(SAO)]   TOL
   2  -937.34335628057    -4035.0098381     1705.6895777    0.329D-02 0.409D-13
                            Exc = -125.126428960     Coul =  1830.81600669    
                              N = 135.99985221    
                            current damping = 0.650
 
          Norm of current diis error:  3.7280    
          max. resid. norm for Fia-block=  1.627D-01 for orbital      2a         
          max. resid. fock norm         =  3.201D-01 for orbital    696a         

 ITERATION  ENERGY          1e-ENERGY        2e-ENERGY     RMS[dD(SAO)]   TOL
   3  -937.83208823570    -4039.8661579     1710.0571656    0.181D-02 0.409D-13
                            Exc = -125.644586793     Coul =  1835.70175235    
                              N = 135.99986806    
                            current damping = 0.550
 
          Norm of current diis error:  1.7927    
          max. resid. norm for Fia-block=  6.405D-02 for orbital      2a         
          max. resid. fock norm         =  6.881D-02 for orbital    693a         

 ITERATION  ENERGY          1e-ENERGY        2e-ENERGY     RMS[dD(SAO)]   TOL
   4  -937.97705629686    -4040.6704878     1710.7165275    0.146D-02 0.409D-13
                            Exc = -125.592546183     Coul =  1836.30907366    
                              N = 135.99987241    
                            current damping = 0.450
 
          Norm of current diis error: 0.75081    
          max. resid. norm for Fia-block=  3.594D-02 for orbital     57a         
          max. resid. fock norm         =  7.158D-02 for orbital    669a         

 ITERATION  ENERGY          1e-ENERGY        2e-ENERGY     RMS[dD(SAO)]   TOL
   5  -937.99677305281    -4041.6279997     1711.6543226    0.595D-03 0.409D-13
                            Exc = -125.763478372     Coul =  1837.41780098    
                              N = 135.99987710    
                            current damping = 0.350
 
          Norm of current diis error: 0.47633    
          max. resid. norm for Fia-block=  1.861D-02 for orbital     66a         
          max. resid. fock norm         =  2.324D-02 for orbital     66a         
          mo-orthogonalization: Cholesky decomposition

 ITERATION  ENERGY          1e-ENERGY        2e-ENERGY     RMS[dD(SAO)]   TOL
   6  -938.00725182278    -4042.1005782     1712.1164224    0.462D-03 0.409D-13
                            Exc = -125.749155287     Coul =  1837.86557764    
                              N = 135.99987874    
                            current damping = 0.200
 
          Norm of current diis error: 0.14854    
          max. resid. norm for Fia-block=  5.373D-03 for orbital     59a         
          max. resid. fock norm         =  1.010D-02 for orbital    669a         

 ITERATION  ENERGY          1e-ENERGY        2e-ENERGY     RMS[dD(SAO)]   TOL
   7  -938.00762875475    -4041.7054074     1711.7208746    0.182D-03 0.409D-13
                            Exc = -125.733714063     Coul =  1837.45458866    
                              N = 135.99987791    
                            current damping = 0.250
 
          Norm of current diis error: 0.12736    
          max. resid. norm for Fia-block=  2.848D-03 for orbital     68a         
          max. resid. fock norm         =  5.021D-03 for orbital    699a         

 ITERATION  ENERGY          1e-ENERGY        2e-ENERGY     RMS[dD(SAO)]   TOL
   8  -938.00836558923    -4041.8386377     1711.8533681    0.747D-04 0.409D-13
                            Exc = -125.741318285     Coul =  1837.59468636    
                              N = 135.99987863    
                            current damping = 0.300
 
          Norm of current diis error: 0.26659E-01
          max. resid. norm for Fia-block=  1.038D-03 for orbital     63a         
          max. resid. fock norm         =  1.776D-03 for orbital    700a         

 ITERATION  ENERGY          1e-ENERGY        2e-ENERGY     RMS[dD(SAO)]   TOL
   9  -938.00837102516    -4041.9485974     1711.9633223    0.221D-04 0.409D-13
                            Exc = -125.749853337     Coul =  1837.71317565    
                              N = 135.99987865    
                            current damping = 0.150
 
          Norm of current diis error: 0.23437E-01
          max. resid. norm for Fia-block=  5.666D-04 for orbital     67a         
          max. resid. fock norm         =  9.817D-04 for orbital    675a         

 ITERATION  ENERGY          1e-ENERGY        2e-ENERGY     RMS[dD(SAO)]   TOL
  10  -938.00839001270    -4041.9177861     1711.9324920    0.176D-04 0.409D-13
                            Exc = -125.746555329     Coul =  1837.67904730    
                              N = 135.99987865    
                            current damping = 0.200
 
          Norm of current diis error: 0.12199E-01
          max. resid. norm for Fia-block=  2.667D-04 for orbital     54a         
          max. resid. fock norm         =  4.352D-04 for orbital    702a         
          mo-orthogonalization: Cholesky decomposition

 ITERATION  ENERGY          1e-ENERGY        2e-ENERGY     RMS[dD(SAO)]   TOL
  11  -938.00839620687    -4041.9088947     1711.9235944    0.607D-05 0.409D-13
                            Exc = -125.746222891     Coul =  1837.66981729    
                              N = 135.99987865    
                            current damping = 0.050
 
          Norm of current diis error: 0.25576E-02
          max. resid. norm for Fia-block=  8.992D-05 for orbital     68a         
          max. resid. fock norm         =  1.470D-04 for orbital    697a         

 ITERATION  ENERGY          1e-ENERGY        2e-ENERGY     RMS[dD(SAO)]   TOL
  12  -938.00839607421    -4041.9038886     1711.9185885    0.206D-05 0.409D-13
                            Exc = -125.746223964     Coul =  1837.66481244    
                              N = 135.99987864    
                            current damping = 0.100
 
          Norm of current diis error: 0.31101E-02
          max. resid. norm for Fia-block=  4.724D-05 for orbital     68a         
          max. resid. fock norm         =  7.348D-05 for orbital    697a         

 ITERATION  ENERGY          1e-ENERGY        2e-ENERGY     RMS[dD(SAO)]   TOL
  13  -938.00839646702    -4041.9077533     1711.9224528    0.108D-05 0.409D-13
                            Exc = -125.746194867     Coul =  1837.66864762    
                              N = 135.99987864    
                            current damping = 0.150
 
          Norm of current diis error: 0.63873E-03
          max. resid. norm for Fia-block=  1.677D-05 for orbital     57a         
          max. resid. fock norm         =  2.497D-05 for orbital    698a         

 ITERATION  ENERGY          1e-ENERGY        2e-ENERGY     RMS[dD(SAO)]   TOL
  14  -938.00839647721    -4041.9077897     1711.9224892    0.333D-06 0.409D-13
                            Exc = -125.746273345     Coul =  1837.66876253    
                              N = 135.99987865    
                            current damping = 0.050
 
          Norm of current diis error: 0.39940E-03
          max. resid. norm for Fia-block=  8.038D-06 for orbital     62a         
          max. resid. fock norm         =  1.403D-05 for orbital    708a         

 ITERATION  ENERGY          1e-ENERGY        2e-ENERGY     RMS[dD(SAO)]   TOL
  15  -938.00839648248    -4041.9078952     1711.9225947    0.218D-06 0.409D-13
                            Exc = -125.746231244     Coul =  1837.66882593    
                              N = 135.99987865    
                            current damping = 0.050
 
          Norm of current diis error: 0.17674E-03
          max. resid. norm for Fia-block=  4.132D-06 for orbital     65a         
          max. resid. fock norm         =  7.060D-06 for orbital     25a         
          mo-orthogonalization: Cholesky decomposition

 ITERATION  ENERGY          1e-ENERGY        2e-ENERGY     RMS[dD(SAO)]   TOL
  16  -938.00839648323    -4041.9079078     1711.9226072    0.111D-06 0.409D-13
                            Exc = -125.746222325     Coul =  1837.66882954    
                              N = 135.99987865    
                            current damping = 0.050
 
          Norm of current diis error: 0.11479E-03
          max. resid. norm for Fia-block=  3.076D-06 for orbital     65a         
          max. resid. fock norm         =  5.615D-06 for orbital    700a         

 DENSITY CONVERGED !


 ITERATION  ENERGY          1e-ENERGY        2e-ENERGY     RMS[dD(SAO)]   TOL
  17  -938.00839648371    -4041.9078723     1711.9225718    0.690D-07 0.409D-13
                            Exc = -125.746239643     Coul =  1837.66881141    
                              N = 135.99987865    
                            current damping = 0.100
 
          Norm of current diis error: 0.46301E-04
          max. resid. norm for Fia-block=  1.507D-06 for orbital     65a         
          max. resid. fock norm         =  2.765D-06 for orbital    700a         

 DENSITY CONVERGED !


 ITERATION  ENERGY          1e-ENERGY        2e-ENERGY     RMS[dD(SAO)]   TOL
  18  -938.00839648380    -4041.9078902     1711.9225896    0.307D-07 0.409D-13
                            Exc = -125.746233962     Coul =  1837.66882359    
                              N = 135.99987865    
                            current damping = 0.150
 
          Norm of current diis error: 0.22368E-04
          max. resid. norm for Fia-block=  6.572D-07 for orbital     65a         
          max. resid. fock norm         =  1.094D-06 for orbital    700a         

 ENERGY & DENSITY CONVERGED !


 ITERATION  ENERGY          1e-ENERGY        2e-ENERGY     RMS[dD(SAO)]   TOL
  19  -938.00802777523    -4041.9078863     1711.9229544    0.144D-07 0.409D-13
                            Exc = -125.745864718     Coul =  1837.66881913    
                              N = 136.00000589    
                            current damping = 0.200
 
          Norm of current diis error: 0.93403E-05
          max. resid. norm for Fia-block=  2.103D-07 for orbital     54a         
          max. resid. fock norm         =  3.243D-07 for orbital     54a         

 End of SCF iterations

   convergence criteria satisfied after   19 iterations


                  ------------------------------------------ 
                 |  total energy      =   -938.00802777523  |
                  ------------------------------------------ 
                 :  kinetic energy    =    934.09684709921  :
                 :  potential energy  =  -1872.10487487444  :
                 :  virial theorem    =      1.99583033347  :
                 :  wavefunction norm =      1.00000000000  :
                  .......................................... 


 <geterg> : there is no data group $energy 


 <skperg> : $end is missing 


 orbitals $scfmo  will be written to file mos

    irrep                 64a         65a         66a         67a         68a   
 eigenvalues H         -0.22712    -0.22320    -0.21377    -0.20532    -0.16683
            eV          -6.1802     -6.0737     -5.8170     -5.5872     -4.5397
 occupation              2.0000      2.0000      2.0000      2.0000      2.0000 

    irrep                 69a         70a         71a         72a         73a   
 eigenvalues H         -0.06857    -0.02144    -0.01217     0.00048     0.00406
            eV          -1.8658     -0.5835     -0.3311      0.0132      0.1104
 
 
 ! grave: sending quit signal to master process
 
 
 
 
 ==============================================================================
                           electrostatic moments
 ==============================================================================

 reference point for electrostatic moments:    0.00000   0.00000   0.00000

 
              nuc           elec       ->  total
 ------------------------------------------------------------------------------
                          charge      
 ------------------------------------------------------------------------------
         136.000000    -136.000000      -0.000000
 
 ------------------------------------------------------------------------------
                       dipole moment  
 ------------------------------------------------------------------------------
   x      -0.000034       2.257131       2.257097
   y    -149.061609     148.698672      -0.362937
   z       0.000000       0.000000       0.000000
 
   | dipole moment | =     2.2861 a.u. =     5.8107 debye 
 
 ------------------------------------------------------------------------------
                     quadrupole moment
 ------------------------------------------------------------------------------
  xx    4874.835189   -4919.659192     -44.824003
  yy    1258.439663   -1335.354074     -76.914411
  zz       0.000000     -82.052462     -82.052462
  xy     238.934914    -226.579884      12.355030
  xz       0.000000      -0.000000      -0.000000
  yz       0.000000      -0.000000      -0.000000
 
     1/3  trace=     -67.930292
     anisotropy=      40.975802
 
 ==============================================================================
 

    ridft profiling
  --------------------------------------------------------------------
             module   cpu total (s)       %  wall total (s)       %

               RIDFT           266.0  100.00           266.0  100.00
         Ridft_b_scf            10.2    3.84            10.3    3.87
        b_scf_prelim             0.0    0.00             0.0    0.00
        b_scf_molinp             0.0    0.01             0.0    0.01
         b_scf_init0             0.0    0.00             0.0    0.00
        b_scf_auxbas             0.0    0.01             0.0    0.01
      b_scf_symmetry             0.0    0.00             0.0    0.00
         b_scf_cosmo             0.0    0.00             0.0    0.00
        b_scf_params             0.3    0.12             0.3    0.12
          b_scf_ri-j             8.7    3.27             8.7    3.27
    b_scf_ri-j_auxpq             8.7    3.27             8.7    3.27
     ri-j_auxpq_chol             0.2    0.07             0.2    0.07
         b_scf_1elec             0.2    0.07             0.3    0.10
       b_scf_moinput             1.0    0.36             1.0    0.37
     moinput_orthmos             0.9    0.34             0.9    0.34
    b_scf_dft-dstmax             0.0    0.00             0.0    0.00
           Ridft_scf           255.7   96.13           255.6   96.08
          Scf_b_loop             0.0    0.00             0.0    0.00
                noga             0.0    0.00             0.0    0.00
            Scf_loop           255.4   95.99           255.2   95.94
     scf_loop_mkdmat             0.5    0.19             0.5    0.19
       scf_loop_ri-j             9.7    3.63             9.7    3.63
      parlp1.bc.dens             1.0    0.37             1.0    0.37
        parlp1.gs.gp             0.0    0.00             0.0    0.00
        parlp2.bc.gq             0.0    0.00             0.0    0.00
        scf_loop_dft           227.9   85.68           227.8   85.64
      pardft.bc.dens             0.0    0.00             0.0    0.00
        dft_grid_con             0.4    0.15             0.4    0.15
          dft_xcmrhf           225.4   84.73           225.3   84.69
          dft_getval             7.4    2.77             7.4    2.76
          funct2 dst             0.1    0.06             0.1    0.05
      funct2 f2loop1             1.8    0.66             1.8    0.67
      funct2 f2loop2             3.5    1.33             3.5    1.33
          funct2 s+c             1.6    0.61             1.6    0.60
        funct2 cmf_2             1.3    0.50             1.4    0.51
          dft_mkdens           110.1   41.40           110.1   41.38
        dft_mgga-fun             0.6    0.23             0.6    0.22
          dft_mkfock           107.0   40.21           107.0   40.21
     pardft.red.fock            17.7    6.64            17.7    6.64
     scf_loop_energy             0.0    0.00             0.0    0.00
     scf_loop_mkfock             0.0    0.00             0.0    0.00
       scf_loop_diis             5.3    2.01             5.3    2.01
       scf_loop_diag             5.2    1.96             5.2    1.95
         diag_tritrn             1.1    0.42             1.1    0.42
          diag_rdiag             4.1    1.53             4.1    1.53
     scf_loop_modump             5.7    2.16             5.7    2.16
      scf_loop_ortho             0.8    0.30             0.8    0.30
          Scf_a_loop             0.4    0.14             0.4    0.14
         Ridft_a_scf             0.1    0.04             0.1    0.04
         a_scf_fanal             0.1    0.03             0.1    0.03
 


    ------------------------------------------------------------------------
         total  cpu-time :  4 minutes and 26 seconds
         total wall-time :  4 minutes and 26 seconds
    ------------------------------------------------------------------------


   ****  ridft : all done  ****


    2018-02-01 18:27:47.398 

