 operating system is UNIX !
 hostname is         c-9-332.local

 ridft (c-9-332.local) : TURBOMOLE V7.0( ) 6 Jul 2015 at 18:30:05
 Copyright (C) 2015 TURBOMOLE GmbH, Karlsruhe


    2015-09-22 14:50:56.987 



                                  r i d f t

                        DFT program with RI approximation 
                                for coulomb part 




                                                 
                                 References:     
                                                 
          TURBOMOLE:                             
              R. Ahlrichs, M. Baer, M. Haeser, H. Horn, and
              C. Koelmel
              Electronic structure calculations on workstation
              computers: the program system TURBOMOLE
              Chem. Phys. Lett. 162: 165 (1989)
          Density Functional:                              
              O. Treutler and R. Ahlrichs                      
              Efficient Molecular Numerical Integration Schemes
              J. Chem. Phys. 102: 346 (1995)                   
          Parallel Version:                                
              Performance of parallel TURBOMOLE for Density    
              Functional Calculations                          
              M. v. Arnim and R. Ahlrichs                      
              J. Comp. Chem. 19: 1746 (1998)                   
          RI-J Method:                                     
              Auxiliary Basis Sets to approximate Coulomb      
              Potentials                                       
              Chem. Phys. Lett. 240: 283 (1995)                
              K. Eichkorn, O. Treutler, H. Oehm, M. Haeser     
              and R. Ahlrichs                                  
              Chem. Phys. Lett. 242: 652 (1995)                
                                                           
              Auxiliary Basis Sets for Main Row Atoms and their
              Use to approximate Coulomb Potentials            
              K. Eichkorn, F. Weigend, O. Treutler and         
              R. Ahlrichs                                      
              Theo. Chem. Acc. 97: 119 (1997)                   
                                                           
              Accurate Coulomb-fitting basis sets for H to Rn 
              F. Weigend                                        
              Phys. Chem. Chem. Phys. 8: 1057 (2006)            
                                                           
          Multipole accelerated RI-J (MARI-J):             
              Fast evaluation of the Coulomb potential for     
              electron densities using multipole accelerated   
              resolution of identity approximation             
              M. Sierka, A. Hogekamp and R. Ahlrichs           
              J. Chem. Phys. 118: 9136 (2003)                  
          RI-JK Method:                                     
              A fully direct RI-HF algorithm: Implementation,
              optimised auxiliary basis sets, demonstration of
              accuracy and efficiency                         
              F. Weigend                                      
              Phys. Chem. Chem. Phys. 4: 4285 (2002)           
          Two-component HF and DFT with spin-orbit coupling:  
              Self-consistent treatment of spin-orbit         
              interactions with efficient Hartree-Fock and    
              density functional methods                      
              M. K. Armbruster, F. Weigend, C. van Wüllen and 
              W. Klopper                                      
              Phys. Chem. Chem. Phys. 10: 1748 (2008)         
          Relativistic all-electron 2c calculations           
              An efficient implementation of two-component    
              relativistic exact-decoupling methods for large 
              molecules                                       
              D. Peng, N. Middendorf, F. Weigend, M. Reiher   
              J. Chem. Phys. 138, 184105 (2013)               
                                         


 


              +--------------------------------------------------+
              |      general information about current run       |
              +--------------------------------------------------+

 

 DENSITY CONVERGENCE CHECK SWITCHED ON !
 SCF CONVERGENCE IF RMS(delta[D]) <     0.1000000000E-06

 PBE functional
 exchange:    LDA + PBE
 correlation: LDA (PW) + PBE
 A DFT calculation using the RI-J approximation will be carried out.
 Allocatable memory for RI due to $ricore (MB):        5000


              +--------------------------------------------------+
              | Atomic coordinate, charge and isotop information |
              +--------------------------------------------------+

                    atomic coordinates            atom    charge  isotop
         -0.27544648    6.49907053   -0.93617033    c      6.000     0
         -2.47255547    6.05175345   -2.32339938    c      6.000     0
         -4.67784697    5.59787903   -0.95075901    c      6.000     0
         -4.66834164    5.53831486    1.70647939    c      6.000     0
         -2.46786895    5.93487389    3.09346278    c      6.000     0
         -0.28585887    6.46210748    1.71931063    c      6.000     0
         -7.38487965    4.94567785   -1.77082456    c      6.000     0
         -7.76605631    2.18044160   -0.99658487    c      6.000     0
         -7.72092965    2.12828516    1.66222200    c      6.000     0
         -7.35432278    4.86003546    2.53376370    c      6.000     0
         -7.90684091   -0.03760555   -2.41125275    c      6.000     0
         -7.97131836   -2.30436984   -1.07041647    c      6.000     0
         -7.89569152   -2.35257675    1.58568810    c      6.000     0
         -7.76320282   -0.13768545    3.00394646    c      6.000     0
         -8.86345807    6.24955109    0.41919795    c      6.000     0
          2.41741326    7.20522339   -1.73552448    c      6.000     0
          2.37321256    7.18090261    2.57307000    c      6.000     0
          4.16533434    5.06966278    1.75827678    c      6.000     0
          4.21531760    5.08844666   -0.89816793    c      6.000     0
          5.70512099    3.46634354    3.16650070    c      6.000     0
          7.40186829    1.97612441    1.81491188    c      6.000     0
          7.48998622    2.01212369   -0.83900061    c      6.000     0
          5.85652585    3.52889348   -2.25017250    c      6.000     0
          3.00621413    9.12754730    0.43654563    c      6.000     0
          9.66241538    0.24904701   -1.61084035    c      6.000     0
          8.88900717   -2.42822249   -0.84654062    c      6.000     0
          8.75678303   -2.45140943    1.81243633    c      6.000     0
          9.49814149    0.19339457    2.69826436    c      6.000     0
          8.32603886   -4.57667103   -2.23393975    c      6.000     0
          7.57003502   -6.76215820   -0.92974526    c      6.000     0
          7.39440387   -6.76812973    1.69960079    c      6.000     0
          7.99599819   -4.59768478    3.10587828    c      6.000     0
         11.50812979    0.81891282    0.62534817    c      6.000     0
         -7.80579725   -5.13576540    2.36143957    c      6.000     0
         -5.23289733   -6.09461244    1.45155533    c      6.000     0
         -5.30274160   -6.04816297   -1.20587204    c      6.000     0
         -7.92044694   -5.05985510   -1.94687145    c      6.000     0
         -3.06868847   -6.82325305    2.73190148    c      6.000     0
         -0.95383927   -7.55162909    1.30566848    c      6.000     0
         -1.02209617   -7.50674809   -1.32726805    c      6.000     0
         -3.20678966   -6.73194148   -2.61810217    c      6.000     0
         -9.50001232   -6.27060264    0.23031982    c      6.000     0
         -2.47096810    6.08924562   -4.37849545    h      1.000     0
         -2.46108483    5.88048757    5.14727384    h      1.000     0
         -7.89610726    5.43349176   -3.70705686    h      1.000     0
         -7.83469116    5.26695019    4.49599862    h      1.000     0
         -7.93790800   -0.00597153   -4.46670787    h      1.000     0
         -7.66440794   -0.17633035    5.05582999    h      1.000     0
         -8.59292488    8.29901577    0.45903337    h      1.000     0
        -10.87448572    5.76723629    0.42224041    h      1.000     0
          2.64032535    7.85661199   -3.67827633    h      1.000     0
          2.55353023    7.80551379    4.52887986    h      1.000     0
          5.65377713    3.45152809    5.22000939    h      1.000     0
          5.92652130    3.56491166   -4.30387016    h      1.000     0
          1.73104583   10.75647233    0.43270949    h      1.000     0
          4.98437944    9.73167384    0.46063964    h      1.000     0
         10.37648620    0.47708026   -3.53065092    h      1.000     0
         10.06080745    0.36645569    4.67299037    h      1.000     0
          8.46368651   -4.58914322   -4.28440599    h      1.000     0
          7.11667082   -8.46572741   -1.98160462    h      1.000     0
          6.79715593   -8.47398551    2.67301761    h      1.000     0
          7.85714111   -4.61518365    5.15458708    h      1.000     0
         12.11698066    2.79379001    0.67589835    h      1.000     0
         13.13304860   -0.46090420    0.66837724    h      1.000     0
         -8.29861893   -5.55528460    4.31772186    h      1.000     0
         -8.51595633   -5.41432993   -3.88775247    h      1.000     0
         -2.98735466   -6.82281841    4.78350155    h      1.000     0
          0.76762565   -8.12570899    2.26553597    h      1.000     0
          0.64532258   -8.05225533   -2.39267674    h      1.000     0
         -3.23594813   -6.67802759   -4.67130851    h      1.000     0
        -11.44340667   -5.56647178    0.29377682    h      1.000     0
         -9.46172647   -8.33767957    0.19275207    h      1.000     0
          2.50025885   -2.09343861   -0.49926564    c      0.000     0
          2.51543335   -2.04222703   -3.11466551    c      0.000     0
         -1.63412178   -0.07479536   -3.10463106    c      0.000     0
         -1.65591032   -0.12370147   -0.48805957    c      0.000     0
          0.42199474   -1.11151801    0.82361824    c      0.000     0
          0.45368545   -1.02181271   -4.43276838    c      0.000     0
          0.41596652   -1.12569096    3.52244951    c      0.000     0
          0.47619209   -0.95132593   -7.12976662    c      0.000     0
          0.41439804   -1.12599332    5.71936952    n      0.000     0
          0.49191461   -0.88754767   -9.32700789    n      0.000     0
         -3.22973093    0.69606172   -4.12434618    h      0.000     0
         -3.26384049    0.61179884    0.54066954    h      0.000     0
          4.08182734   -2.88827632    0.52487143    h      0.000     0
          4.11901715   -2.78785627   -4.14284660    h      0.000     0
 
       center of nuclear mass  :   -0.04468387    0.02991796   -0.06790538
       center of nuclear charge:   -0.15030841    0.27855964    0.34824108

              +--------------------------------------------------+
              |               basis set information              |
              +--------------------------------------------------+

              we will work with the 1s 3p 5d 7f 9g ... basis set
              ...i.e. with spherical basis functions...

   type   atoms  prim   cont   basis
   ---------------------------------------------------------------------------
    c       50     46     31   def2-TZVP   [5s3p2d1f|11s6p2d1f]
    h       34      8      6   def2-TZVP   [3s1p|5s1p]
    n        2     46     31   def2-TZVP   [5s3p2d1f|11s6p2d1f]
   ---------------------------------------------------------------------------
   total:   86   2664   1816
   ---------------------------------------------------------------------------

   total number of primitive shells          :   46
   total number of contracted shells         :  708
   total number of cartesian basis functions : 2076
   total number of SCF-basis functions       : 1816


 integral neglect threshold       :  0.16E-13
 integral storage threshold THIZE :  0.10E-04
 integral storage threshold THIME :         5

 RI-J AUXILIARY BASIS SET information:

              we will work with the 1s 3p 5d 7f 9g ... basis set
              ...i.e. with spherical basis functions...

   type   atoms  prim   cont   basis
   ---------------------------------------------------------------------------
    c       50     70     49   def2-TZVP   [6s4p3d1f1g|12s5p4d2f1g]
    h       34     16     11   def2-TZVP   [3s1p1d|5s2p1d]
    n        2     70     49   def2-TZVP   [6s4p3d1f1g|12s5p4d2f1g]
   ---------------------------------------------------------------------------
   total:   86   4184   2922
   ---------------------------------------------------------------------------

   total number of primitive shells          :   56
   total number of contracted shells         :  950
   total number of cartesian basis functions : 3580
   total number of SCF-basis functions       : 2922


 symmetry group of the molecule :   c1 

 the group has the following generators :
   c1(z)

    1 symmetry operations found

 there are 1 real representations :   a   

 maximum number of shells which are related by symmetry :  1


    mo occupation :
   irrep   mo's   occupied
    a     1816      141
 
 number of basis functions   :         1816
 number of occupied orbitals :          141
 
  
           ------------------
           density functional
           ------------------
 Dummy atoms with grid-point found.
 DFT quadrature threshold dgrenze tightened by factor 1/10.

 PBE functional
 exchange:    LDA + PBE
 correlation: LDA (PW) + PBE
 Dummy atoms with grid-point found.
 DFT quadrature threshold dgrenze tightened by factor 1/10.

 Dummy atoms with grid-point found.
 DFT quadrature threshold dgrenze tightened by factor 1/10.

 iterations will be done with small grid
  
 spherical integration : Lebedev's spherical grid
 spherical gridsize    :           5
    i.e. gridpoints    :         590
 value for diffuse not defined
 radial integration    : Chebyshev 2nd kind (scaling 3)
 radial gridsize       :           8
 integration cells     :          86
 partition function    : becke
 partition sharpness   :           3
  
 found dummy atom(s) with basis: included in dft

 biggest AO integral is expected to be     6.862573055
  
           ------------------------
               RI-J - INFORMATION
           ------------------------
 Contributions to RI integral batches: 
  neglected integral batches:      112312
  direct contribution:              88494
  memory contribution:       50180
 Memory core needed for (P|Q) and Cholesky     66 MByte
 Memory core minimum needed except of (P|Q)     4 MByte
 Total minimum memory core needed (sum)        69 MByte
  
 ****************************************
 Memory allocated for RI-J  4415 MByte
 ****************************************
                                            

          ------------------------
          nuclear repulsion energy  :   4492.64410209    
          ------------------------

 
          -----------------
          -S,T+V- integrals
          -----------------

 1e-integrals will be neglected if expon. factor < 0.160981E-14
 
   Difference densities algorithm switched on.
   The maximal number of linear combinations of
   difference densities is          20 .

 automatic virtual orbital shift switched on 
      shift if e(lumo)-e(homo) < 0.10000000    


 DIIS switched on: error vector is FDS-SDF
 Max. Iterations for DIIS is     :   4
 DIIS matrix (see manual) 
    Scaling factor of diagonals  :  1.200
    threshold for scaling factor :  0.000

 scf convergence criterion : increment of total energy < .1000000D-08
                  and increment of one-electron energy < .1000000D-05


 <geterg> : there is no data group $energy 

  MOs are in ASCII format !


 reading orbital data $scfmo  from file mos . 

 orbital characterization : expanded
 
 mo provided and orthogonalized by Cholesky decomposition

 DSCF restart information will be dumped onto file mos


 Starting SCF iterations

          Overall gridpoints after grid construction =        454462

 ITERATION  ENERGY          1e-ENERGY        2e-ENERGY     RMS[dD(SAO)]   TOL
   1  -1612.2533869304    -11056.926058     4952.0285686    0.000D+00 0.161D-13
                            Exc = -231.604361976     Coul =  5183.63293054    
                              N = 281.99965144    
                            current damping = 0.700
 
          max. resid. norm for Fia-block=  2.547D-01 for orbital     46a         
          max. resid. fock norm         =  1.181D+01 for orbital   1025a         

 ITERATION  ENERGY          1e-ENERGY        2e-ENERGY     RMS[dD(SAO)]   TOL
   2  -1615.9266169583    -11109.172363     5000.6016438    0.182D-01 0.157D-13
                            Exc = -235.411832862     Coul =  5236.01347668    
                              N = 281.99974183    
                            current damping = 0.650
 
          Norm of current diis error:  5.3356    
          max. resid. norm for Fia-block=  1.269D-01 for orbital     46a         
          max. resid. fock norm         =  1.457D-01 for orbital     46a         

 ITERATION  ENERGY          1e-ENERGY        2e-ENERGY     RMS[dD(SAO)]   TOL
   3  -1616.6754881229    -11116.670776     5007.3511855    0.716D-02 0.894D-14
                            Exc = -236.378294010     Coul =  5243.72947949    
                              N = 281.99980111    
                            current damping = 0.550
 
          Norm of current diis error:  2.7361    
          max. resid. norm for Fia-block=  6.402D-02 for orbital     46a         
          max. resid. fock norm         =  7.197D-02 for orbital     46a         

 ITERATION  ENERGY          1e-ENERGY        2e-ENERGY     RMS[dD(SAO)]   TOL
   4  -1616.9211620067    -11128.540575     5018.9753108    0.231D-02 0.748D-14
                            Exc = -237.097476516     Coul =  5256.07278733    
                              N = 281.99984597    
                            current damping = 0.450
 
          Norm of current diis error:  1.0697    
          max. resid. norm for Fia-block=  2.491D-02 for orbital     47a         
          max. resid. fock norm         =  3.425D-02 for orbital     48a         

 ITERATION  ENERGY          1e-ENERGY        2e-ENERGY     RMS[dD(SAO)]   TOL
   5  -1616.9564855420    -11128.131807     5018.5312193    0.120D-02 0.653D-14
                            Exc = -237.328697376     Coul =  5255.85991669    
                              N = 281.99987239    
                            current damping = 0.500
 
          Norm of current diis error: 0.66597    
          max. resid. norm for Fia-block=  1.256D-02 for orbital    137a         
          max. resid. fock norm         =  1.808D-02 for orbital   1765a         
          mo-orthogonalization: Cholesky decomposition

 ITERATION  ENERGY          1e-ENERGY        2e-ENERGY     RMS[dD(SAO)]   TOL
   6  -1616.9725923504    -11131.365680     5021.7489856    0.418D-03 0.614D-14
                            Exc = -237.449947106     Coul =  5259.19893270    
                              N = 281.99987923    
                            current damping = 0.550
 
          Norm of current diis error: 0.22976    
          max. resid. norm for Fia-block=  5.041D-03 for orbital    137a         
          max. resid. fock norm         =  1.090D-02 for orbital   1814a         

 ITERATION  ENERGY          1e-ENERGY        2e-ENERGY     RMS[dD(SAO)]   TOL
   7  -1616.9740552395    -11131.366183     5021.7480256    0.169D-03 0.596D-14
                            Exc = -237.469078782     Coul =  5259.21710443    
                              N = 281.99988345    
                            current damping = 0.600
 
          Norm of current diis error: 0.14568    
          max. resid. norm for Fia-block=  2.206D-03 for orbital    141a         
          max. resid. fock norm         =  6.693D-03 for orbital   1813a         

 ITERATION  ENERGY          1e-ENERGY        2e-ENERGY     RMS[dD(SAO)]   TOL
   8  -1616.9748954396    -11131.278995     5021.6599974    0.658D-04 0.588D-14
                            Exc = -237.473190215     Coul =  5259.13318761    
                              N = 281.99988358    
                            current damping = 0.650
 
          Norm of current diis error: 0.31065E-01
          max. resid. norm for Fia-block=  8.959D-04 for orbital    137a         
          max. resid. fock norm         =  3.941D-03 for orbital   1814a         

 ITERATION  ENERGY          1e-ENERGY        2e-ENERGY     RMS[dD(SAO)]   TOL
   9  -1616.9749142274    -11131.316904     5021.6978873    0.325D-04 0.583D-14
                            Exc = -237.476371563     Coul =  5259.17425882    
                              N = 281.99988441    
                            current damping = 0.700
 
          Norm of current diis error: 0.25615E-01
          max. resid. norm for Fia-block=  4.495D-04 for orbital    140a         
          max. resid. fock norm         =  1.274D-03 for orbital   1814a         

 ITERATION  ENERGY          1e-ENERGY        2e-ENERGY     RMS[dD(SAO)]   TOL
  10  -1616.9749375244    -11131.382479     5021.7634398    0.862D-05 0.577D-14
                            Exc = -237.479103575     Coul =  5259.24254334    
                              N = 281.99988438    
                            current damping = 0.550
 
          Norm of current diis error: 0.10448E-01
          max. resid. norm for Fia-block=  2.056D-04 for orbital    137a         
          max. resid. fock norm         =  6.653D-04 for orbital   1814a         
          mo-orthogonalization: Cholesky decomposition

 ITERATION  ENERGY          1e-ENERGY        2e-ENERGY     RMS[dD(SAO)]   TOL
  11  -1616.9749417393    -11131.339670     5021.7206265    0.538D-05 0.572D-14
                            Exc = -237.478097938     Coul =  5259.19872441    
                              N = 281.99988442    
                            current damping = 0.600
 
          Norm of current diis error: 0.27520E-02
          max. resid. norm for Fia-block=  6.831D-05 for orbital    137a         
          max. resid. fock norm         =  4.021D-04 for orbital   1814a         

 ITERATION  ENERGY          1e-ENERGY        2e-ENERGY     RMS[dD(SAO)]   TOL
  12  -1616.9749419394    -11131.342298     5021.7232542    0.170D-05 0.563D-14
                            Exc = -237.477844316     Coul =  5259.20109847    
                              N = 281.99988440    
                            current damping = 0.650
 
          Norm of current diis error: 0.17115E-02
          max. resid. norm for Fia-block=  2.514D-05 for orbital    140a         
          max. resid. fock norm         =  1.650D-04 for orbital   1814a         

 ITERATION  ENERGY          1e-ENERGY        2e-ENERGY     RMS[dD(SAO)]   TOL
  13  -1616.9749420523    -11131.344793     5021.7257487    0.790D-06 0.557D-14
                            Exc = -237.477926275     Coul =  5259.20367499    
                              N = 281.99988442    
                            current damping = 0.500
 
          Norm of current diis error: 0.32782E-03
          max. resid. norm for Fia-block=  7.494D-06 for orbital    140a         
          max. resid. fock norm         =  8.425D-05 for orbital   1813a         

 ITERATION  ENERGY          1e-ENERGY        2e-ENERGY     RMS[dD(SAO)]   TOL
  14  -1616.9749420542    -11131.344383     5021.7253390    0.423D-06 0.552D-14
                            Exc = -237.477973672     Coul =  5259.20331268    
                              N = 281.99988443    
                            current damping = 0.550
 
          Norm of current diis error: 0.25547E-03
          max. resid. norm for Fia-block=  4.842D-06 for orbital    140a         
          max. resid. fock norm         =  2.862D-05 for orbital   1814a         

 ITERATION  ENERGY          1e-ENERGY        2e-ENERGY     RMS[dD(SAO)]   TOL
  15  -1616.9749420563    -11131.344395     5021.7253505    0.111D-06 0.548D-14
                            Exc = -237.477973850     Coul =  5259.20332435    
                              N = 281.99988443    
                            current damping = 0.600
 
          Norm of current diis error: 0.88922E-04
          max. resid. norm for Fia-block=  2.074D-06 for orbital    141a         
          max. resid. fock norm         =  1.206D-05 for orbital   1814a         
          mo-orthogonalization: Cholesky decomposition

 DENSITY CONVERGED !


 ITERATION  ENERGY          1e-ENERGY        2e-ENERGY     RMS[dD(SAO)]   TOL
  16  -1616.9749420565    -11131.344424     5021.7253797    0.502D-07 0.545D-14
                            Exc = -237.477970995     Coul =  5259.20335065    
                              N = 281.99988443    
                            current damping = 0.450
 
          Norm of current diis error: 0.51352E-04
          max. resid. norm for Fia-block=  9.861D-07 for orbital    141a         
          max. resid. fock norm         =  5.328D-06 for orbital   1814a         

 DENSITY CONVERGED !


 ITERATION  ENERGY          1e-ENERGY        2e-ENERGY     RMS[dD(SAO)]   TOL
  17  -1616.9749420569    -11131.344504     5021.7254594    0.243D-07 0.540D-14
                            Exc = -237.477971381     Coul =  5259.20343075    
                              N = 281.99988443    
                            current damping = 0.300
 
          Norm of current diis error: 0.21536E-04
          max. resid. norm for Fia-block=  3.014D-07 for orbital    136a         
          max. resid. fock norm         =  2.275D-06 for orbital   1814a         

 DENSITY CONVERGED !


 ITERATION  ENERGY          1e-ENERGY        2e-ENERGY     RMS[dD(SAO)]   TOL
  18  -1616.9749420572    -11131.344456     5021.7254117    0.906D-08 0.536D-14
                            Exc = -237.477969304     Coul =  5259.20338100    
                              N = 281.99988443    
                            current damping = 0.350
 
          Norm of current diis error: 0.75581E-05
          max. resid. norm for Fia-block=  2.162D-07 for orbital    137a         
          max. resid. fock norm         =  5.780D-07 for orbital   1814a         

 ENERGY & DENSITY CONVERGED !

          Overall gridpoints after grid construction =       1312916

 ITERATION  ENERGY          1e-ENERGY        2e-ENERGY     RMS[dD(SAO)]   TOL
  19  -1616.9748686596    -11131.344449     5021.7254782    0.422D-08 0.533D-14
                            Exc = -237.477896484     Coul =  5259.20337470    
                              N = 282.00006556    
                            current damping = 0.400
 
          Norm of current diis error: 0.65226E-05
          max. resid. norm for Fia-block=  7.357D-08 for orbital    140a         
          max. resid. fock norm         =  2.159D-07 for orbital   1814a         

 End of SCF iterations

   convergence criteria satisfied after   19 iterations


                  ------------------------------------------ 
                 |  total energy      =  -1616.97486865958  |
                  ------------------------------------------ 
                 :  kinetic energy    =   1609.24293267428  :
                 :  potential energy  =  -3226.21780133386  :
                 :  virial theorem    =      1.99521827078  :
                 :  wavefunction norm =      1.00000000000  :
                  .......................................... 


 <geterg> : there is no data group $energy 


 <skperg> : $end is missing 


 orbitals $scfmo  will be written to file mos

    irrep                137a        138a        139a        140a        141a   
 eigenvalues H         -0.21299    -0.21084    -0.20191    -0.19142    -0.17799
            eV          -5.7958     -5.7373     -5.4943     -5.2087     -4.8434
 occupation              2.0000      2.0000      2.0000      2.0000      2.0000 

    irrep                142a        143a        144a        145a        146a   
 eigenvalues H         -0.05170    -0.05006    -0.04631    -0.04130    -0.03312
            eV          -1.4069     -1.3623     -1.2600     -1.1238     -0.9013
 
 
 
 
 ==============================================================================
                           electrostatic moments
 ==============================================================================

 reference point for electrostatic moments:    0.00000   0.00000   0.00000

 
              nuc           elec       ->  total
 ------------------------------------------------------------------------------
                          charge      
 ------------------------------------------------------------------------------
         282.000000    -282.000000      -0.000000
 
 ------------------------------------------------------------------------------
                       dipole moment  
 ------------------------------------------------------------------------------
   x     -42.386973      42.446247       0.059274
   y      78.553818     -78.066625       0.487193
   z      98.203984     -98.175514       0.028470
 
   | dipole moment | =     0.4916 a.u. =     1.2495 debye 
 
 ------------------------------------------------------------------------------
                     quadrupole moment
 ------------------------------------------------------------------------------
  xx   12818.056924  -12992.183129    -174.126205
  yy    7840.791619   -8018.255256    -177.463637
  zz    1291.386700   -1456.705769    -165.319069
  xy     144.280986    -142.215359       2.065628
  xz     147.867110    -147.979122      -0.112011
  yz     144.201376    -144.106533       0.094843
 
     1/3  trace=    -172.302970
     anisotropy=      11.443880
 
 ==============================================================================
 
 


    ------------------------------------------------------------------------
         total  cpu-time : 49 minutes and  9 seconds
         total wall-time : 49 minutes and  9 seconds
    ------------------------------------------------------------------------


   ****  ridft : all done  ****


    2015-09-22 15:40:05.639 

