
   OpenMP run-time library returned nthreads = 28
 operating system is UNIX !

 dscf (c-19-411) : TURBOMOLE V7.3 ( 22142 ) 4 Jul 2018 at 18:12:42
 Copyright (C) 2018 TURBOMOLE GmbH, Karlsruhe


    2019-04-02 17:47:48.563 



                             d s c f - program

                   idea & directorship : reinhart ahlrichs
                   program development : marco haeser
                                         michael baer
                           dft version : oliver treutler


                          quantum chemistry group
                          universitaet  karlsruhe
                                  germany




                          References             
                                                 
          TURBOMOLE:                             
              R. Ahlrichs, M. Baer, M. Haeser, H. Horn, and
              C. Koelmel
              Electronic structure calculations on workstation
              computers: the program system TURBOMOLE
              Chem. Phys. Lett. 162: 165 (1989)
          Density Functional:                              
              O. Treutler and R. Ahlrichs                      
              Efficient Molecular Numerical Integration Schemes
              J. Chem. Phys. 102: 346 (1995)                   
          Parallel Version:                                
              Performance of parallel TURBOMOLE for Density    
              Functional Calculations                          
              M. v. Arnim and R. Ahlrichs                      
              J. Comp. Chem. 19: 1746 (1998)                   
                                         




              +--------------------------------------------------+
              | Atomic coordinate, charge and isotop information |
              +--------------------------------------------------+

                    atomic coordinates            atom    charge  isotop
          1.51161854   -1.93139770    1.29963450    c      6.000     0
          1.61298684   -2.12036912   -0.75213813    h      1.000     0
          2.81834152   -3.29600242    2.11596491    h      1.000     0
          2.11061056    0.80304439    2.07806012    c      6.000     0
          3.47358555    1.68213035    0.81343746    h      1.000     0
          2.93960050    0.83114811    3.96291360    h      1.000     0
         -0.46214983    2.20283408    2.08432473    c      6.000     0
         -0.48769599    3.78108335    0.76595009    h      1.000     0
         -0.84811759    2.98009021    3.95138799    h      1.000     0
         -2.45421412    0.19617607    1.39709153    c      6.000     0
         -2.78462631    0.19888116   -0.63873773    h      1.000     0
         -4.26460974    0.52542168    2.31899335    h      1.000     0
         -1.22242591   -2.30559506    2.14730828    c      6.000     0
         -2.12488211   -3.94504334    1.29067023    h      1.000     0
         -1.29638736   -2.54221704    4.19560788    h      1.000     0
          0.09419557    0.17802657   10.61322607    c      6.000     0
         -0.08786858   -0.10937427   13.47737149    c      6.000     0
          1.78777223   -0.13860116   14.33220275    h      1.000     0
         -1.14408332    1.45510070   14.30589340    h      1.000     0
         -1.04627096   -1.86429883   13.97880954    h      1.000     0
          1.44356064    2.64771932    9.97898696    c      6.000     0
          1.59761026    2.89999611    7.93868391    h      1.000     0
          0.41654667    4.26284639   10.74527352    h      1.000     0
          3.34765728    2.66784568   10.76933279    h      1.000     0
         -2.56089197    0.21548972    9.48445576    c      6.000     0
         -2.49110139    0.43694661    7.43627804    h      1.000     0
         -3.66127862    1.77909365   10.25611771    h      1.000     0
         -3.56226363   -1.53777332    9.90270751    h      1.000     0
          1.58311044   -2.03953852    9.52221504    c      6.000     0
          0.64727966   -3.82909166    9.93841427    h      1.000     0
          1.76233806   -1.87478697    7.47538694    h      1.000     0
          3.48175245   -2.11022304   10.32298357    h      1.000     0
 
       center of nuclear mass  :   -0.00251892   -0.01032329    6.27092073
       center of nuclear charge:   -0.00112895   -0.00748189    6.31612415

              +--------------------------------------------------+
              |               basis set information              |
              +--------------------------------------------------+

              we will work with the 1s 3p 5d 7f 9g ... basis set
              ...i.e. with spherical basis functions...

   type   atoms  prim   cont   basis
   ---------------------------------------------------------------------------
    c       10     50     30   cc-pVTZ   [4s3p2d1f|18s5p2d1f]
    h       22     16     14   cc-pVTZ   [3s2p1d|5s2p1d]
   ---------------------------------------------------------------------------
   total:   32    852    608
   ---------------------------------------------------------------------------

   total number of primitive shells          :   34
   total number of contracted shells         :  232
   total number of cartesian basis functions :  680
   total number of SCF-basis functions       :  608


 integral neglect threshold       :  0.49E-13
 integral storage threshold THIZE :  0.10E-04
 integral storage threshold THIME :         5


 DENSITY CONVERGENCE CHECK SWITCHED ON !
 SCF CONVERGENCE IF RMS(delta[D]) <     0.1000000000E-06


 symmetry group of the molecule :   c1 

 the group has the following generators :
   c1(z)

    1 symmetry operations found

 there are 1 real representations :   a   

 maximum number of shells which are related by symmetry :  1


    mo occupation :
   irrep   mo's   occupied
    a      608       41
 
 number of basis functions   :                    608
 number of occupied orbitals :                     41
 

 automatic virtual orbital shift switched on 
      shift if e(lumo)-e(homo) < 0.10000000    


          ------------------------
          nuclear repulsion energy  :   569.428036208    
          ------------------------


         -----------------
         -S,T+V- integrals
         -----------------

 1e-integrals will be neglected if expon. factor < 0.491465E-14
 
   Difference densities algorithm switched on.
   The maximal number of linear combinations of
   difference densities is                    20 .

 DIIS switched on: error vector is FDS-SDF
 Max. Iterations for DIIS is     :   5
 DIIS matrix (see manual) 
    Scaling factor of diagonals  :  1.200
    threshold for scaling factor :  0.000

 scf convergence criterion : increment of total energy < .1000000D-08
                  and increment of one-electron energy < .1000000D-05

  MOs are in ASCII format !


 reading orbital data $scfmo  from file mos
 orbital characterization : scfconv=9

 DSCF restart information will be dumped onto file mos

 
                                              current damping :  0.700
 ITERATION  ENERGY          1e-ENERGY        2e-ENERGY     RMS[dD(SAO)]   TOL
   1  -391.53826260758    -1658.5209630     697.55466420    0.000D+00 0.490D-13
          max. resid. norm for Fia-block=  8.682D-02 for orbital      5a         
          max. resid. fock norm         =  1.695D-01 for orbital    608a         
          Delta Eig. =    20.8075541914 eV 
 
                                              current damping :  0.650
 ITERATION  ENERGY          1e-ENERGY        2e-ENERGY     RMS[dD(SAO)]   TOL
   2  -391.61002659319    -1657.2009525     696.16288974    0.659D-03 0.312D-13
          Norm of current diis error: 0.59784    
          max. resid. norm for Fia-block=  4.240D-02 for orbital      5a         
          max. resid. fock norm         =  5.784D-02 for orbital    607a         
          Delta Eig. =     9.7008295592 eV 
 
                                              current damping :  0.600
 ITERATION  ENERGY          1e-ENERGY        2e-ENERGY     RMS[dD(SAO)]   TOL
   3  -391.62539922541    -1657.6035259     696.55009042    0.347D-03 0.235D-13
          Norm of current diis error: 0.27224    
          max. resid. norm for Fia-block=  1.734D-02 for orbital      5a         
          max. resid. fock norm         =  2.557D-02 for orbital    607a         
          Delta Eig. =     3.6789420065 eV 
 
                                              current damping :  0.650
 ITERATION  ENERGY          1e-ENERGY        2e-ENERGY     RMS[dD(SAO)]   TOL
   4  -391.62867664821    -1657.4274449     696.37073206    0.150D-03 0.208D-13
          Norm of current diis error: 0.10942    
          max. resid. norm for Fia-block=  6.559D-03 for orbital      5a         
          max. resid. fock norm         =  9.186D-03 for orbital    608a         
          Delta Eig. =     1.3802417669 eV 
 
                                              current damping :  0.500
 ITERATION  ENERGY          1e-ENERGY        2e-ENERGY     RMS[dD(SAO)]   TOL
   5  -391.62920206308    -1657.4191132     696.36187493    0.606D-04 0.193D-13
          Norm of current diis error: 0.46602E-01
          max. resid. norm for Fia-block=  2.718D-03 for orbital     37a         
          max. resid. fock norm         =  3.617D-03 for orbital    607a         
 mo-orthogonalization: Cholesky decomposition
          Delta Eig. =     0.5884061285 eV 
 
                                              current damping :  0.350
 ITERATION  ENERGY          1e-ENERGY        2e-ENERGY     RMS[dD(SAO)]   TOL
   6  -391.62930328837    -1657.4067766     696.34943710    0.277D-04 0.180D-13
          Norm of current diis error: 0.17209E-01
          max. resid. norm for Fia-block=  9.961D-04 for orbital     37a         
          max. resid. fock norm         =  1.207D-03 for orbital    607a         
          Delta Eig. =     0.2167541156 eV 
 
                                              current damping :  0.200
 ITERATION  ENERGY          1e-ENERGY        2e-ENERGY     RMS[dD(SAO)]   TOL
   7  -391.62931816835    -1657.4012367     696.34388236    0.112D-04 0.167D-13
          Norm of current diis error: 0.52425E-02
          max. resid. norm for Fia-block=  3.045D-04 for orbital     37a         
          max. resid. fock norm         =  3.063D-04 for orbital    608a         
          Delta Eig. =     0.0640989316 eV 
 
                                              current damping :  0.050
 ITERATION  ENERGY          1e-ENERGY        2e-ENERGY     RMS[dD(SAO)]   TOL
   8  -391.62931970209    -1657.3998028     696.34244693    0.388D-05 0.156D-13
          Norm of current diis error: 0.12383E-02
          max. resid. norm for Fia-block=  7.201D-05 for orbital     37a         
          max. resid. fock norm         =  7.219D-05 for orbital     37a         
          Delta Eig. =     0.0119870503 eV 
 
                                              current damping :  0.050
 ITERATION  ENERGY          1e-ENERGY        2e-ENERGY     RMS[dD(SAO)]   TOL
   9  -391.62931980531    -1657.3988585     696.34150245    0.113D-05 0.147D-13
          Norm of current diis error: 0.22186E-03
          max. resid. norm for Fia-block=  1.616D-05 for orbital     37a         
          max. resid. fock norm         =  1.660D-05 for orbital     37a         
          Delta Eig. =     0.0010339891 eV 
 
                                              current damping :  0.100
 ITERATION  ENERGY          1e-ENERGY        2e-ENERGY     RMS[dD(SAO)]   TOL
  10  -391.62931980958    -1657.3989261     696.34157009    0.274D-06 0.142D-13
          Norm of current diis error: 0.55367E-04
          max. resid. norm for Fia-block=  3.476D-06 for orbital     35a         
          max. resid. fock norm         =  3.542D-06 for orbital     33a         
 mo-orthogonalization: Cholesky decomposition
          Delta Eig. =     0.0000837386 eV 

 DENSITY CONVERGED !

 
                                              current damping :  0.150
 ITERATION  ENERGY          1e-ENERGY        2e-ENERGY     RMS[dD(SAO)]   TOL
  11  -391.62931980986    -1657.3987693     696.34141329    0.742D-07 0.139D-13
          Norm of current diis error: 0.19346E-04
          max. resid. norm for Fia-block=  1.324D-06 for orbital     37a         
          max. resid. fock norm         =  1.443D-06 for orbital     35a         
          Delta Eig. =     0.0001031792 eV 

 DENSITY CONVERGED !

 
                                              current damping :  0.200
 ITERATION  ENERGY          1e-ENERGY        2e-ENERGY     RMS[dD(SAO)]   TOL
  12  -391.62931980988    -1657.3988146     696.34145856    0.196D-07 0.137D-13
          Norm of current diis error: 0.42448E-05
          max. resid. norm for Fia-block=  2.847D-07 for orbital     41a         
          max. resid. fock norm         =  2.918D-07 for orbital     41a         
          Delta Eig. =     0.0000051345 eV 

 ENERGY & DENSITY CONVERGED !

 
                                              current damping :  0.250
 ITERATION  ENERGY          1e-ENERGY        2e-ENERGY     RMS[dD(SAO)]   TOL
  13  -391.62931980988    -1657.3988062     696.34145015    0.537D-08 0.140D-13
          max. resid. norm for Fia-block=  5.640D-08 for orbital     39a         
          max. resid. fock norm         =  5.904D-08 for orbital     39a         

 convergence criteria satisfied after    13 iterations


                  ------------------------------------------ 
                 |  total energy      =   -391.62931980988  |
                  ------------------------------------------ 
                 :  kinetic energy    =    391.34686716878  :
                 :  potential energy  =   -782.97618697866  :
                 :  virial theorem    =      1.99927877555  :
                 :  wavefunction norm =      1.00000000000  :
                  .......................................... 


 orbitals $scfmo  will be written to file mos

    irrep                 37a         38a         39a         40a         41a   
 eigenvalues H         -0.46018    -0.45325    -0.45270    -0.44938    -0.44745
            eV         -12.5224    -12.3336    -12.3187    -12.2285    -12.1758
 occupation              2.0000      2.0000      2.0000      2.0000      2.0000 

    irrep                 42a         43a         44a         45a         46a   
 eigenvalues H          0.12951     0.14692     0.16662     0.17034     0.18137
            eV           3.5243      3.9979      4.5339      4.6353      4.9353
 
 
 
 
 ==============================================================================
                           electrostatic moments
 ==============================================================================

 reference point for electrostatic moments:    0.00000   0.00000   0.00000

 
              nuc           elec       ->  total
 ------------------------------------------------------------------------------
                          charge      
 ------------------------------------------------------------------------------
          82.000000     -82.000000       0.000000
 
 ------------------------------------------------------------------------------
                       dipole moment  
 ------------------------------------------------------------------------------
   x      -0.092574       0.089326      -0.003248
   y      -0.613515       0.606763      -0.006753
   z     517.922180    -517.933763      -0.011583
 
   | dipole moment | =     0.0138 a.u. =     0.0351 debye 
 
 ------------------------------------------------------------------------------
                     quadrupole moment
 ------------------------------------------------------------------------------
  xx     285.639509    -337.638963     -51.999455
  yy     287.114197    -339.093137     -51.978940
  zz    5030.785519   -5081.977715     -51.192196
  xy       1.186017      -1.171174       0.014843
  xz      37.289007     -37.335548      -0.046541
  yz      73.228555     -73.346114      -0.117559
 
     1/3  trace=     -51.723530
     anisotropy=       0.827131
 
 ==============================================================================
 


    ------------------------------------------------------------------------
         total  cpu-time : 38 minutes and 42 seconds
         total wall-time :  1 minutes and 43 seconds
    ------------------------------------------------------------------------

   ****  dscf : all done  ****


    2019-04-02 17:49:31.010 

