 operating system is UNIX !
 hostname is c-9-411.local

 ridft (c-9-411.local) : TURBOMOLE V7.1 ( ) 5 Apr 2016 at 11:29:09
 Copyright (C) 2016 TURBOMOLE GmbH, Karlsruhe


    2016-06-24 19:36:44.913 



                                  r i d f t

                        DFT program with RI approximation 
                                for coulomb part 




                                                 
                                 References:     
                                                 
          TURBOMOLE:                             
              R. Ahlrichs, M. Baer, M. Haeser, H. Horn, and
              C. Koelmel
              Electronic structure calculations on workstation
              computers: the program system TURBOMOLE
              Chem. Phys. Lett. 162: 165 (1989)
          Density Functional:                              
              O. Treutler and R. Ahlrichs                      
              Efficient Molecular Numerical Integration Schemes
              J. Chem. Phys. 102: 346 (1995)                   
          Parallel Version:                                
              Performance of parallel TURBOMOLE for Density    
              Functional Calculations                          
              M. v. Arnim and R. Ahlrichs                      
              J. Comp. Chem. 19: 1746 (1998)                   
          RI-J Method:                                     
              Auxiliary Basis Sets to approximate Coulomb      
              Potentials                                       
              Chem. Phys. Lett. 240: 283 (1995)                
              K. Eichkorn, O. Treutler, H. Oehm, M. Haeser     
              and R. Ahlrichs                                  
              Chem. Phys. Lett. 242: 652 (1995)                
                                                           
              Auxiliary Basis Sets for Main Row Atoms and their
              Use to approximate Coulomb Potentials            
              K. Eichkorn, F. Weigend, O. Treutler and         
              R. Ahlrichs                                      
              Theo. Chem. Acc. 97: 119 (1997)                   
                                                           
              Accurate Coulomb-fitting basis sets for H to Rn 
              F. Weigend                                        
              Phys. Chem. Chem. Phys. 8: 1057 (2006)            
                                                           
          Multipole accelerated RI-J (MARI-J):             
              Fast evaluation of the Coulomb potential for     
              electron densities using multipole accelerated   
              resolution of identity approximation             
              M. Sierka, A. Hogekamp and R. Ahlrichs           
              J. Chem. Phys. 118: 9136 (2003)                  
          RI-JK Method:                                     
              A fully direct RI-HF algorithm: Implementation,
              optimised auxiliary basis sets, demonstration of
              accuracy and efficiency                         
              F. Weigend                                      
              Phys. Chem. Chem. Phys. 4: 4285 (2002)           
          Two-component HF and DFT with spin-orbit coupling:  
              Self-consistent treatment of spin-orbit         
              interactions with efficient Hartree-Fock and    
              density functional methods                      
              M. K. Armbruster, F. Weigend, C. van Wüllen and 
              W. Klopper                                      
              Phys. Chem. Chem. Phys. 10: 1748 (2008)         
          Relativistic all-electron 2c calculations           
              An efficient implementation of two-component    
              relativistic exact-decoupling methods for large 
              molecules                                       
              D. Peng, N. Middendorf, F. Weigend, M. Reiher   
              J. Chem. Phys. 138, 184105 (2013)               
                                         


 


              +--------------------------------------------------+
              |      general information about current run       |
              +--------------------------------------------------+

 

 DENSITY CONVERGENCE CHECK SWITCHED ON !
 SCF CONVERGENCE IF RMS(delta[D]) <     0.1000000000E-06

 TPSS meta-GGA functional
 exchange:    LDA + TPSS
 correlation: LDA (PW) + TPSS
 A DFT calculation using the RI-J approximation will be carried out.
 Allocatable memory for RI due to $ricore (MB):        2000


              +--------------------------------------------------+
              | Atomic coordinate, charge and isotop information |
              +--------------------------------------------------+

                    atomic coordinates            atom    charge  isotop
          0.00508138   -2.03275815   -2.54370286    c      6.000     0
         -2.29393238    1.86921472   -1.17232807    c      6.000     0
          2.44012813    1.74558484   -1.06241391    c      6.000     0
         -2.46382123   -2.03374135    1.51662844    c      6.000     0
          2.28220153   -2.15740614    1.62560354    c      6.000     0
         -0.02387182    1.76346218    2.99919287    c      6.000     0
          0.08045308    0.85830444   -2.50245293    c      6.000     0
         -0.08371104   -3.04529429    0.18376370    c      6.000     0
         -2.39269321    0.87431663    1.56310083    c      6.000     0
          2.35959173    0.75051232    1.67363395    c      6.000     0
          0.16213856    1.65826334   -5.10802195    o      8.000     0
          0.21253706    3.49388100   -5.11609296    h      1.000     0
         -0.13664338   -5.11707860    0.14101450    h      1.000     0
         -4.09291645    1.60022350    2.50188083    h      1.000     0
          4.04982474    1.38810728    2.69134274    h      1.000     0
         -1.66129845   -2.64982149   -3.61070355    h      1.000     0
          1.68284878   -2.73844416   -3.53520111    h      1.000     0
          4.13031411    1.05925923   -2.04659823    h      1.000     0
         -3.97016600    1.27101569   -2.23490224    h      1.000     0
         -2.55746301   -2.76939124    3.45429566    h      1.000     0
          2.24934442   -2.89589086    3.56413100    h      1.000     0
         -0.08714804    1.08327834    4.95819909    h      1.000     0
          3.99047731   -2.89710843    0.70989097    h      1.000     0
         -4.16483689   -2.68603944    0.52391588    h      1.000     0
         -2.25400389    3.94743227   -1.17598733    h      1.000     0
          2.50891754    3.82313963   -1.06589332    h      1.000     0
          0.02864741    3.83697875    3.06770447    h      1.000     0
 
       center of nuclear mass  :    0.00942002    0.06154431   -0.33814078
       center of nuclear charge:    0.00812025    0.05439071   -0.28989316

              +--------------------------------------------------+
              |               basis set information              |
              +--------------------------------------------------+

              we will work with the 1s 3p 5d 7f 9g ... basis set
              ...i.e. with spherical basis functions...

   type   atoms  prim   cont   basis
   ---------------------------------------------------------------------------
    c       10     77     57   def2-QZVP   [7s4p3d2f1g|15s8p3d2f1g]
    o        1     77     57   def2-QZVP   [7s4p3d2f1g|15s8p3d2f1g]
    h       16     33     30   def2-QZVP   [4s3p2d1f|7s3p2d1f]
   ---------------------------------------------------------------------------
   total:   27   1375   1107
   ---------------------------------------------------------------------------

   total number of primitive shells          :   71
   total number of contracted shells         :  347
   total number of cartesian basis functions : 1352
   total number of SCF-basis functions       : 1107


 integral neglect threshold       :  0.25E-13
 integral storage threshold THIZE :  0.10E-04
 integral storage threshold THIME :         5

 RI-J AUXILIARY BASIS SET information:

              we will work with the 1s 3p 5d 7f 9g ... basis set
              ...i.e. with spherical basis functions...

   type   atoms  prim   cont   basis
   ---------------------------------------------------------------------------
    c       10     70     49   def2-QZVP   [6s4p3d1f1g|12s5p4d2f1g]
    o        1     70     49   def2-QZVP   [6s4p3d1f1g|12s5p4d2f1g]
    h       16     16     11   def2-QZVP   [3s1p1d|5s2p1d]
   ---------------------------------------------------------------------------
   total:   27   1026    715
   ---------------------------------------------------------------------------

   total number of primitive shells          :   56
   total number of contracted shells         :  245
   total number of cartesian basis functions :  863
   total number of SCF-basis functions       :  715


 symmetry group of the molecule :   c1 

 the group has the following generators :
   c1(z)

    1 symmetry operations found

 there are 1 real representations :   a   

 maximum number of shells which are related by symmetry :  1


    mo occupation :
   irrep   mo's   occupied
    a     1107       42
 
 number of basis functions   :         1107
 number of occupied orbitals :           42
 
  
           ------------------
           density functional
           ------------------
 TPSS meta-GGA functional
 exchange:    LDA + TPSS
 correlation: LDA (PW) + TPSS
 iterations will be done with small grid
  
 spherical integration : Lebedev's spherical grid
 spherical gridsize    :           5
    i.e. gridpoints    :         590
 value for diffuse not defined
 radial integration    : Chebyshev 2nd kind (scaling 3)
 radial gridsize       :           8
 integration cells     :          27
 partition function    : becke
 partition sharpness   :           3
  

 biggest AO integral is expected to be     6.990327543
  
           ------------------------
               RI-J - INFORMATION
           ------------------------
 Contributions to RI integral batches: 
  neglected integral batches:       10394
  direct contribution:              24946
  memory contribution:       25038
 Memory core needed for (P|Q) and Cholesky      4 MByte
 Memory core minimum needed except of (P|Q)     3 MByte
 Total minimum memory core needed (sum)         7 MByte
  
 ****************************************
 Memory allocated for RI-J  1623 MByte
 ****************************************
                                            

          ------------------------
          nuclear repulsion energy  :   702.363516311    
          ------------------------

 
          -----------------
          -S,T+V- integrals
          -----------------

 1e-integrals will be neglected if expon. factor < 0.247186E-14
 
   Difference densities algorithm switched on.
   The maximal number of linear combinations of
   difference densities is          20 .

 DIIS switched on: error vector is FDS-SDF
 Max. Iterations for DIIS is     :   4
 DIIS matrix (see manual) 
    Scaling factor of diagonals  :  1.200
    threshold for scaling factor :  0.000

 scf convergence criterion : increment of total energy < .1000000D-08
                  and increment of one-electron energy < .1000000D-05


 <geterg> : there is no data group $energy 

  MOs are in ASCII format !


 automatic virtual orbital shift switched on 
      shift if e(lumo)-e(homo) < 0.10000000    


 reading orbital data $scfmo  from file mos
 orbital characterization : scfconv=9

 DSCF restart information will be dumped onto file mos


 Starting SCF iterations

          Overall gridpoints after grid construction =        119761

 ITERATION  ENERGY          1e-ENERGY        2e-ENERGY     RMS[dD(SAO)]   TOL
   1  -466.20499811683    -2024.3723970     855.80388253    0.000D+00 0.247D-13
                            Exc = -69.0403204756     Coul =  924.844203008    
                              N = 83.999905741    
                            current damping = 0.700
 
          max. resid. norm for Fia-block=  1.516D-01 for orbital      1a         
          max. resid. fock norm         =  2.847D-01 for orbital   1079a         

 ITERATION  ENERGY          1e-ENERGY        2e-ENERGY     RMS[dD(SAO)]   TOL
   2  -466.21334811633    -2024.2418032     855.66493874    0.487D-03 0.161D-13
                            Exc = -69.1174384609     Coul =  924.782377204    
                              N = 83.999907048    
                            current damping = 0.650
 
          Norm of current diis error: 0.28833    
          max. resid. norm for Fia-block=  6.454D-02 for orbital      1a         
          max. resid. fock norm         =  1.264D-01 for orbital   1080a         

 ITERATION  ENERGY          1e-ENERGY        2e-ENERGY     RMS[dD(SAO)]   TOL
   3  -466.21460190515    -2024.6240572     856.04593901    0.234D-03 0.121D-13
                            Exc = -69.1527900471     Coul =  925.198729054    
                              N = 83.999909349    
                            current damping = 0.600
 
          Norm of current diis error: 0.15817    
          max. resid. norm for Fia-block=  2.668D-02 for orbital      1a         
          max. resid. fock norm         =  4.973D-02 for orbital   1081a         

 ITERATION  ENERGY          1e-ENERGY        2e-ENERGY     RMS[dD(SAO)]   TOL
   4  -466.21502118727    -2024.3363146     855.75777707    0.971D-04 0.113D-13
                            Exc = -69.1610924660     Coul =  924.918869533    
                              N = 83.999908592    
                            current damping = 0.650
 
          Norm of current diis error: 0.70883E-01
          max. resid. norm for Fia-block=  9.865D-03 for orbital      1a         
          max. resid. fock norm         =  1.999D-02 for orbital   1081a         

 ITERATION  ENERGY          1e-ENERGY        2e-ENERGY     RMS[dD(SAO)]   TOL
   5  -466.21511197670    -2024.4050776     855.82644927    0.447D-04 0.106D-13
                            Exc = -69.1641131119     Coul =  924.990562382    
                              N = 83.999908971    
                            current damping = 0.700
 
          Norm of current diis error: 0.19123E-01
          max. resid. norm for Fia-block=  4.007D-03 for orbital      1a         
          max. resid. fock norm         =  8.154D-03 for orbital   1081a         
          mo-orthogonalization: Cholesky decomposition

 ITERATION  ENERGY          1e-ENERGY        2e-ENERGY     RMS[dD(SAO)]   TOL
   6  -466.21511852911    -2024.4348775     855.85624268    0.130D-04 0.103D-13
                            Exc = -69.1672364741     Coul =  925.023479156    
                              N = 83.999909155    
                            current damping = 0.550
 
          Norm of current diis error: 0.80701E-02
          max. resid. norm for Fia-block=  1.629D-03 for orbital      1a         
          max. resid. fock norm         =  3.358D-03 for orbital   1081a         

 ITERATION  ENERGY          1e-ENERGY        2e-ENERGY     RMS[dD(SAO)]   TOL
   7  -466.21511978791    -2024.4256119     855.84697581    0.736D-05 0.995D-14
                            Exc = -69.1670584235     Coul =  925.014034235    
                              N = 83.999909164    
                            current damping = 0.600
 
          Norm of current diis error: 0.32229E-02
          max. resid. norm for Fia-block=  6.057D-04 for orbital      1a         
          max. resid. fock norm         =  1.294D-03 for orbital   1072a         

 ITERATION  ENERGY          1e-ENERGY        2e-ENERGY     RMS[dD(SAO)]   TOL
   8  -466.21511995446    -2024.4309443     855.85230805    0.273D-05 0.978D-14
                            Exc = -69.1677560107     Coul =  925.020064058    
                              N = 83.999909174    
                            current damping = 0.650
 
          Norm of current diis error: 0.17500E-02
          max. resid. norm for Fia-block=  2.205D-04 for orbital      1a         
          max. resid. fock norm         =  4.856D-04 for orbital   1081a         

 ITERATION  ENERGY          1e-ENERGY        2e-ENERGY     RMS[dD(SAO)]   TOL
   9  -466.21512002120    -2024.4312113     855.85257492    0.136D-05 0.960D-14
                            Exc = -69.1677544922     Coul =  925.020329410    
                              N = 83.999909190    
                            current damping = 0.500
 
          Norm of current diis error: 0.40916E-03
          max. resid. norm for Fia-block=  8.939D-05 for orbital      1a         
          max. resid. fock norm         =  1.926D-04 for orbital   1081a         

 ITERATION  ENERGY          1e-ENERGY        2e-ENERGY     RMS[dD(SAO)]   TOL
  10  -466.21512002471    -2024.4307726     855.85213623    0.349D-06 0.937D-14
                            Exc = -69.1677695776     Coul =  925.019905811    
                              N = 83.999909190    
                            current damping = 0.550
 
          Norm of current diis error: 0.16796E-03
          max. resid. norm for Fia-block=  2.993D-05 for orbital      1a         
          max. resid. fock norm         =  6.696D-05 for orbital   1081a         
          mo-orthogonalization: Cholesky decomposition

 ITERATION  ENERGY          1e-ENERGY        2e-ENERGY     RMS[dD(SAO)]   TOL
  11  -466.21512002507    -2024.4310739     855.85243758    0.132D-06 0.926D-14
                            Exc = -69.1677854586     Coul =  925.020223042    
                              N = 83.999909192    
                            current damping = 0.600
 
          Norm of current diis error: 0.78824E-04
          max. resid. norm for Fia-block=  1.091D-05 for orbital      1a         
          max. resid. fock norm         =  2.465D-05 for orbital   1072a         

 DENSITY CONVERGED !


 ITERATION  ENERGY          1e-ENERGY        2e-ENERGY     RMS[dD(SAO)]   TOL
  12  -466.21512002522    -2024.4310489     855.85241260    0.436D-07 0.915D-14
                            Exc = -69.1677943160     Coul =  925.020206920    
                              N = 83.999909192    
                            current damping = 0.650
 
          Norm of current diis error: 0.36303E-04
          max. resid. norm for Fia-block=  3.991D-06 for orbital      1a         
          max. resid. fock norm         =  9.522D-06 for orbital   1081a         

 DENSITY CONVERGED !


 ITERATION  ENERGY          1e-ENERGY        2e-ENERGY     RMS[dD(SAO)]   TOL
  13  -466.21512002539    -2024.4309867     855.85235038    0.345D-07 0.898D-14
                            Exc = -69.1677898786     Coul =  925.020140258    
                              N = 83.999909192    
                            current damping = 0.500
 
          Norm of current diis error: 0.13350E-04
          max. resid. norm for Fia-block=  1.677D-06 for orbital      1a         
          max. resid. fock norm         =  4.095D-06 for orbital   1072a         

 ENERGY & DENSITY CONVERGED !

          Overall gridpoints after grid construction =        391933

 ITERATION  ENERGY          1e-ENERGY        2e-ENERGY     RMS[dD(SAO)]   TOL
  14  -466.21492785588    -2024.4309931     855.85254894    0.981D-08 0.879D-14
                            Exc = -69.1675993436     Coul =  925.020148279    
                              N = 83.999994616    
                            current damping = 0.550
 
          Norm of current diis error: 0.72743E-05
          max. resid. norm for Fia-block=  5.340D-07 for orbital      1a         
          max. resid. fock norm         =  1.355D-06 for orbital   1081a         

 End of SCF iterations

   convergence criteria satisfied after   14 iterations


                  ------------------------------------------ 
                 |  total energy      =   -466.21492785588  |
                  ------------------------------------------ 
                 :  kinetic energy    =    463.93451502123  :
                 :  potential energy  =   -930.14944287711  :
                 :  virial theorem    =      1.99510866620  :
                 :  wavefunction norm =      1.00000000000  :
                  .......................................... 


 <geterg> : there is no data group $energy 


 <skperg> : $end is missing 


 orbitals $scfmo  will be written to file mos

    irrep                 38a         39a         40a         41a         42a   
 eigenvalues H         -0.28230    -0.26609    -0.25816    -0.24710    -0.21999
            eV          -7.6817     -7.2407     -7.0249     -6.7239     -5.9862
 occupation              2.0000      2.0000      2.0000      2.0000      2.0000 

    irrep                 43a         44a         45a         46a         47a   
 eigenvalues H         -0.00586     0.01318     0.02777     0.02963     0.03472
            eV          -0.1596      0.3586      0.7557      0.8062      0.9449
 
 
 
 
 ==============================================================================
                           electrostatic moments
 ==============================================================================

 reference point for electrostatic moments:    0.00000   0.00000   0.00000

 
              nuc           elec       ->  total
 ------------------------------------------------------------------------------
                          charge      
 ------------------------------------------------------------------------------
          84.000000     -84.000000       0.000000
 
 ------------------------------------------------------------------------------
                       dipole moment  
 ------------------------------------------------------------------------------
   x       0.682101      -0.689754      -0.007653
   y       4.568819      -4.331580       0.237239
   z     -24.351026      24.981776       0.630750
 
   | dipole moment | =     0.6739 a.u. =     1.7130 debye 
 
 ------------------------------------------------------------------------------
                     quadrupole moment
 ------------------------------------------------------------------------------
  xx     330.906003    -381.894034     -50.988031
  yy     363.364219    -411.695612     -48.331393
  zz     551.788247    -607.769765     -55.981518
  xy       2.747523      -2.648795       0.098728
  xz      -7.270556       7.352784       0.082228
  yz     -80.882056      79.735051      -1.147005
 
     1/3  trace=     -51.766981
     anisotropy=       7.018184
 
 ==============================================================================
 


    ------------------------------------------------------------------------
         total  cpu-time : 17 minutes and 30 seconds
         total wall-time : 17 minutes and 30 seconds
    ------------------------------------------------------------------------

   ****  ridft : all done  ****


    2016-06-24 19:54:15.379 

