 this is node-proc. number 0 running on node c-5-20.local
 the total number of node-proc. spawned is  33

 dscfserver (c-5-20.local) : TURBOMOLE V7.2 ( 21471 ) 7 Nov 2017 at 16:15:16
 Copyright (C) 2017 TURBOMOLE GmbH, Karlsruhe


    2018-02-20 13:22:24.256 

 
    0:06:46 ---- Start global counter...
    2:44:42 ---- ... finished.
 
    2:49:34 ---- Start global counter...
    5:23:26 ---- ... finished.
 
    5:28:12 ---- Start global counter...
    7:52:20 ---- ... finished.
 
    7:57:16 ---- Start global counter...
   10:13:41 ---- ... finished.
 
   10:18:37 ---- Start global counter...
   12:13:36 ---- ... finished.
 
   12:20:34 ---- Start global counter...
   13:58:29 ---- ... finished.
 
   14:03:26 ---- Start global counter...
   15:29:49 ---- ... finished.
 
   15:34:50 ---- Start global counter...
   16:49:22 ---- ... finished.
 
   16:54:16 ---- Start global counter...
   18:01:04 ---- ... finished.
 
   18:06:02 ---- Start global counter...
   19:00:27 ---- ... finished.
 
   19:07:16 ---- Start global counter...
   19:52:38 ---- ... finished.
 
   19:57:36 ---- Start global counter...
   20:33:22 ---- ... finished.
 
   20:38:23 ---- Start global counter...
   21:06:37 ---- ... finished.
 
   21:10:13 ---- ByeBye Tag received


 ! Total wall-clock time in seconds  :    76213.1
 ! Time (sec) spent in global counter:    71806.2
 ! So-called SERIAL wall-clock time  :     4406.9

  *** Regular termination of server ***
 total turnaround time of dscfserver 76215.14 sec
 cpu elapsed by dscfserver process   71866.59 sec 

   ***  dscf server : all done  ***


    2018-02-21 10:32:39.398 

