
   OpenMP run-time library returned nthreads =  8

 ricc2 (c-6-213) : TURBOMOLE V7.3 ( 22142 ) 4 Jul 2018 at 18:12:42
 Copyright (C) 2018 TURBOMOLE GmbH, Karlsruhe


    2019-03-15 15:43:06.489 



                              R I C C 2 - PROGRAM

                          the quantum chemistry groups
                             at the universities in
                           Karlsruhe, Bochum & Mainz
                                   Germany



   *-----------------------------------------------------------------------*
   |                     program will use  8 thread(s)                     |
   *-----------------------------------------------------------------------*


              +--------------------------------------------------+
              | Atomic coordinate, charge and isotop information |
              +--------------------------------------------------+

                    atomic coordinates            atom    charge  isotop
          0.10397084   -0.57094557    0.00000000    c      6.000     0
          2.16537761    1.42973255    0.00000000    c      6.000     0
         -2.53225590    0.65965107    0.00000000    c      6.000     0
         -4.64276757   -1.32068883    0.00000000    c      6.000     0
          4.79507559    0.18838895    0.00000000    n      7.000     0
          5.01849715   -0.93885871    1.56447329    h      1.000     0
          5.01849715   -0.93885871   -1.56447329    h      1.000     0
          0.29974724   -1.78254798    1.67441466    h      1.000     0
          0.29974724   -1.78254798   -1.67441466    h      1.000     0
         -2.71111309    1.88116971    1.66543865    h      1.000     0
         -2.71111309    1.88116971   -1.66543865    h      1.000     0
          6.22164914    1.50482758    0.00000000    h      1.000     0
          2.11529866    2.62350788    1.68322353    h      1.000     0
          2.11529866    2.62350788   -1.68322353    h      1.000     0
         -6.49123897   -0.39999725    0.00000000    h      1.000     0
         -4.53233533   -2.52875514   -1.67625490    h      1.000     0
         -4.53233533   -2.52875514    1.67625490    h      1.000     0
 
       center of nuclear mass  :    0.11263941    0.06237192    0.00000000
       center of nuclear charge:    0.09865299    0.04928093    0.00000000

              +--------------------------------------------------+
              |               basis set information              |
              +--------------------------------------------------+

              we will work with the 1s 3p 5d 7f 9g ... basis set
              ...i.e. with spherical basis functions...

   type   atoms  prim   cont   basis
   ---------------------------------------------------------------------------
    c        4     77     55   cc-pVQZ   [5s4p3d2f1g|21s6p3d2f1g]
    n        1     77     55   cc-pVQZ   [5s4p3d2f1g|21s6p3d2f1g]
    h       12     32     30   cc-pVQZ   [4s3p2d1f|6s3p2d1f]
   ---------------------------------------------------------------------------
   total:   17    769    635
   ---------------------------------------------------------------------------

   total number of primitive shells          :   78
   total number of contracted shells         :  195
   total number of cartesian basis functions :  770
   total number of SCF-basis functions       :  635


 symmetry group of the molecule :   c1 

 the group has the following generators :
   c1(z)

    1 symmetry operations found

 there are 1 real representations :   a   


   =========================================================================


     restricted closed shell calculation for the wavefunction models:
               MP2        - Second Order Moeller Plesset PT


     global parameters for ricc2 program:

        hard restart (reuse of interm.) :  enabled 
        soft restart (reuse of vectors) :  disabled
        threshold for vector function   :    0.100000E-05
        convergence threshold energy    :    0.100000E-06
        linear dependence threshold     :    0.100000E-13
        global print level              :      1
        maximum number of iterations    :   300
        maximum number DIIS vectors     :    10
        max. dim. of reduced space      :   100
        core memory limit (MB)          : 12000


     MP2 energy only: Energy will be calculated directly from T2 amplitudes!

     Scratch Directory : 


   =========================================================================

    der. integral neglect threshold  :  0.10E-07
    integral neglect threshold       :  0.43E-11
    integral storage threshold THIZE :  0.10E-04
    integral storage threshold THIME :         5


                  +------------------------------------------+
                  |     Auxiliary basis set information      |
                  +------------------------------------------+

              we will work with the 1s 3p 5d 7f 9g ... basis set
              ...i.e. with spherical basis functions...

   type   atoms  prim   cont   basis
   ---------------------------------------------------------------------------
    c        4    106    106   cc-pVQZ   [10s7p5d3f2g1h|10s7p5d3f2g1h]
    n        1    106    106   cc-pVQZ   [10s7p5d3f2g1h|10s7p5d3f2g1h]
    h       12     51     51   cc-pVQZ   [4s3p3d2f1g|4s3p3d2f1g]
   ---------------------------------------------------------------------------
   total:   17   1142   1142
   ---------------------------------------------------------------------------

   total number of primitive shells          :   69
   total number of contracted shells         :  296
   total number of cartesian basis functions : 1502
   total number of SCF-basis functions       : 1142


  ----------------------------------------------------------------------------
  hard_restart flag is disabled because the check sum for the
  auxiliary basis "$chkaux" differs from the reference value:
  reference value:     84673189.4756555    
  computed value :     12045976110.5361    
  relative error :     141.264348197247    
  tolerance      :    0.100000000000000E-11
  the calculation will proceed...
  ----------------------------------------------------------------------------

 maximum number of shells which are related by symmetry :  1


 The symmetry information takes   1 MB

*---------------------------------------------------------------------*
|               simplified C1 algorithm will be applied               |
*---------------------------------------------------------------------*
  MOs are in ASCII format !


 reading orbital data $scfmo  from file mos
 orbital characterization : scfconv=9



              +--------------------------------------------+
              | list of orbitals that will be kept frozen: |
              +--------------------------------------------+
              |   irrep   index      energy     occ/vir    |
              +--------------------------------------------+
              |   a         1      -15.8883     occupied   |
              |   a         2      -11.4767     occupied   |
              |   a         3      -11.3974     occupied   |
              |   a         4      -11.3643     occupied   |
              |   a         5      -11.3318     occupied   |
              +--------------------------------------------+



   Molecular Orbital Statistic:
   ============================

   -----------------------------
   orbitals in total:
   -----------------------------
    frozen occupied :      5
    active occupied :     16
    active virtual  :    614
    frozen virtual  :      0
    all together    :    635
   -----------------------------


     time in riccmos       cpu:  2.10 sec    wall:  0.40 sec    ratio:  5.3

     total memory allocated for calculation of (Q|P)**(-1/2) : 15 MiB


     calculation of (P|Q) ...
     time in lp2sym        cpu:  0.25 sec    wall:  0.03 sec    ratio:  8.1


     calculation of the Cholesky decomposition of (P|Q)**(-1) ...
     time in invmetri      cpu:  1.15 sec    wall:  0.14 sec    ratio:  8.0

   threshold for RMS(d[D]) in SCF was     :  0.10E-06
   integral neglect threshold             :  0.43E-11
   derivative integral neglect threshold  :  0.10E-07


   =========================================================================

     Energy of reference wave function is  -212.7852794188000
     Maximum orbital residual is           0.6929714200515E-05


     Number of symmetry-nonredundant auxiliary basis functions:     1142

     Block lengths for integral files:
        frozen occupied (BOI):        1 MiB
        active occupied (BJI):        1 MiB
        active virtual  (BAI):        6 MiB
        frozen virtual  (BGI):        0 MiB
               general  (BTI):        6 MiB

   =========================================================================




   **************************************************************************
   *                                                                        *
   *          OPTIMIZATION OF THE GROUND STATE CLUSTER AMPLITUDES           *
   *                                                                        *
   **************************************************************************


   Iter.   MP2 energy       Norm(Omega)   Norm(t1)  Norm(t2)     cpu    wall
   ...........................................................................
    1   -213.7613381918     ------          0.00000   0.32360    0.50    0.06
   ...........................................................................


     time in total         cpu: 30.05 sec    wall:  3.78 sec    ratio:  7.9


     **********************************************************************
     *                                                                    *
     *   RHF  energy                             :   -212.7852794188      *
     *   MP2 correlation energy (doubles)        :     -0.9760587730      *
     *                                                                    *
     *   Final MP2 energy                        :   -213.7613381918      *
     *                                                                    *
     *    E(S)   =     -0.6639694879      E(T)   =     -0.3120892851      *
     *    E(OS)  =     -0.7679992496      E(SS)  =     -0.2080595234      *
     *                                                                    *
     *   SCS-MP2 energy                          :   -213.7762316928      *
     *   (computed with  C(OS) =   1.2000  and  C(SS) =   0.3333)         *
     *                                                                    *
     *   SOS-MP2 energy                          :   -213.7836784433      *
     *   (computed with  C(OS) =   1.3000)                                *
     *                                                                    *
     *   Norm of MP1 T2 amplitudes               :      0.3236000504      *
     *                                                                    *
     **********************************************************************



    ------------------------------------------------------------------------
         total  cpu-time :  58.37 seconds
         total wall-time :   7.70 seconds
    ------------------------------------------------------------------------

   ****  ricc2 : all done  ****


    2019-03-15 15:43:14.162 

