
   OpenMP run-time library returned nthreads = 20

 ricc2 (c-9-371.local) : TURBOMOLE V7.2 ( 21471 ) 11 Oct 2017 at 17:04:51
 Copyright (C) 2017 TURBOMOLE GmbH, Karlsruhe


    2018-04-10 09:41:08.440 



                              R I C C 2 - PROGRAM

                          the quantum chemistry groups
                             at the universities in
                           Karlsruhe, Bochum & Mainz
                                   Germany



   *-----------------------------------------------------------------------*
   |                     program will use 20 thread(s)                     |
   *-----------------------------------------------------------------------*


              +--------------------------------------------------+
              | Atomic coordinate, charge and isotop information |
              +--------------------------------------------------+

                    atomic coordinates            atom    charge  isotop
         -7.19688179   -5.19496952    4.35305329    c      6.000     0
         -5.19973242   -4.38149146    2.81569244    c      6.000     0
         -2.92039551   -5.75529984    2.81570710    c      6.000     0
         -2.70648709   -7.90173546    4.35225718    c      6.000     0
         -4.71546069   -8.70943627    5.84921067    c      6.000     0
         -6.97216971   -7.34862930    5.84989560    c      6.000     0
         -0.69060832   -4.90338664    1.33590262    c      6.000     0
          1.49954075   -4.19902850    2.61171466    c      6.000     0
          3.71131337   -3.42581424    1.37000905    c      6.000     0
          3.71131337   -3.42581424   -1.37000905    c      6.000     0
          1.49954075   -4.19902850   -2.61171466    c      6.000     0
         -0.69060832   -4.90338664   -1.33590262    c      6.000     0
          6.00224667   -2.75684025    2.78439697    c      6.000     0
          7.91048804   -1.70712123    1.35135463    c      6.000     0
          7.91048804   -1.70712123   -1.35135463    c      6.000     0
          6.00224667   -2.75684025   -2.78439697    c      6.000     0
         10.45569881   -1.61884995   -2.16985354    c      6.000     0
         12.02684782   -1.56550811    0.00000000    c      6.000     0
         10.45569881   -1.61884995    2.16985354    c      6.000     0
         14.48484026   -2.47571496    0.00000000    c      6.000     0
         15.45694036   -3.10486928   -2.47342700    c      6.000     0
         13.92014550   -3.15828450   -4.60099891    c      6.000     0
         11.25295083   -2.58767155   -4.47558508    c      6.000     0
          9.23059328   -3.34263201   -6.13144965    c      6.000     0
          6.72875945   -3.42885601   -5.31950292    c      6.000     0
         15.45694036   -3.10486928    2.47342700    c      6.000     0
         13.92014550   -3.15828450    4.60099891    c      6.000     0
         11.25295083   -2.58767155    4.47558508    c      6.000     0
          9.23059328   -3.34263201    6.13144965    c      6.000     0
          6.72875945   -3.42885601    5.31950292    c      6.000     0
         -2.92039551   -5.75529984   -2.81570710    c      6.000     0
         -5.19973242   -4.38149146   -2.81569244    c      6.000     0
         -7.19688179   -5.19496952   -4.35305329    c      6.000     0
         -6.97216971   -7.34862930   -5.84989560    c      6.000     0
         -4.71546069   -8.70943627   -5.84921067    c      6.000     0
         -2.70648709   -7.90173546   -4.35225718    c      6.000     0
         -5.48561576   -2.01167121    1.33597780    c      6.000     0
         -5.88846704    0.25334994    2.61197405    c      6.000     0
         -6.27948040    2.56338270    1.36998469    c      6.000     0
         -6.27948040    2.56338270   -1.36998469    c      6.000     0
         -5.88846704    0.25334994   -2.61197405    c      6.000     0
         -5.48561576   -2.01167121   -1.33597780    c      6.000     0
         -6.56040527    4.93318550   -2.78412505    c      6.000     0
         -7.28301863    6.98853082   -1.35155530    c      6.000     0
         -7.28301863    6.98853082    1.35155530    c      6.000     0
         -6.56040527    4.93318550    2.78412505    c      6.000     0
         -6.94819773    9.51337755    2.17006911    c      6.000     0
         -6.74068173   11.07168782    0.00000000    c      6.000     0
         -6.94819773    9.51337755   -2.17006911    c      6.000     0
         -5.77115674    5.53739469   -5.31714086    c      6.000     0
         -5.44244568    8.01881520   -6.12920854    c      6.000     0
         -5.85708021   10.13816260   -4.47470234    c      6.000     0
         -4.85109485   12.67325540   -4.60007879    c      6.000     0
         -4.65021639   14.19773393   -2.47277900    c      6.000     0
         -5.43381790   13.34387554    0.00000000    c      6.000     0
         -5.77115674    5.53739469    5.31714086    c      6.000     0
         -5.44244568    8.01881520    6.12920854    c      6.000     0
         -5.85708021   10.13816260    4.47470234    c      6.000     0
         -4.85109485   12.67325540    4.60007879    c      6.000     0
         -4.65021639   14.19773393    2.47277900    c      6.000     0
          9.66640182   -4.04401808   -8.01339970    h      1.000     0
          5.33128111   -4.20350022   -6.60980282    h      1.000     0
          5.33128111   -4.20350022    6.60980282    h      1.000     0
          9.66640182   -4.04401808    8.01339970    h      1.000     0
         14.72814491   -3.82239625    6.37024064    h      1.000     0
         17.40628552   -3.72785357    2.66329050    h      1.000     0
         17.40628552   -3.72785357   -2.66329050    h      1.000     0
         14.72814491   -3.82239625   -6.37024064    h      1.000     0
         -4.05894406   13.35826803   -6.36847055    h      1.000     0
         -3.71057572   16.01582134   -2.66175866    h      1.000     0
         -3.71057572   16.01582134    2.66175866    h      1.000     0
         -4.05894406   13.35826803    6.36847055    h      1.000     0
         -4.66992913    8.33249518    8.00754713    h      1.000     0
         -5.22799137    4.03053342    6.60242061    h      1.000     0
         -5.22799137    4.03053342   -6.60242061    h      1.000     0
         -4.66992913    8.33249518   -8.00754713    h      1.000     0
          1.47265073   -4.21633441    4.66502479    h      1.000     0
          1.47265073   -4.21633441   -4.66502479    h      1.000     0
         -5.90546408    0.21944817    4.66521065    h      1.000     0
         -5.90546408    0.21944817   -4.66521065    h      1.000     0
         -0.93685849   -8.94385861   -4.34925233    h      1.000     0
         -4.51787263  -10.39148659   -7.00913974    h      1.000     0
         -8.55113221   -7.95860846   -7.01107459    h      1.000     0
         -8.94435348   -4.11628117   -4.35177326    h      1.000     0
         -0.93685849   -8.94385861    4.34925233    h      1.000     0
         -4.51787263  -10.39148659    7.00913974    h      1.000     0
         -8.55113221   -7.95860846    7.01107459    h      1.000     0
         -8.94435348   -4.11628117    4.35177326    h      1.000     0
 
       center of nuclear mass  :   -0.06116953    0.27821253    0.00000000
       center of nuclear charge:   -0.05365059    0.24401472   -0.00000000

              +--------------------------------------------------+
              |               basis set information              |
              +--------------------------------------------------+

              we will work with the 1s 3p 5d 7f 9g ... basis set
              ...i.e. with spherical basis functions...

   type   atoms  prim   cont   basis
   ---------------------------------------------------------------------------
    c       60     77     55   cc-pVQZ   [5s4p3d2f1g|21s6p3d2f1g]
    h       28     32     30   cc-pVQZ   [4s3p2d1f|6s3p2d1f]
   ---------------------------------------------------------------------------
   total:   88   5516   4140
   ---------------------------------------------------------------------------

   total number of primitive shells          :   45
   total number of contracted shells         : 1180
   total number of cartesian basis functions : 5180
   total number of SCF-basis functions       : 4140


 symmetry group of the molecule :   c1 

 the group has the following generators :
   c1(z)

    1 symmetry operations found

 there are 1 real representations :   a   


   =========================================================================


     restricted closed shell calculation for the wavefunction models:
               MP2        - Second Order Moeller Plesset PT


     global parameters for ricc2 program:

        hard restart (reuse of interm.) :  disabled
        soft restart (reuse of vectors) :  disabled
        threshold for vector function   :    0.100000E-05
        convergence threshold energy    :    0.100000E-06
        linear dependence threshold     :    0.100000E-13
        global print level              :      1
        maximum number of iterations    :   300
        maximum number DIIS vectors     :    10
        max. dim. of reduced space      :   100
        core memory limit (MB)          : 76293


     MP2 energy only: Energy will be calculated directly from T2 amplitudes!

     Scratch Directory : 


   =========================================================================

    der. integral neglect threshold  :  0.10E-07
    integral neglect threshold       :  0.64E-12
    integral storage threshold THIZE :  0.10E-04
    integral storage threshold THIME :         5


                  +------------------------------------------+
                  |     Auxiliary basis set information      |
                  +------------------------------------------+

              we will work with the 1s 3p 5d 7f 9g ... basis set
              ...i.e. with spherical basis functions...

   type   atoms  prim   cont   basis
   ---------------------------------------------------------------------------
    c       60    132    132   cc-pVQZ   [8s7p6d5f3g1h|8s7p6d5f3g1h]
    h       28     55     55   cc-pVQZ   [5s4p3d2f1g|5s4p3d2f1g]
   ---------------------------------------------------------------------------
   total:   88   9460   9460
   ---------------------------------------------------------------------------

   total number of primitive shells          :   45
   total number of contracted shells         : 2220
   total number of cartesian basis functions :12820
   total number of SCF-basis functions       : 9460


 maximum number of shells which are related by symmetry :  1


 The symmetry information takes   1 MB

*---------------------------------------------------------------------*
|               simplified C1 algorithm will be applied               |
*---------------------------------------------------------------------*
  MOs are in ASCII format !


 reading orbital data $scfmo  from file mos
 orbital characterization : scfconv=7



              +--------------------------------------------+
              | list of orbitals that will be kept frozen: |
              +--------------------------------------------+
              |   irrep   index      energy     occ/vir    |
              +--------------------------------------------+
              |   a         1      -11.2604     occupied   |
              |   a         2      -11.2595     occupied   |
              |   a         3      -11.2591     occupied   |
              |   a         4      -11.2582     occupied   |
              |   a         5      -11.2552     occupied   |
              |   a         6      -11.2552     occupied   |
              |   a         7      -11.2542     occupied   |
              |   a         8      -11.2536     occupied   |
              |   a         9      -11.2536     occupied   |
              |   a        10      -11.2527     occupied   |
              |   a        11      -11.2527     occupied   |
              |   a        12      -11.2523     occupied   |
              |   a        13      -11.2523     occupied   |
              |   a        14      -11.2522     occupied   |
              |   a        15      -11.2515     occupied   |
              |   a        16      -11.2515     occupied   |
              |   a        17      -11.2509     occupied   |
              |   a        18      -11.2508     occupied   |
              |   a        19      -11.2508     occupied   |
              |   a        20      -11.2508     occupied   |
              |   a        21      -11.2507     occupied   |
              |   a        22      -11.2505     occupied   |
              |   a        23      -11.2505     occupied   |
              |   a        24      -11.2503     occupied   |
              |   a        25      -11.2502     occupied   |
              |   a        26      -11.2501     occupied   |
              |   a        27      -11.2499     occupied   |
              |   a        28      -11.2496     occupied   |
              |   a        29      -11.2496     occupied   |
              |   a        30      -11.2493     occupied   |
              |   a        31      -11.2492     occupied   |
              |   a        32      -11.2488     occupied   |
              |   a        33      -11.2488     occupied   |
              |   a        34      -11.2488     occupied   |
              |   a        35      -11.2485     occupied   |
              |   a        36      -11.2485     occupied   |
              |   a        37      -11.2481     occupied   |
              |   a        38      -11.2480     occupied   |
              |   a        39      -11.2403     occupied   |
              |   a        40      -11.2403     occupied   |
              |   a        41      -11.2393     occupied   |
              |   a        42      -11.2393     occupied   |
              |   a        43      -11.2389     occupied   |
              |   a        44      -11.2389     occupied   |
              |   a        45      -11.2383     occupied   |
              |   a        46      -11.2383     occupied   |
              |   a        47      -11.2375     occupied   |
              |   a        48      -11.2375     occupied   |
              |   a        49      -11.2369     occupied   |
              |   a        50      -11.2369     occupied   |
              |   a        51      -11.2329     occupied   |
              |   a        52      -11.2320     occupied   |
              |   a        53      -11.2320     occupied   |
              |   a        54      -11.2314     occupied   |
              |   a        55      -11.2304     occupied   |
              |   a        56      -11.2303     occupied   |
              |   a        57      -11.2302     occupied   |
              |   a        58      -11.2299     occupied   |
              |   a        59      -11.2284     occupied   |
              |   a        60      -11.2282     occupied   |
              +--------------------------------------------+



   Molecular Orbital Statistic:
   ============================

   -----------------------------
   orbitals in total:
   -----------------------------
    frozen occupied :     60
    active occupied :    134
    active virtual  :   3946
    frozen virtual  :      0
    all together    :   4140
   -----------------------------


     time in riccmos       cpu: 31.10 sec    wall: 12.21 sec    ratio:  2.5

     total memory allocated for calculation of (Q|P)**(-1/2) : 1025 MiB


     calculation of (P|Q) ...
     time in lp2sym        cpu: 24.86 sec    wall:  1.37 sec    ratio: 18.1


     calculation of the Cholesky decomposition of (P|Q)**(-1) ...
     time in invmetri      cpu:  1 min 53 s  wall:  0 min 10 s  ratio: 11.6

   threshold for RMS(d[D]) in SCF was     :  0.10E-06
   integral neglect threshold             :  0.64E-12
   derivative integral neglect threshold  :  0.10E-07


   =========================================================================

     Energy of reference wave function is -2289.2680560949998
     Maximum orbital residual is           0.1114565256755E-04


     Number of symmetry-nonredundant auxiliary basis functions:     9460

     Block lengths for integral files:
        frozen occupied (BOI):        5 MiB
        active occupied (BJI):       10 MiB
        active virtual  (BAI):      285 MiB
        frozen virtual  (BGI):        0 MiB
               general  (BTI):      299 MiB

   =========================================================================




   **************************************************************************
   *                                                                        *
   *          OPTIMIZATION OF THE GROUND STATE CLUSTER AMPLITUDES           *
   *                                                                        *
   **************************************************************************


   Iter.   MP2 energy       Norm(Omega)    Norm(t1)  Norm(t2)     cpu    wall
   ...........................................................................
    1  -2299.1645979400     ------          0.00000   1.09581 2218.61  125.33
   ...........................................................................


     time in total         cpu:   1 d 12 h 58 min  wall:   0 d  2 h  5 min  ratio: 17.7


     **********************************************************************
     *                                                                    *
     *   RHF  energy                             :  -2289.2680560950      *
     *   MP2 correlation energy (doubles)        :     -9.8965418450      *
     *                                                                    *
     *   Final MP2 energy                        :  -2299.1645979400      *
     *                                                                    *
     *    E(S)   =     -5.9893159357      E(T)   =     -3.9072259093      *
     *    E(OS)  =     -7.2917245722      E(SS)  =     -2.6048172728      *
     *                                                                    *
     *   SCS-MP2 energy                          :  -2298.8863980059      *
     *   (computed with  C(OS) =   1.2000  and  C(SS) =   0.3333)         *
     *                                                                    *
     *   SOS-MP2 energy                          :  -2298.7472980388      *
     *   (computed with  C(OS) =   1.3000)                                *
     *                                                                    *
     *   Norm of MP1 T2 amplitudes               :      1.0958078751      *
     *                                                                    *
     **********************************************************************



    ------------------------------------------------------------------------
         total  cpu-time :   1 days 15 hours  9 minutes and  6 seconds
         total wall-time :  2 hours 13 minutes and 16 seconds
    ------------------------------------------------------------------------

   ****  ricc2 : all done  ****


    2018-04-10 11:54:24.689 

