           Doing BLAS/Lapack in the master proc. with  8 CPUs.
           SMPCPUS    set: Shared-memory Parallelization with   8 CPUs.

           SMP Parallelization Reference:
           C. van Wullen, J. Comput. Chem. 32 (2011) 1195--1201
 operating system is UNIX !

 ridft (c-18-264.gp.local) : TURBOMOLE V7.2 ( 21454 ) 4 Oct 2017 at 12:48:15
 Copyright (C) 2017 TURBOMOLE GmbH, Karlsruhe


    2018-04-24 21:16:29.570 



                                  r i d f t

                        DFT program with RI approximation 
                                for coulomb part 




                                                 
                                 References:     
                                                 
          TURBOMOLE:                             
              R. Ahlrichs, M. Baer, M. Haeser, H. Horn, and
              C. Koelmel
              Electronic structure calculations on workstation
              computers: the program system TURBOMOLE
              Chem. Phys. Lett. 162: 165 (1989)
          Density Functional:                              
              O. Treutler and R. Ahlrichs                      
              Efficient Molecular Numerical Integration Schemes
              J. Chem. Phys. 102: 346 (1995)                   
          Parallel Version:                                
              Performance of parallel TURBOMOLE for Density    
              Functional Calculations                          
              M. v. Arnim and R. Ahlrichs                      
              J. Comp. Chem. 19: 1746 (1998)                   
          RI-J Method:                                     
              Auxiliary Basis Sets to approximate Coulomb      
              Potentials                                       
              Chem. Phys. Lett. 240: 283 (1995)                
              K. Eichkorn, O. Treutler, H. Oehm, M. Haeser     
              and R. Ahlrichs                                  
              Chem. Phys. Lett. 242: 652 (1995)                
                                                           
              Auxiliary Basis Sets for Main Row Atoms and their
              Use to approximate Coulomb Potentials            
              K. Eichkorn, F. Weigend, O. Treutler and         
              R. Ahlrichs                                      
              Theo. Chem. Acc. 97: 119 (1997)                   
                                                           
              Accurate Coulomb-fitting basis sets for H to Rn 
              F. Weigend                                        
              Phys. Chem. Chem. Phys. 8: 1057 (2006)            
                                                           
          Multipole accelerated RI-J (MARI-J):             
              Fast evaluation of the Coulomb potential for     
              electron densities using multipole accelerated   
              resolution of identity approximation             
              M. Sierka, A. Hogekamp and R. Ahlrichs           
              J. Chem. Phys. 118: 9136 (2003)                  
          RI-JK Method:                                     
              A fully direct RI-HF algorithm: Implementation,
              optimised auxiliary basis sets, demonstration of
              accuracy and efficiency                         
              F. Weigend                                      
              Phys. Chem. Chem. Phys. 4: 4285 (2002)           
          Two-component HF and DFT with spin-orbit coupling:  
              Self-consistent treatment of spin-orbit         
              interactions with efficient Hartree-Fock and    
              density functional methods                      
              M. K. Armbruster, F. Weigend, C. van Wüllen and 
              W. Klopper                                      
              Phys. Chem. Chem. Phys. 10: 1748 (2008)         
          Relativistic all-electron 2c calculations           
              An efficient implementation of two-component    
              relativistic exact-decoupling methods for large 
              molecules                                       
              D. Peng, N. Middendorf, F. Weigend, M. Reiher   
              J. Chem. Phys. 138, 184105 (2013)               
                                         




              +--------------------------------------------------+
              |      general information about current run       |
              +--------------------------------------------------+

 

 DENSITY CONVERGENCE CHECK SWITCHED ON !
 SCF CONVERGENCE IF RMS(delta[D]) <     0.1000000000E-06

 TPSS meta-GGA functional
 exchange:    LDA + TPSS
 correlation: LDA (PW) + TPSS
 A DFT calculation using the RI-J approximation will be carried out.
 Allocatable memory for RI due to $ricore (MB):                   500


              +--------------------------------------------------+
              | Atomic coordinate, charge and isotop information |
              +--------------------------------------------------+

                    atomic coordinates            atom    charge  isotop
         -2.10444837    2.50770455    0.51999037    c      6.000     0
         -0.88265827    4.43969949    0.87217940    o      8.000     0
         -1.09243062    0.25874222    0.09376344    o      8.000     0
          0.78106229    0.38409932    0.10485544    h      1.000     0
         -4.93487747    2.43054605    0.52413691    c      6.000     0
         -5.68174265    4.30268993    0.88021521    h      1.000     0
         -5.60163246    1.72958824   -1.28879555    h      1.000     0
         -5.58057710    1.11833654    1.96765922    h      1.000     0
          7.91549091    2.05593393    0.34559609    n      7.000     0
          8.65854088    0.32609709    0.02109340    h      1.000     0
          9.65692627    4.03658540    0.68849277    c      6.000     0
         11.91920508    3.62406611    0.58856413    o      8.000     0
          8.44926642    6.45441890    1.14317439    c      6.000     0
          9.62001745    8.09266950    1.42942496    h      1.000     0
          5.90364620    6.60557839    1.19869688    c      6.000     0
          4.91562143    8.36008895    1.52996249    h      1.000     0
          4.38481519    4.54448814    0.83888163    n      7.000     0
          2.44963769    4.67667012    0.88383871    h      1.000     0
          5.32955068    2.18190947    0.39636026    c      6.000     0
          3.98400436    0.31201623    0.06854913    o      8.000     0
 
       center of nuclear mass  :    3.90733311    3.19904872    0.59155309
       center of nuclear charge:    3.78764908    3.21744270    0.59587951

              +--------------------------------------------------+
              |               basis set information              |
              +--------------------------------------------------+

              we will work with the 1s 3p 5d 7f 9g ... basis set
              ...i.e. with spherical basis functions...

   type   atoms  prim   cont   basis
   ---------------------------------------------------------------------------
    c        6     77     57   def2-QZVP   [7s4p3d2f1g|15s8p3d2f1g]
    o        4     77     57   def2-QZVP   [7s4p3d2f1g|15s8p3d2f1g]
    h        8     33     30   def2-QZVP   [4s3p2d1f|7s3p2d1f]
    n        2     77     57   def2-QZVP   [7s4p3d2f1g|15s8p3d2f1g]
   ---------------------------------------------------------------------------
   total:   20   1188    924
   ---------------------------------------------------------------------------

   total number of primitive shells          :  100
   total number of contracted shells         :  284
   total number of cartesian basis functions : 1144
   total number of SCF-basis functions       :  924


 integral neglect threshold       :  0.29E-13
 integral storage threshold THIZE :  0.10E-04
 integral storage threshold THIME :         5

 RI-J AUXILIARY BASIS SET information:

              we will work with the 1s 3p 5d 7f 9g ... basis set
              ...i.e. with spherical basis functions...

   type   atoms  prim   cont   basis
   ---------------------------------------------------------------------------
    c        6     70     49   def2-QZVP   [6s4p3d1f1g|12s5p4d2f1g]
    o        4     70     49   def2-QZVP   [6s4p3d1f1g|12s5p4d2f1g]
    h        8     16     11   def2-QZVP   [3s1p1d|5s2p1d]
    n        2     70     49   def2-QZVP   [6s4p3d1f1g|12s5p4d2f1g]
   ---------------------------------------------------------------------------
   total:   20    968    676
   ---------------------------------------------------------------------------

   total number of primitive shells          :   80
   total number of contracted shells         :  220
   total number of cartesian basis functions :  828
   total number of SCF-basis functions       :  676


 symmetry group of the molecule :   c1 

 the group has the following generators :
   c1(z)

    1 symmetry operations found

 there are 1 real representations :   a   

 maximum number of shells which are related by symmetry :  1


    mo occupation :
   irrep   mo's   occupied
    a      924       45
 
 number of basis functions   :                    924
 number of occupied orbitals :                     45
 
  
           ------------------
           density functional
           ------------------
 TPSS meta-GGA functional
 exchange:    LDA + TPSS
 correlation: LDA (PW) + TPSS

 iterations will be done with small grid
  
 spherical integration : Lebedev's spherical grid
 spherical gridsize    :                     5
    i.e. gridpoints    :                   590
 value for diffuse not defined
 radial integration    : Chebyshev 2nd kind (scaling 3)
 radial gridsize       :                     8
 integration cells     :                    20
 partition function    : becke
 partition sharpness   :                     3
  

 biggest AO integral is expected to be     6.990327543
  
           ------------------------
               RI-J - INFORMATION
           ------------------------
 Contributions to RI integral batches: 
  neglected integral batches:                 13924
  direct contribution:                        19409
  memory contribution:                  7137
 Memory core needed for (P|Q) and Cholesky      4 MByte
 Memory core minimum needed except of (P|Q)     1 MByte
 Total minimum memory core needed (sum)         5 MByte
  
 ****************************************
 Memory allocated for RI-J   199 MByte
 ****************************************
                                            

          ------------------------
          nuclear repulsion energy  :   685.962935887    
          ------------------------


         -----------------
         -S,T+V- integrals
         -----------------

 1e-integrals will be neglected if expon. factor < 0.292129E-14
 Difference densities >>NOT<< switched on in parallel ridft!

 DIIS switched on: error vector is FDS-SDF
 Max. Iterations for DIIS is     :   4
 DIIS matrix (see manual) 
    Scaling factor of diagonals  :  1.200
    threshold for scaling factor :  0.000

 scf convergence criterion : increment of total energy < .1000000D-08
                  and increment of one-electron energy < .1000000D-05

  MOs are in ASCII format !


 automatic virtual orbital shift switched on 
      shift if e(lumo)-e(homo) < 0.10000000    


 reading orbital data $scfmo  from file mos
 orbital characterization : expanded
 mo provided and orthogonalized by Cholesky decomposition

 DSCF restart information will be dumped onto file mos


 Starting SCF iterations

          Overall gridpoints after grid construction =        101933

 ITERATION  ENERGY          1e-ENERGY        2e-ENERGY     RMS[dD(SAO)]   TOL
   1  -641.43913222215    -2225.9161381     898.51406996    0.000D+00 0.291D-13
                            Exc = -83.6777698456     Coul =  982.191839810    
                              N = 90.000033456    
                            current damping = 0.700
 
          max. resid. norm for Fia-block=  8.565D-01 for orbital     16a         
          max. resid. fock norm         =  6.992D+01 for orbital    819a         

 ITERATION  ENERGY          1e-ENERGY        2e-ENERGY     RMS[dD(SAO)]   TOL
   2  -643.89743951204    -2234.3739554     904.51358003    0.379D-02 0.291D-13
                            Exc = -83.5571367012     Coul =  988.070716730    
                              N = 90.000035542    
                            current damping = 0.650
 
          Norm of current diis error:  4.1776    
          max. resid. norm for Fia-block=  1.649D-01 for orbital      4a         
          max. resid. fock norm         =  3.247D-01 for orbital    517a         

 ITERATION  ENERGY          1e-ENERGY        2e-ENERGY     RMS[dD(SAO)]   TOL
   3  -644.21411464560    -2238.4105183     908.23346779    0.180D-02 0.291D-13
                            Exc = -83.9933232558     Coul =  992.226791042    
                              N = 90.000032234    
                            current damping = 0.550
 
          Norm of current diis error:  1.9567    
          max. resid. norm for Fia-block=  6.450D-02 for orbital      4a         
          max. resid. fock norm         =  7.686D-02 for orbital    770a         

 ITERATION  ENERGY          1e-ENERGY        2e-ENERGY     RMS[dD(SAO)]   TOL
   4  -644.30776420121    -2238.4712654     908.20056533    0.119D-02 0.291D-13
                            Exc = -83.8744946632     Coul =  992.075059989    
                              N = 90.000032230    
                            current damping = 0.600
 
          Norm of current diis error: 0.83475    
          max. resid. norm for Fia-block=  3.410D-02 for orbital     15a         
          max. resid. fock norm         =  7.383D-02 for orbital    847a         

 ITERATION  ENERGY          1e-ENERGY        2e-ENERGY     RMS[dD(SAO)]   TOL
   5  -644.32136318227    -2239.1357392     908.85144014    0.476D-03 0.291D-13
                            Exc = -84.0152946447     Coul =  992.866734783    
                              N = 90.000030516    
                            current damping = 0.650
 
          Norm of current diis error: 0.49711    
          max. resid. norm for Fia-block=  1.225D-02 for orbital     45a         
          max. resid. fock norm         =  1.688D-02 for orbital    889a         
          mo-orthogonalization: Cholesky decomposition

 ITERATION  ENERGY          1e-ENERGY        2e-ENERGY     RMS[dD(SAO)]   TOL
   6  -644.32821896198    -2239.5183275     909.22717266    0.321D-03 0.291D-13
                            Exc = -84.0210335924     Coul =  993.248206253    
                              N = 90.000030617    
                            current damping = 0.500
 
          Norm of current diis error: 0.14221    
          max. resid. norm for Fia-block=  5.400D-03 for orbital     37a         
          max. resid. fock norm         =  1.003D-02 for orbital    922a         

 ITERATION  ENERGY          1e-ENERGY        2e-ENERGY     RMS[dD(SAO)]   TOL
   7  -644.32872978149    -2239.3073321     909.01566647    0.137D-03 0.291D-13
                            Exc = -83.9997613709     Coul =  993.015427846    
                              N = 90.000030353    
                            current damping = 0.550
 
          Norm of current diis error: 0.79478E-01
          max. resid. norm for Fia-block=  2.216D-03 for orbital     16a         
          max. resid. fock norm         =  5.449D-03 for orbital    922a         

 ITERATION  ENERGY          1e-ENERGY        2e-ENERGY     RMS[dD(SAO)]   TOL
   8  -644.32887922336    -2239.3689423     909.07712724    0.583D-04 0.291D-13
                            Exc = -84.0042248278     Coul =  993.081352066    
                              N = 90.000030273    
                            current damping = 0.600
 
          Norm of current diis error: 0.32956E-01
          max. resid. norm for Fia-block=  1.489D-03 for orbital     45a         
          max. resid. fock norm         =  3.077D-03 for orbital    829a         

 ITERATION  ENERGY          1e-ENERGY        2e-ENERGY     RMS[dD(SAO)]   TOL
   9  -644.32888893503    -2239.4171408     909.12531600    0.154D-04 0.291D-13
                            Exc = -84.0138292253     Coul =  993.139145225    
                              N = 90.000030320    
                            current damping = 0.450
 
          Norm of current diis error: 0.27089E-01
          max. resid. norm for Fia-block=  7.495D-04 for orbital     44a         
          max. resid. fock norm         =  1.009D-03 for orbital    910a         

 ITERATION  ENERGY          1e-ENERGY        2e-ENERGY     RMS[dD(SAO)]   TOL
  10  -644.32890698855    -2239.4251377     909.13329478    0.147D-04 0.291D-13
                            Exc = -84.0113437348     Coul =  993.144638518    
                              N = 90.000030308    
                            current damping = 0.300
 
          Norm of current diis error: 0.12139E-01
          max. resid. norm for Fia-block=  3.717D-04 for orbital     42a         
          max. resid. fock norm         =  5.885D-04 for orbital    921a         
          mo-orthogonalization: Cholesky decomposition

 ITERATION  ENERGY          1e-ENERGY        2e-ENERGY     RMS[dD(SAO)]   TOL
  11  -644.32890968401    -2239.4069726     909.11512700    0.377D-05 0.291D-13
                            Exc = -84.0104397753     Coul =  993.125566772    
                              N = 90.000030277    
                            current damping = 0.350
 
          Norm of current diis error: 0.61001E-02
          max. resid. norm for Fia-block=  1.536D-04 for orbital     23a         
          max. resid. fock norm         =  2.997D-04 for orbital    921a         

 ITERATION  ENERGY          1e-ENERGY        2e-ENERGY     RMS[dD(SAO)]   TOL
  12  -644.32891051985    -2239.4058102     909.11396378    0.232D-05 0.291D-13
                            Exc = -84.0101318222     Coul =  993.124095598    
                              N = 90.000030287    
                            current damping = 0.200
 
          Norm of current diis error: 0.20846E-02
          max. resid. norm for Fia-block=  4.930D-05 for orbital     44a         
          max. resid. fock norm         =  1.283D-04 for orbital    922a         

 ITERATION  ENERGY          1e-ENERGY        2e-ENERGY     RMS[dD(SAO)]   TOL
  13  -644.32891060575    -2239.4079409     909.11609438    0.103D-05 0.291D-13
                            Exc = -84.0103714624     Coul =  993.126465840    
                              N = 90.000030288    
                            current damping = 0.250
 
          Norm of current diis error: 0.10086E-02
          max. resid. norm for Fia-block=  2.407D-05 for orbital     45a         
          max. resid. fock norm         =  5.569D-05 for orbital    922a         

 ITERATION  ENERGY          1e-ENERGY        2e-ENERGY     RMS[dD(SAO)]   TOL
  14  -644.32891062940    -2239.4095344     909.11768791    0.383D-06 0.291D-13
                            Exc = -84.0104949945     Coul =  993.128182905    
                              N = 90.000030287    
                            current damping = 0.100
 
          Norm of current diis error: 0.42662E-03
          max. resid. norm for Fia-block=  1.138D-05 for orbital     41a         
          max. resid. fock norm         =  2.213D-05 for orbital    923a         

 ITERATION  ENERGY          1e-ENERGY        2e-ENERGY     RMS[dD(SAO)]   TOL
  15  -644.32891063344    -2239.4083170     909.11647051    0.154D-06 0.291D-13
                            Exc = -84.0103875891     Coul =  993.126858097    
                              N = 90.000030288    
                            current damping = 0.150
 
          Norm of current diis error: 0.18177E-03
          max. resid. norm for Fia-block=  4.310D-06 for orbital     45a         
          max. resid. fock norm         =  1.321D-05 for orbital    923a         
          mo-orthogonalization: Cholesky decomposition

 DENSITY CONVERGED !


 ITERATION  ENERGY          1e-ENERGY        2e-ENERGY     RMS[dD(SAO)]   TOL
  16  -644.32891063399    -2239.4083964     909.11654989    0.663D-07 0.291D-13
                            Exc = -84.0103936463     Coul =  993.126943532    
                              N = 90.000030288    
                            current damping = 0.200
 
          Norm of current diis error: 0.10828E-03
          max. resid. norm for Fia-block=  3.573D-06 for orbital     40a         
          max. resid. fock norm         =  7.643D-06 for orbital    921a         

 DENSITY CONVERGED !


 ITERATION  ENERGY          1e-ENERGY        2e-ENERGY     RMS[dD(SAO)]   TOL
  17  -644.32891063425    -2239.4085060     909.11665944    0.401D-07 0.291D-13
                            Exc = -84.0104077050     Coul =  993.127067147    
                              N = 90.000030288    
                            current damping = 0.050
 
          Norm of current diis error: 0.43713E-04
          max. resid. norm for Fia-block=  1.562D-06 for orbital     40a         
          max. resid. fock norm         =  2.500D-06 for orbital    921a         

 DENSITY CONVERGED !


 ITERATION  ENERGY          1e-ENERGY        2e-ENERGY     RMS[dD(SAO)]   TOL
  18  -644.32891063429    -2239.4085260     909.11667944    0.151D-07 0.291D-13
                            Exc = -84.0104047710     Coul =  993.127084212    
                              N = 90.000030288    
                            current damping = 0.050
 
          Norm of current diis error: 0.31669E-04
          max. resid. norm for Fia-block=  6.454D-07 for orbital     40a         
          max. resid. fock norm         =  9.581D-07 for orbital    924a         

 DENSITY CONVERGED !


 ITERATION  ENERGY          1e-ENERGY        2e-ENERGY     RMS[dD(SAO)]   TOL
  19  -644.32891063430    -2239.4084966     909.11665003    0.675D-08 0.291D-13
                            Exc = -84.0104046374     Coul =  993.127054670    
                              N = 90.000030288    
                            current damping = 0.100
 
          Norm of current diis error: 0.73534E-05
          max. resid. norm for Fia-block=  2.431D-07 for orbital     45a         
          max. resid. fock norm         =  4.873D-07 for orbital    921a         

 ENERGY & DENSITY CONVERGED !

          Overall gridpoints after grid construction =        323947

 ITERATION  ENERGY          1e-ENERGY        2e-ENERGY     RMS[dD(SAO)]   TOL
  20  -644.32874162487    -2239.4085019     909.11682440    0.331D-08 0.291D-13
                            Exc = -84.0102353379     Coul =  993.127059739    
                              N = 89.999998576    
                            current damping = 0.150
 
          Norm of current diis error: 0.75087E-05
          max. resid. norm for Fia-block=  1.306D-07 for orbital     42a         
          max. resid. fock norm         =  2.618D-07 for orbital    921a         

 End of SCF iterations

   convergence criteria satisfied after    20 iterations


                  ------------------------------------------ 
                 |  total energy      =   -644.32874162487  |
                  ------------------------------------------ 
                 :  kinetic energy    =    641.98187308658  :
                 :  potential energy  =  -1286.31061471145  :
                 :  virial theorem    =      1.99635765350  :
                 :  wavefunction norm =      1.00000000000  :
                  .......................................... 


 <geterg> : there is no data group $energy 


 <skperg> : $end is missing 


 orbitals $scfmo  will be written to file mos

    irrep                 41a         42a         43a         44a         45a   
 eigenvalues H         -0.27665    -0.26803    -0.25459    -0.23378    -0.23297
            eV          -7.5282     -7.2935     -6.9278     -6.3616     -6.3395
 occupation              2.0000      2.0000      2.0000      2.0000      2.0000 

    irrep                 46a         47a         48a         49a         50a   
 eigenvalues H         -0.07961    -0.04376    -0.03448     0.00359     0.01495
            eV          -2.1664     -1.1909     -0.9384      0.0977      0.4068
 
 
 
 
 ==============================================================================
                           electrostatic moments
 ==============================================================================

 reference point for electrostatic moments:    0.00000   0.00000   0.00000

 
              nuc           elec       ->  total
 ------------------------------------------------------------------------------
                          charge      
 ------------------------------------------------------------------------------
          90.000000     -90.000000      -0.000000
 
 ------------------------------------------------------------------------------
                       dipole moment  
 ------------------------------------------------------------------------------
   x     340.888417    -342.249427      -1.361010
   y     289.569843    -288.920440       0.649403
   z      53.629156     -53.499153       0.130003
 
   | dipole moment | =     1.5136 a.u. =     3.8472 debye 
 
 ------------------------------------------------------------------------------
                     quadrupole moment
 ------------------------------------------------------------------------------
  xx    3685.672733   -3754.175941     -68.503207
  yy    1329.754615   -1375.292375     -45.537760
  zz      49.730713    -100.799820     -51.069107
  xy    1429.674223   -1431.422861      -1.748637
  xz     242.060500    -242.252274      -0.191774
  yz     241.475412    -240.390595       1.084817
 
     1/3  trace=     -55.036691
     anisotropy=      21.066365
 
 ==============================================================================
 


    ------------------------------------------------------------------------
         total  cpu-time : 22 minutes and 15 seconds
         total wall-time :  3 minutes and  8 seconds
    ------------------------------------------------------------------------

   ****  ridft : all done  ****


    2018-04-24 21:19:37.577 

