 operating system is UNIX !
 hostname is         c-8-32.local

 ridft (c-8-32.local) : TURBOMOLE V7.0( ) 6 Jul 2015 at 18:30:05
 Copyright (C) 2015 TURBOMOLE GmbH, Karlsruhe


    2015-12-22 02:16:35.438 



                                  r i d f t

                        DFT program with RI approximation 
                                for coulomb part 




                                                 
                                 References:     
                                                 
          TURBOMOLE:                             
              R. Ahlrichs, M. Baer, M. Haeser, H. Horn, and
              C. Koelmel
              Electronic structure calculations on workstation
              computers: the program system TURBOMOLE
              Chem. Phys. Lett. 162: 165 (1989)
          Density Functional:                              
              O. Treutler and R. Ahlrichs                      
              Efficient Molecular Numerical Integration Schemes
              J. Chem. Phys. 102: 346 (1995)                   
          Parallel Version:                                
              Performance of parallel TURBOMOLE for Density    
              Functional Calculations                          
              M. v. Arnim and R. Ahlrichs                      
              J. Comp. Chem. 19: 1746 (1998)                   
          RI-J Method:                                     
              Auxiliary Basis Sets to approximate Coulomb      
              Potentials                                       
              Chem. Phys. Lett. 240: 283 (1995)                
              K. Eichkorn, O. Treutler, H. Oehm, M. Haeser     
              and R. Ahlrichs                                  
              Chem. Phys. Lett. 242: 652 (1995)                
                                                           
              Auxiliary Basis Sets for Main Row Atoms and their
              Use to approximate Coulomb Potentials            
              K. Eichkorn, F. Weigend, O. Treutler and         
              R. Ahlrichs                                      
              Theo. Chem. Acc. 97: 119 (1997)                   
                                                           
              Accurate Coulomb-fitting basis sets for H to Rn 
              F. Weigend                                        
              Phys. Chem. Chem. Phys. 8: 1057 (2006)            
                                                           
          Multipole accelerated RI-J (MARI-J):             
              Fast evaluation of the Coulomb potential for     
              electron densities using multipole accelerated   
              resolution of identity approximation             
              M. Sierka, A. Hogekamp and R. Ahlrichs           
              J. Chem. Phys. 118: 9136 (2003)                  
          RI-JK Method:                                     
              A fully direct RI-HF algorithm: Implementation,
              optimised auxiliary basis sets, demonstration of
              accuracy and efficiency                         
              F. Weigend                                      
              Phys. Chem. Chem. Phys. 4: 4285 (2002)           
          Two-component HF and DFT with spin-orbit coupling:  
              Self-consistent treatment of spin-orbit         
              interactions with efficient Hartree-Fock and    
              density functional methods                      
              M. K. Armbruster, F. Weigend, C. van Wüllen and 
              W. Klopper                                      
              Phys. Chem. Chem. Phys. 10: 1748 (2008)         
          Relativistic all-electron 2c calculations           
              An efficient implementation of two-component    
              relativistic exact-decoupling methods for large 
              molecules                                       
              D. Peng, N. Middendorf, F. Weigend, M. Reiher   
              J. Chem. Phys. 138, 184105 (2013)               
                                         


 


              +--------------------------------------------------+
              |      general information about current run       |
              +--------------------------------------------------+

 

 DENSITY CONVERGENCE CHECK SWITCHED ON !
 SCF CONVERGENCE IF RMS(delta[D]) <     0.1000000000E-06

 PBE functional
 exchange:    LDA + PBE
 correlation: LDA (PW) + PBE
 A DFT calculation using the RI-J approximation will be carried out.
 Allocatable memory for RI due to $ricore (MB):        3000


              +--------------------------------------------------+
              | Atomic coordinate, charge and isotop information |
              +--------------------------------------------------+

                    atomic coordinates            atom    charge  isotop
          0.00000000    2.67618808    0.00000000    c      6.000     0
          0.00000000   -2.67618808    0.00000000    c      6.000     0
          2.33598888   -1.28360826    0.00000000    c      6.000     0
          2.33598888    1.28360826    0.00000000    c      6.000     0
         -2.33598888   -1.28360826    0.00000000    c      6.000     0
         -2.33598888    1.28360826    0.00000000    c      6.000     0
          0.00000000   -5.31498375    0.00000000    c      6.000     0
          0.00000000    5.31498375    0.00000000    c      6.000     0
          2.28826396    6.71755280    0.00000000    c      6.000     0
         -2.28826396    6.71755280    0.00000000    c      6.000     0
          2.28826396   -6.71755280    0.00000000    c      6.000     0
         -2.28826396   -6.71755280    0.00000000    c      6.000     0
         -4.17903009    7.84282142    0.00000000    n      7.000     0
          4.17903009    7.84282142    0.00000000    n      7.000     0
          4.17903009   -7.84282142    0.00000000    n      7.000     0
         -4.17903009   -7.84282142    0.00000000    n      7.000     0
          4.10398763    2.32451333    0.00000000    h      1.000     0
          4.10398763   -2.32451333    0.00000000    h      1.000     0
         -4.10398763   -2.32451333    0.00000000    h      1.000     0
         -4.10398763    2.32451333    0.00000000    h      1.000     0
 
       center of nuclear mass  :    0.00000000    0.00000000    0.00000000
       center of nuclear charge:    0.00000000    0.00000000    0.00000000

              +--------------------------------------------------+
              |               basis set information              |
              +--------------------------------------------------+

              we will work with the 1s 3p 5d 7f 9g ... basis set
              ...i.e. with spherical basis functions...

   type   atoms  prim   cont   basis
   ---------------------------------------------------------------------------
    c       12     50     30   cc-pVTZ   [4s3p2d1f|18s5p2d1f]
    n        4     50     30   cc-pVTZ   [4s3p2d1f|18s5p2d1f]
    h        4     16     14   cc-pVTZ   [3s2p1d|5s2p1d]
   ---------------------------------------------------------------------------
   total:   20    864    536
   ---------------------------------------------------------------------------

   total number of primitive shells          :   60
   total number of contracted shells         :  184
   total number of cartesian basis functions :  620
   total number of SCF-basis functions       :  536


 integral neglect threshold       :  0.54E-13
 integral storage threshold THIZE :  0.10E-04
 integral storage threshold THIME :         5

 RI-J AUXILIARY BASIS SET information:

              we will work with the 1s 3p 5d 7f 9g ... basis set
              ...i.e. with spherical basis functions...

   type   atoms  prim   cont   basis
   ---------------------------------------------------------------------------
    c       12     70     49   cc-pVTZ   [6s4p3d1f1g|12s5p4d2f1g]
    n        4     70     49   cc-pVTZ   [6s4p3d1f1g|12s5p4d2f1g]
    h        4     16     11   cc-pVTZ   [3s1p1d|5s2p1d]
   ---------------------------------------------------------------------------
   total:   20   1184    828
   ---------------------------------------------------------------------------

   total number of primitive shells          :   56
   total number of contracted shells         :  260
   total number of cartesian basis functions : 1024
   total number of SCF-basis functions       :  828


 symmetry group of the molecule :   c1 

 the group has the following generators :
   c1(z)

    1 symmetry operations found

 there are 1 real representations :   a   

 maximum number of shells which are related by symmetry :  1


    mo occupation :
   irrep   mo's   occupied
    a      536       52
 
 number of basis functions   :          536
 number of occupied orbitals :           52
 
  
           ------------------
           density functional
           ------------------
 PBE functional
 exchange:    LDA + PBE
 correlation: LDA (PW) + PBE
 spherical integration : Lebedev's spherical grid
 spherical gridsize    :           6
    i.e. gridpoints    :         974
 value for diffuse not defined
 radial integration    : Chebyshev 2nd kind (scaling 3)
 radial gridsize       :          10
 integration cells     :          20
 partition function    : becke
 partition sharpness   :           3
  

 biggest AO integral is expected to be     4.229423036
  
           ------------------------
               RI-J - INFORMATION
           ------------------------
 Contributions to RI integral batches: 
  neglected integral batches:        4085
  direct contribution:                  0
  memory contribution:       12935
 Memory core needed for (P|Q) and Cholesky      6 MByte
 Memory core minimum needed except of (P|Q)     2 MByte
 Total minimum memory core needed (sum)         7 MByte
  
 ****************************************
 Memory allocated for RI-J  1093 MByte
 ****************************************
                                            

          ------------------------
          nuclear repulsion energy  :   835.026842054    
          ------------------------

 
          -----------------
          -S,T+V- integrals
          -----------------

 1e-integrals will be neglected if expon. factor < 0.539026E-14
 
   Difference densities algorithm switched on.
   The maximal number of linear combinations of
   difference densities is          20 .

 automatic virtual orbital shift switched on 
      shift if e(lumo)-e(homo) < 0.10000000    


 DIIS switched on: error vector is FDS-SDF
 Max. Iterations for DIIS is     :   4
 DIIS matrix (see manual) 
    Scaling factor of diagonals  :  1.200
    threshold for scaling factor :  0.000

 scf convergence criterion : increment of total energy < .1000000D-08
                  and increment of one-electron energy < .1000000D-05


 <geterg> : there is no data group $energy 

  MOs are in ASCII format !


 reading orbital data $scfmo  from file mos . 

 orbital characterization : expanded
 
 mo provided and orthogonalized by Cholesky decomposition

 DSCF restart information will be dumped onto file mos


 Starting SCF iterations

          Overall gridpoints after grid construction =        671470

 ITERATION  ENERGY          1e-ENERGY        2e-ENERGY     RMS[dD(SAO)]   TOL
   1  -673.93876770054    -2536.3197081     1027.3540984    0.000D+00 0.538D-13
                            Exc = -91.7311653362     Coul =  1119.08526372    
                              N = 103.99999944    
                            current damping = 0.700
 
          max. resid. norm for Fia-block=  4.532D-01 for orbital     43a         
          max. resid. fock norm         =  5.209D+00 for orbital    516a         

 ITERATION  ENERGY          1e-ENERGY        2e-ENERGY     RMS[dD(SAO)]   TOL
   2  -677.40689253964    -2559.3708208     1046.9370862    0.498D-02 0.362D-13
                            Exc = -92.3879733657     Coul =  1139.32505961    
                              N = 103.99999957    
                            current damping = 0.650
 
          Norm of current diis error:  3.3092    
          max. resid. norm for Fia-block=  1.649D-01 for orbital      3a         
          max. resid. fock norm         =  4.071D-01 for orbital    483a         

 ITERATION  ENERGY          1e-ENERGY        2e-ENERGY     RMS[dD(SAO)]   TOL
   3  -677.82433708209    -2566.4171481     1053.5659689    0.291D-02 0.277D-13
                            Exc = -93.0235462761     Coul =  1146.58951522    
                              N = 103.99999962    
                            current damping = 0.550
 
          Norm of current diis error:  1.6867    
          max. resid. norm for Fia-block=  6.903D-02 for orbital      3a         
          max. resid. fock norm         =  9.431D-02 for orbital    231a         

 ITERATION  ENERGY          1e-ENERGY        2e-ENERGY     RMS[dD(SAO)]   TOL
   4  -677.95845568420    -2569.6762253     1056.6909276    0.243D-02 0.232D-13
                            Exc = -92.9354907656     Coul =  1149.62641833    
                              N = 103.99999964    
                            current damping = 0.450
 
          Norm of current diis error: 0.89404    
          max. resid. norm for Fia-block=  3.955D-02 for orbital     20a         
          max. resid. fock norm         =  6.554D-02 for orbital    429a         

 ITERATION  ENERGY          1e-ENERGY        2e-ENERGY     RMS[dD(SAO)]   TOL
   5  -677.99047478189    -2569.9662909     1056.9489740    0.893D-03 0.217D-13
                            Exc = -93.1074148919     Coul =  1150.05638893    
                              N = 103.99999964    
                            current damping = 0.300
 
          Norm of current diis error: 0.35222    
          max. resid. norm for Fia-block=  8.481D-03 for orbital     31a         
          max. resid. fock norm         =  1.770D-02 for orbital     19a         
          irrep a   : virtual orbitals shifted by    0.01981
          mo-orthogonalization: Cholesky decomposition

 ITERATION  ENERGY          1e-ENERGY        2e-ENERGY     RMS[dD(SAO)]   TOL
   6  -677.99595645276    -2570.3859119     1057.3631134    0.491D-03 0.206D-13
                            Exc = -93.1088504020     Coul =  1150.47196376    
                              N = 103.99999963    
                            current damping = 0.150
 
          Norm of current diis error: 0.14709    
          max. resid. norm for Fia-block=  6.208D-03 for orbital     50a         
          max. resid. fock norm         =  7.430D-03 for orbital     25a         
          irrep a   : virtual orbitals shifted by    0.03864

 ITERATION  ENERGY          1e-ENERGY        2e-ENERGY     RMS[dD(SAO)]   TOL
   7  -677.99615807460    -2570.8986365     1057.8756364    0.230D-03 0.202D-13
                            Exc = -93.1073798887     Coul =  1150.98301625    
                              N = 103.99999964    
                            current damping = 0.050
 
          Norm of current diis error: 0.13962    
          max. resid. norm for Fia-block=  2.189D-03 for orbital     50a         
          max. resid. fock norm         =  4.458D-03 for orbital     21a         
          irrep a   : virtual orbitals shifted by    0.04392

 ITERATION  ENERGY          1e-ENERGY        2e-ENERGY     RMS[dD(SAO)]   TOL
   8  -677.99695134754    -2570.5820569     1057.5582635    0.669D-04 0.201D-13
                            Exc = -93.1101493640     Coul =  1150.66841290    
                              N = 103.99999963    
                            current damping = 0.100
 
          Norm of current diis error: 0.18576E-01
          max. resid. norm for Fia-block=  7.207D-04 for orbital     28a         
          max. resid. fock norm         =  9.802D-04 for orbital    246a         
          irrep a   : virtual orbitals shifted by    0.04130

 ITERATION  ENERGY          1e-ENERGY        2e-ENERGY     RMS[dD(SAO)]   TOL
   9  -677.99696269914    -2570.6080833     1057.5842786    0.218D-04 0.200D-13
                            Exc = -93.1136526849     Coul =  1150.69793125    
                              N = 103.99999963    
                            current damping = 0.150
 
          Norm of current diis error: 0.12203E-01
          max. resid. norm for Fia-block=  4.085D-04 for orbital     28a         
          max. resid. fock norm         =  6.235D-04 for orbital    530a         
          irrep a   : virtual orbitals shifted by    0.03868

 ITERATION  ENERGY          1e-ENERGY        2e-ENERGY     RMS[dD(SAO)]   TOL
  10  -677.99696776811    -2570.6120191     1057.5882093    0.975D-05 0.198D-13
                            Exc = -93.1121483386     Coul =  1150.70035766    
                              N = 103.99999963    
                            current damping = 0.050
 
          Norm of current diis error: 0.66372E-02
          max. resid. norm for Fia-block=  1.236D-04 for orbital     52a         
          max. resid. fock norm         =  1.936D-04 for orbital    529a         
          irrep a   : virtual orbitals shifted by    0.04401
          mo-orthogonalization: Cholesky decomposition

 ITERATION  ENERGY          1e-ENERGY        2e-ENERGY     RMS[dD(SAO)]   TOL
  11  -677.99696928139    -2570.6021605     1057.5783492    0.350D-05 0.196D-13
                            Exc = -93.1123725543     Coul =  1150.69072175    
                              N = 103.99999963    
                            current damping = 0.100
 
          Norm of current diis error: 0.21910E-02
          max. resid. norm for Fia-block=  7.887D-05 for orbital     50a         
          max. resid. fock norm         =  1.047D-04 for orbital    368a         
          irrep a   : virtual orbitals shifted by    0.04137

 ITERATION  ENERGY          1e-ENERGY        2e-ENERGY     RMS[dD(SAO)]   TOL
  12  -677.99696916531    -2570.6091792     1057.5853680    0.315D-05 0.195D-13
                            Exc = -93.1118754220     Coul =  1150.69724345    
                              N = 103.99999963    
                            current damping = 0.150
 
          Norm of current diis error: 0.26693E-02
          max. resid. norm for Fia-block=  2.986D-05 for orbital     50a         
          max. resid. fock norm         =  5.556D-05 for orbital     21a         
          irrep a   : virtual orbitals shifted by    0.03869

 ITERATION  ENERGY          1e-ENERGY        2e-ENERGY     RMS[dD(SAO)]   TOL
  13  -677.99696944159    -2570.6061725     1057.5823610    0.111D-05 0.194D-13
                            Exc = -93.1120014432     Coul =  1150.69436246    
                              N = 103.99999963    
                            current damping = 0.200
 
          Norm of current diis error: 0.96448E-03
          max. resid. norm for Fia-block=  2.100D-05 for orbital     50a         
          max. resid. fock norm         =  2.594D-05 for orbital    368a         
          irrep a   : virtual orbitals shifted by    0.03602

 ITERATION  ENERGY          1e-ENERGY        2e-ENERGY     RMS[dD(SAO)]   TOL
  14  -677.99696948773    -2570.6049111     1057.5810996    0.835D-06 0.191D-13
                            Exc = -93.1121492252     Coul =  1150.69324879    
                              N = 103.99999963    
                            current damping = 0.050
 
          Norm of current diis error: 0.95358E-04
          max. resid. norm for Fia-block=  2.747D-06 for orbital     31a         
          max. resid. fock norm         =  4.896D-06 for orbital    526a         
          irrep a   : virtual orbitals shifted by    0.04402

 DENSITY CONVERGED !


 ITERATION  ENERGY          1e-ENERGY        2e-ENERGY     RMS[dD(SAO)]   TOL
  15  -677.99696948807    -2570.6048995     1057.5810880    0.680D-07 0.190D-13
                            Exc = -93.1121424034     Coul =  1150.69323040    
                              N = 103.99999963    
                            current damping = 0.050
 
          Norm of current diis error: 0.37969E-04
          max. resid. norm for Fia-block=  1.064D-06 for orbital     32a         
          max. resid. fock norm         =  1.562D-06 for orbital     27a         
          irrep a   : virtual orbitals shifted by    0.04402
          mo-orthogonalization: Cholesky decomposition

 DENSITY CONVERGED !


 ITERATION  ENERGY          1e-ENERGY        2e-ENERGY     RMS[dD(SAO)]   TOL
  16  -677.99696948810    -2570.6049496     1057.5811381    0.216D-07 0.190D-13
                            Exc = -93.1121420436     Coul =  1150.69328012    
                              N = 103.99999963    
                            current damping = 0.100
 
          Norm of current diis error: 0.18977E-04
          max. resid. norm for Fia-block=  5.475D-07 for orbital     32a         
          max. resid. fock norm         =  8.063D-07 for orbital     27a         
          irrep a   : virtual orbitals shifted by    0.04135

 ENERGY & DENSITY CONVERGED !


 ITERATION  ENERGY          1e-ENERGY        2e-ENERGY     RMS[dD(SAO)]   TOL
  17  -677.99696948813    -2570.6049510     1057.5811395    0.128D-07 0.189D-13
                            Exc = -93.1121409064     Coul =  1150.69328041    
                              N = 103.99999963    
                            current damping = 0.050
 
          Norm of current diis error: 0.75732E-05
          max. resid. norm for Fia-block=  1.799D-07 for orbital     36a         
          max. resid. fock norm         =  2.796D-07 for orbital     25a         

 End of SCF iterations

   convergence criteria satisfied after   17 iterations


                  ------------------------------------------ 
                 |  total energy      =   -677.99696948813  |
                  ------------------------------------------ 
                 :  kinetic energy    =    673.82173461222  :
                 :  potential energy  =  -1351.81870410035  :
                 :  virial theorem    =      1.99384180894  :
                 :  wavefunction norm =      1.00000000000  :
                  .......................................... 


 <geterg> : there is no data group $energy 


 <skperg> : $end is missing 


 orbitals $scfmo  will be written to file mos

    irrep                 48a         49a         50a         51a         52a   
 eigenvalues H         -0.33549    -0.33388    -0.32030    -0.30430    -0.25528
            eV          -9.1293     -9.0853     -8.7160     -8.2805     -6.9466
 occupation              2.0000      2.0000      2.0000      2.0000      2.0000 

    irrep                 53a         54a         55a         56a         57a   
 eigenvalues H         -0.20196    -0.10566    -0.10110    -0.07736    -0.07207
            eV          -5.4957     -2.8750     -2.7511     -2.1050     -1.9611
 
 
 
 
 ==============================================================================
                           electrostatic moments
 ==============================================================================

 reference point for electrostatic moments:    0.00000   0.00000   0.00000

 
              nuc           elec       ->  total
 ------------------------------------------------------------------------------
                          charge      
 ------------------------------------------------------------------------------
         104.000000    -104.000000      -0.000000
 
 ------------------------------------------------------------------------------
                       dipole moment  
 ------------------------------------------------------------------------------
   x       0.000000      -0.000000      -0.000000
   y       0.000000       0.000000       0.000000
   z       0.000000      -0.000000      -0.000000
 
   | dipole moment | =     0.0000 a.u. =     0.0000 debye 
 
 ------------------------------------------------------------------------------
                     quadrupole moment
 ------------------------------------------------------------------------------
  xx     813.002951    -890.889473     -77.886522
  yy    3291.377585   -3389.061611     -97.684026
  zz       0.000000     -66.418657     -66.418657
  xy       0.000000      -0.000000      -0.000000
  xz       0.000000      -0.000000      -0.000000
  yz       0.000000       0.000000       0.000000
 
     1/3  trace=     -80.663068
     anisotropy=      27.395040
 
 ==============================================================================
 
 


    ------------------------------------------------------------------------
         total  cpu-time :  9 minutes and 53 seconds
         total wall-time :  9 minutes and 52 seconds
    ------------------------------------------------------------------------


   ****  ridft : all done  ****


    2015-12-22 02:26:27.843 

