
   OpenMP run-time library returned nthreads =  8

 ricc2 (c-13-38) : TURBOMOLE V7.3 ( 22142 ) 4 Jul 2018 at 18:12:42
 Copyright (C) 2018 TURBOMOLE GmbH, Karlsruhe


    2019-03-14 21:30:47.176 



                              R I C C 2 - PROGRAM

                          the quantum chemistry groups
                             at the universities in
                           Karlsruhe, Bochum & Mainz
                                   Germany



   *-----------------------------------------------------------------------*
   |                     program will use  8 thread(s)                     |
   *-----------------------------------------------------------------------*


              +--------------------------------------------------+
              | Atomic coordinate, charge and isotop information |
              +--------------------------------------------------+

                    atomic coordinates            atom    charge  isotop
          5.37743775   -1.46325792   -2.07862521    c      6.000     0
          3.66733385   -0.28338763   -0.32337482    c      6.000     0
          8.94745035    0.29312166    0.09338510    c      6.000     0
          4.69780582    1.19032666    1.67701024    c      6.000     0
          7.27457268    1.46479136    1.82986021    c      6.000     0
          8.04304064   -1.18270726   -1.84154619    c      6.000     0
          3.08555250    2.42769649    3.53216671    n      7.000     0
          4.06424285   -2.74067573   -3.78139467    n      7.000     0
          1.59716933   -2.36163331   -3.10691744    o      8.000     0
          1.31621704   -0.85995627   -0.97342629    n      7.000     0
         10.01531217   -2.64997211   -3.95534081    cl    17.000     0
          0.77948502    2.29406818    3.19187731    o      8.000     0
          4.11616747    3.54290937    5.30900424    o      8.000     0
         10.96385430    0.57485405    0.30208962    h      1.000     0
          8.03450647    2.60855049    3.34882355    h      1.000     0
 
       center of nuclear mass  :    5.27776706   -0.25727036   -0.37634153
       center of nuclear charge:    5.28509175   -0.22160595   -0.32856491

              +--------------------------------------------------+
              |               basis set information              |
              +--------------------------------------------------+

              we will work with the 1s 3p 5d 7f 9g ... basis set
              ...i.e. with spherical basis functions...

   type   atoms  prim   cont   basis
   ---------------------------------------------------------------------------
    c        6     77     55   cc-pVQZ   [5s4p3d2f1g|21s6p3d2f1g]
    n        3     77     55   cc-pVQZ   [5s4p3d2f1g|21s6p3d2f1g]
    o        3     77     55   cc-pVQZ   [5s4p3d2f1g|21s6p3d2f1g]
    cl       1    137     59   cc-pVQZ   [6s5p3d2f1g|42s19p3d2f1g]
    h        2     32     30   cc-pVQZ   [4s3p2d1f|6s3p2d1f]
   ---------------------------------------------------------------------------
   total:   15   1125    779
   ---------------------------------------------------------------------------

   total number of primitive shells          :  178
   total number of contracted shells         :  217
   total number of cartesian basis functions :  984
   total number of SCF-basis functions       :  779


 symmetry group of the molecule :   c1 

 the group has the following generators :
   c1(z)

    1 symmetry operations found

 there are 1 real representations :   a   


   =========================================================================


     restricted closed shell calculation for the wavefunction models:
               MP2        - Second Order Moeller Plesset PT


     global parameters for ricc2 program:

        hard restart (reuse of interm.) :  enabled 
        soft restart (reuse of vectors) :  disabled
        threshold for vector function   :    0.100000E-05
        convergence threshold energy    :    0.100000E-06
        linear dependence threshold     :    0.100000E-13
        global print level              :      1
        maximum number of iterations    :   300
        maximum number DIIS vectors     :    10
        max. dim. of reduced space      :   100
        core memory limit (MB)          : 16000


     MP2 energy only: Energy will be calculated directly from T2 amplitudes!

     Scratch Directory : 


   =========================================================================

    der. integral neglect threshold  :  0.10E-07
    integral neglect threshold       :  0.34E-11
    integral storage threshold THIZE :  0.10E-04
    integral storage threshold THIME :         5


                  +------------------------------------------+
                  |     Auxiliary basis set information      |
                  +------------------------------------------+

              we will work with the 1s 3p 5d 7f 9g ... basis set
              ...i.e. with spherical basis functions...

   type   atoms  prim   cont   basis
   ---------------------------------------------------------------------------
    c        6    132    132   cc-pVQZ   [8s7p6d5f3g1h|8s7p6d5f3g1h]
    n        3    132    132   cc-pVQZ   [8s7p6d5f3g1h|8s7p6d5f3g1h]
    o        3    132    132   cc-pVQZ   [8s7p6d5f3g1h|8s7p6d5f3g1h]
    cl       1    158    158   cc-pVQZ   [11s9p8d6f3g1h|11s9p8d6f3g1h]
    h        2     55     55   cc-pVQZ   [5s4p3d2f1g|5s4p3d2f1g]
   ---------------------------------------------------------------------------
   total:   15   1852   1852
   ---------------------------------------------------------------------------

   total number of primitive shells          :  143
   total number of contracted shells         :  428
   total number of cartesian basis functions : 2524
   total number of SCF-basis functions       : 1852


  ----------------------------------------------------------------------------
  hard_restart flag is disabled because the check sum for the
  auxiliary basis "$chkaux" differs from the reference value:
  reference value:     2265318325.96159    
  computed value :     15756677691.1748    
  relative error :     5.95561304148563    
  tolerance      :    0.100000000000000E-11
  the calculation will proceed...
  ----------------------------------------------------------------------------

 maximum number of shells which are related by symmetry :  1


 The symmetry information takes   1 MB

*---------------------------------------------------------------------*
|               simplified C1 algorithm will be applied               |
*---------------------------------------------------------------------*
  MOs are in ASCII format !


 reading orbital data $scfmo  from file mos
 orbital characterization : scfconv=7



              +--------------------------------------------+
              | list of orbitals that will be kept frozen: |
              +--------------------------------------------+
              |   irrep   index      energy     occ/vir    |
              +--------------------------------------------+
              |   a         1     -104.8904     occupied   |
              |   a         2      -20.7204     occupied   |
              |   a         3      -20.6195     occupied   |
              |   a         4      -20.6129     occupied   |
              |   a         5      -15.8725     occupied   |
              |   a         6      -15.6983     occupied   |
              |   a         7      -15.6873     occupied   |
              |   a         8      -11.3784     occupied   |
              |   a         9      -11.3492     occupied   |
              |   a        10      -11.3412     occupied   |
              |   a        11      -11.3378     occupied   |
              |   a       ...        ...        occupied   |
              |   a        17       -8.0807     occupied   |
              +--------------------------------------------+



   Molecular Orbital Statistic:
   ============================

   -----------------------------
   orbitals in total:
   -----------------------------
    frozen occupied :     17
    active occupied :     33
    active virtual  :    729
    frozen virtual  :      0
    all together    :    779
   -----------------------------


     time in riccmos       cpu:  3.19 sec    wall:  0.82 sec    ratio:  3.9

     total memory allocated for calculation of (Q|P)**(-1/2) : 40 MiB


     calculation of (P|Q) ...
     time in lp2sym        cpu:  1.03 sec    wall:  0.13 sec    ratio:  7.9


     calculation of the Cholesky decomposition of (P|Q)**(-1) ...
     time in invmetri      cpu:  3.36 sec    wall:  0.51 sec    ratio:  6.6

   threshold for RMS(d[D]) in SCF was     :  0.10E-06
   integral neglect threshold             :  0.34E-11
   derivative integral neglect threshold  :  0.10E-07


   =========================================================================

     Energy of reference wave function is -1075.8084180119999
     Maximum orbital residual is           0.2343026818634E-04


     Number of symmetry-nonredundant auxiliary basis functions:     1852

     Block lengths for integral files:
        frozen occupied (BOI):        1 MiB
        active occupied (BJI):        1 MiB
        active virtual  (BAI):       11 MiB
        frozen virtual  (BGI):        0 MiB
               general  (BTI):       12 MiB

   =========================================================================




   **************************************************************************
   *                                                                        *
   *          OPTIMIZATION OF THE GROUND STATE CLUSTER AMPLITUDES           *
   *                                                                        *
   **************************************************************************


   Iter.   MP2 energy       Norm(Omega)   Norm(t1)  Norm(t2)     cpu    wall
   ...........................................................................
    1  -1078.4304718577     ------          0.00000   0.53033    2.06    0.27
   ...........................................................................


     time in total         cpu:  2 min  3 s  wall:  0 min 16 s  ratio:  7.8


     **********************************************************************
     *                                                                    *
     *   RHF  energy                             :  -1075.8084180120      *
     *   MP2 correlation energy (doubles)        :     -2.6220538457      *
     *                                                                    *
     *   Final MP2 energy                        :  -1078.4304718577      *
     *                                                                    *
     *    E(S)   =     -1.5875635851      E(T)   =     -1.0344902606      *
     *    E(OS)  =     -1.9323936720      E(SS)  =     -0.6896601737      *
     *                                                                    *
     *   SCS-MP2 energy                          :  -1078.3571771429      *
     *   (computed with  C(OS) =   1.2000  and  C(SS) =   0.3333)         *
     *                                                                    *
     *   SOS-MP2 energy                          :  -1078.3205297856      *
     *   (computed with  C(OS) =   1.3000)                                *
     *                                                                    *
     *   Norm of MP1 T2 amplitudes               :      0.5303319373      *
     *                                                                    *
     **********************************************************************



    ------------------------------------------------------------------------
         total  cpu-time :  3 minutes and 27 seconds
         total wall-time :  27.66 seconds
    ------------------------------------------------------------------------

   ****  ricc2 : all done  ****


    2019-03-14 21:31:14.812 

