Using Slurm to start processes with PMI2
STARTING ridft ON 8 PROCESSORS!
RUNNING PROGRAM /beegfs/modfac/apps/TURBOMOLE/7.0_intel_GA/bin/em64t-unknown-linux-gnu_mpi/ridft_mpi.
PLEASE WAIT UNTIL ridft HAS FINISHED.
Look for the output in slave1.output.
  this is node-proc. number 1 running on node c-16-18.local
  the total number of node-proc. spawned is            8
  parallel platform: MPP, or cluster with fast interconnect

 ridft (c-16-18.local) : TURBOMOLE V7.0.2( ) 15 Jan 2016 at 17:47:42
 Copyright (C) 2016 TURBOMOLE GmbH, Karlsruhe


    2017-11-13 12:08:32.344 



                                  r i d f t

                        DFT program with RI approximation 
                                for coulomb part 




                                                 
                                 References:     
                                                 
          TURBOMOLE:                             
              R. Ahlrichs, M. Baer, M. Haeser, H. Horn, and
              C. Koelmel
              Electronic structure calculations on workstation
              computers: the program system TURBOMOLE
              Chem. Phys. Lett. 162: 165 (1989)
          Density Functional:                              
              O. Treutler and R. Ahlrichs                      
              Efficient Molecular Numerical Integration Schemes
              J. Chem. Phys. 102: 346 (1995)                   
          Parallel Version:                                
              Performance of parallel TURBOMOLE for Density    
              Functional Calculations                          
              M. v. Arnim and R. Ahlrichs                      
              J. Comp. Chem. 19: 1746 (1998)                   
          RI-J Method:                                     
              Auxiliary Basis Sets to approximate Coulomb      
              Potentials                                       
              Chem. Phys. Lett. 240: 283 (1995)                
              K. Eichkorn, O. Treutler, H. Oehm, M. Haeser     
              and R. Ahlrichs                                  
              Chem. Phys. Lett. 242: 652 (1995)                
                                                           
              Auxiliary Basis Sets for Main Row Atoms and their
              Use to approximate Coulomb Potentials            
              K. Eichkorn, F. Weigend, O. Treutler and         
              R. Ahlrichs                                      
              Theo. Chem. Acc. 97: 119 (1997)                   
                                                           
              Accurate Coulomb-fitting basis sets for H to Rn 
              F. Weigend                                        
              Phys. Chem. Chem. Phys. 8: 1057 (2006)            
                                                           
          Multipole accelerated RI-J (MARI-J):             
              Fast evaluation of the Coulomb potential for     
              electron densities using multipole accelerated   
              resolution of identity approximation             
              M. Sierka, A. Hogekamp and R. Ahlrichs           
              J. Chem. Phys. 118: 9136 (2003)                  
          RI-JK Method:                                     
              A fully direct RI-HF algorithm: Implementation,
              optimised auxiliary basis sets, demonstration of
              accuracy and efficiency                         
              F. Weigend                                      
              Phys. Chem. Chem. Phys. 4: 4285 (2002)           
          Two-component HF and DFT with spin-orbit coupling:  
              Self-consistent treatment of spin-orbit         
              interactions with efficient Hartree-Fock and    
              density functional methods                      
              M. K. Armbruster, F. Weigend, C. van Wüllen and 
              W. Klopper                                      
              Phys. Chem. Chem. Phys. 10: 1748 (2008)         
          Relativistic all-electron 2c calculations           
              An efficient implementation of two-component    
              relativistic exact-decoupling methods for large 
              molecules                                       
              D. Peng, N. Middendorf, F. Weigend, M. Reiher   
              J. Chem. Phys. 138, 184105 (2013)               
                                         


 


              +--------------------------------------------------+
              |      general information about current run       |
              +--------------------------------------------------+

 

 SCF run will be profiled !


 DENSITY CONVERGENCE CHECK SWITCHED ON !
 SCF CONVERGENCE IF RMS(delta[D]) <     0.1000000000E-06

 TPSS meta-GGA functional
 exchange:    LDA + TPSS
 correlation: LDA (PW) + TPSS
 A DFT calculation using the RI-J approximation will be carried out.
 Allocatable memory for RI due to $ricore (MB):        5000


              +--------------------------------------------------+
              | Atomic coordinate, charge and isotop information |
              +--------------------------------------------------+

                    atomic coordinates            atom    charge  isotop
         -2.08422109    1.99555174   -8.11450518    n      7.000     0
         -1.46615290   -0.29381273   -9.49317926    c      6.000     0
          1.48202944   -0.32705150   -9.46750317    c      6.000     0
          2.12752020    1.91935893   -8.02345572    n      7.000     0
          0.03150230    3.30585156   -7.32357580    c      6.000     0
         -2.13425235   -2.63918245   -8.23522296    n      7.000     0
         -0.04851702   -4.09667700   -7.64143889    c      6.000     0
          2.07985828   -2.71503133   -8.25867220    n      7.000     0
         -4.69068293   -3.60004734   -8.04959365    c      6.000     0
         -6.12137493   -2.57790600   -5.94552817    n      7.000     0
         -7.58344263   -0.26282406   -6.05944936    c      6.000     0
         -9.07762716   -0.27051108   -3.51458731    c      6.000     0
         -8.24077800   -2.57958351   -2.29949057    n      7.000     0
         -6.60899779   -3.97273156   -3.79098300    c      6.000     0
         -8.26799252    2.06268880   -2.30012022    n      7.000     0
         -6.60992167    3.42444076   -3.76563686    c      6.000     0
         -6.12224723    2.06348494   -5.92012496    n      7.000     0
         -9.33498802   -3.59004823   -0.00051457    c      6.000     0
         -8.23896821   -2.57822272    2.29696495    n      7.000     0
         -9.07714698   -0.27033931    3.51359803    c      6.000     0
         -7.58347796   -0.26356029    6.05844592    c      6.000     0
         -6.11823799   -2.57654691    5.94234493    n      7.000     0
         -6.60587615   -3.97098829    3.78755843    c      6.000     0
         -6.12457632    2.06432927    5.92185859    n      7.000     0
         -6.61266952    3.42662981    3.76823296    c      6.000     0
         -8.26851862    2.06412877    2.30082434    n      7.000     0
         -4.68976509   -3.59995871    8.04724000    c      6.000     0
         -2.13320998   -2.63973368    8.23407968    n      7.000     0
         -1.46572828   -0.29502197    9.49412903    c      6.000     0
          1.48247976   -0.32643885    9.46596267    c      6.000     0
          2.08064819   -2.71624170    8.26093798    n      7.000     0
         -0.04735276   -4.09832465    7.64420034    c      6.000     0
          2.12539993    1.91773244    8.01739442    n      7.000     0
          0.02804505    3.30331933    7.31989840    c      6.000     0
         -2.08624726    1.99540888    8.11865464    n      7.000     0
          4.60712321   -3.76402435    8.09501058    c      6.000     0
          6.08310685   -2.83023357    5.98572680    n      7.000     0
          7.56945279   -0.52932060    6.03870905    c      6.000     0
          9.09944367   -0.64098207    3.51883409    c      6.000     0
          8.11440994   -2.89522994    2.29359406    n      7.000     0
          6.47874104   -4.23856577    3.82271679    c      6.000     0
          8.49495732    1.73959967    2.30162728    n      7.000     0
          6.83592215    3.19452231    3.69443254    c      6.000     0
          6.14366350    1.80887515    5.79870098    n      7.000     0
         -0.08277057   -6.25096177    6.78964767    o      8.000     0
         -4.60120459    3.05905276    7.97360210    c      6.000     0
          0.03187174    5.35254930    6.23208095    o      8.000     0
          4.67031471    2.91467882    7.82205249    c      6.000     0
         -5.78927654   -6.08508237    3.31507645    o      8.000     0
         -9.36756746    3.06828180   -0.00023376    c      6.000     0
         -5.75502771    5.53692610    3.26376641    o      8.000     0
          9.15943737   -3.96373930   -0.00044333    c      6.000     0
          8.11404862   -2.89472784   -2.29421332    n      7.000     0
          9.09997411   -0.64146111   -3.52065314    c      6.000     0
          7.57064446   -0.53077645   -6.04070593    c      6.000     0
          6.08524715   -2.83221325   -5.98783800    n      7.000     0
          6.47934821   -4.23902157   -3.82366184    c      6.000     0
          6.14365443    1.80698712   -5.80148965    n      7.000     0
          6.83871308    3.19523172   -3.69966293    c      6.000     0
          8.49627616    1.74018738   -2.30515823    n      7.000     0
          4.60593042   -3.76419707   -8.09543028    c      6.000     0
          5.59093448   -6.33077265   -3.37235518    o      8.000     0
          9.66654084    2.65106410   -0.00128993    c      6.000     0
          6.14336341    5.34715754   -3.19736559    o      8.000     0
          4.67378481    2.91262487   -7.82771392    c      6.000     0
          5.59039912   -6.33051130    3.37215373    o      8.000     0
          6.13861642    5.34529994    3.18974508    o      8.000     0
         -5.79372420   -6.08755243   -3.31933721    o      8.000     0
         -4.59877969    3.06070608   -7.97044871    c      6.000     0
         -5.75001465    5.53317934   -3.25874295    o      8.000     0
         -0.08440840   -6.24859545   -6.78530092    o      8.000     0
          0.03750823    5.35624221   -6.23801204    o      8.000     0
         -1.51338642    6.31022453    0.00492784    n      7.000     0
          0.50967728    4.32748456    0.00163934    c      6.000     0
         -0.63733111    1.68570941    0.00059810    c      6.000     0
          1.39240067   -0.37959156    0.00306740    c      6.000     0
          0.24920385   -3.03569026    0.00701447    c      6.000     0
         -2.28783379   -0.23593741   11.39164783    h      1.000     0
          2.34050122   -0.23373512   11.34630215    h      1.000     0
          5.64291366    2.60691991    9.62344129    h      1.000     0
          4.51524416    4.93202250    7.42446639    h      1.000     0
          5.62128896   -3.35085954    9.85014512    h      1.000     0
          4.40185228   -5.80009787    7.84535678    h      1.000     0
        -11.13215120   -0.27383095    3.74459665    h      1.000     0
         -8.78760824   -0.25089478    7.73974584    h      1.000     0
         -4.40233397    5.08554555    7.65291595    h      1.000     0
         -5.58014679    2.70631383    9.76080341    h      1.000     0
         -4.55390323   -5.63747786    7.76284321    h      1.000     0
         -5.70085342   -3.18242107    9.80350498    h      1.000     0
         11.14481842   -0.80930659   -3.78866563    h      1.000     0
          8.75470452   -0.47863758   -7.73700253    h      1.000     0
          5.64717556    2.60083348   -9.62792864    h      1.000     0
          4.52189732    4.93078662   -7.43301929    h      1.000     0
          5.61834968   -3.35113790   -9.85161552    h      1.000     0
          4.39985030   -5.80027456   -7.84630448    h      1.000     0
          8.75325189   -0.47750186    7.73521957    h      1.000     0
         11.14430271   -0.80779197    3.78727063    h      1.000     0
          9.49100286    4.70504409   -0.00114858    h      1.000     0
         11.65871640    2.09813118   -0.00070562    h      1.000     0
          8.70526777   -5.97515567   -0.00083696    h      1.000     0
         11.21113873   -3.68783154   -0.00053725    h      1.000     0
         -8.78751149   -0.24692163   -7.74076705    h      1.000     0
        -11.13256354   -0.27266972   -3.74607120    h      1.000     0
        -11.39596132    2.66734636   -0.00029215    h      1.000     0
         -9.04099330    5.10341915   -0.00071205    h      1.000     0
        -11.36850738   -3.20912649    0.00018897    h      1.000     0
         -8.98391602   -5.62165632   -0.00016422    h      1.000     0
          2.33847259   -0.23836495  -11.34880925    h      1.000     0
         -2.28959653   -0.23204079  -11.39005196    h      1.000     0
         -4.39883627    5.08669054   -7.64736753    h      1.000     0
         -5.57735566    2.71020610   -9.75830651    h      1.000     0
         -4.55461963   -5.63754155   -7.76524770    h      1.000     0
         -5.70054577   -3.18250592   -9.80656596    h      1.000     0
         -2.68770891    6.13649180    1.55901272    h      1.000     0
         -0.74185924    8.15287323    0.00631981    h      1.000     0
         -2.68445669    6.13752283   -1.55146497    h      1.000     0
          1.73115128   -4.47498260    0.00824072    h      1.000     0
         -0.93424281   -3.33558848   -1.66422001    h      1.000     0
         -0.93259515   -3.33113798    1.68014020    h      1.000     0
          2.60727782   -0.13738366    1.66494680    h      1.000     0
          2.60777690   -0.14186628   -1.65908317    h      1.000     0
         -1.85164588    1.44926952    1.66715854    h      1.000     0
         -1.85002299    1.44847281   -1.66693479    h      1.000     0
          1.66661354    4.65522354    1.67470969    h      1.000     0
          1.66343937    4.65895008   -1.67297606    h      1.000     0
          0.43503083   11.82714051    0.00441157    cl    17.000     0
 
       center of nuclear mass  :    0.01939757    0.15350509   -0.00017300
       center of nuclear charge:    0.01706401    0.13906439   -0.00015248

              +--------------------------------------------------+
              |               basis set information              |
              +--------------------------------------------------+

              we will work with the 1s 3p 5d 7f 9g ... basis set
              ...i.e. with spherical basis functions...

   type   atoms  prim   cont   basis
   ---------------------------------------------------------------------------
    n       25     77     55   cc-pVQZ   [5s4p3d2f1g|21s6p3d2f1g]
    c       40     77     55   cc-pVQZ   [5s4p3d2f1g|21s6p3d2f1g]
    o       12     77     55   cc-pVQZ   [5s4p3d2f1g|21s6p3d2f1g]
    h       48     32     30   cc-pVQZ   [4s3p2d1f|6s3p2d1f]
    cl       1    137     59   cc-pVQZ   [6s5p3d2f1g|42s19p3d2f1g]
   ---------------------------------------------------------------------------
   total:  126   7602   5734
   ---------------------------------------------------------------------------

   total number of primitive shells          :  178
   total number of contracted shells         : 1652
   total number of cartesian basis functions : 7144
   total number of SCF-basis functions       : 5734


 integral neglect threshold       :  0.47E-14
 integral storage threshold THIZE :  0.10E-04
 integral storage threshold THIME :         5

 RI-J AUXILIARY BASIS SET information:

              we will work with the 1s 3p 5d 7f 9g ... basis set
              ...i.e. with spherical basis functions...

   type   atoms  prim   cont   basis
   ---------------------------------------------------------------------------
    n       25     70     49   cc-pVQZ   [6s4p3d1f1g|12s5p4d2f1g]
    c       40     70     49   cc-pVQZ   [6s4p3d1f1g|12s5p4d2f1g]
    o       12     70     49   cc-pVQZ   [6s4p3d1f1g|12s5p4d2f1g]
    h       48     16     11   cc-pVQZ   [3s1p1d|5s2p1d]
    cl       1     77     51   cc-pVQZ   [8s4p3d1f1g|14s5p5d2f1g]
   ---------------------------------------------------------------------------
   total:  126   6235   4352
   ---------------------------------------------------------------------------

   total number of primitive shells          :  107
   total number of contracted shells         : 1412
   total number of cartesian basis functions : 5336
   total number of SCF-basis functions       : 4352


 symmetry group of the molecule :   c1 

 the group has the following generators :
   c1(z)

    1 symmetry operations found

 there are 1 real representations :   a   

 maximum number of shells which are related by symmetry :  1


    mo occupation :
   irrep   mo's   occupied
    a     5734      288
 
 number of basis functions   :         5734
 number of occupied orbitals :          288
 
  
           ------------------
           density functional
           ------------------
 TPSS meta-GGA functional
 exchange:    LDA + TPSS
 correlation: LDA (PW) + TPSS
 grinp -> nfun, dfgga, dfhybrid 
           5 F F
 iterations will be done with small grid
  
 spherical integration : Lebedev's spherical grid
 spherical gridsize    :           5
    i.e. gridpoints    :         590
 value for diffuse not defined
 radial integration    : Chebyshev 2nd kind (scaling 3)
 radial gridsize       :           8
 integration cells     :         126
 partition function    : becke
 partition sharpness   :           3
  

 <rddim> : input of entry tasksize
           from data group '$pardft' failed !

               Default values taken

 <rddim> : input of entry memdiv
           from data group '$pardft' failed !

               Default values taken
  RIDFT: memory allocation for DFT gridpoints
  MEMORY is divided by 1 as DEFAULT
 Each node can hold at most  the            1 -th part
 of the gridpoints    

 biggest AO integral is expected to be    10.299525420
  
           ------------------------
               RI-J - INFORMATION
           ------------------------
 
 
 **************************************************
 *      MEMORY ALLOCATION FOR PARALLEL RI-DFT     *
 **************************************************
 
 
MEMORY FOR (MU NU/ ALPHA), SEQUENTIAL RUN               4840 MByte
 
            DIFFERENCE IN MEMORY NEED:       DIAG./SLAVE  
 
      TOTAL DIFFERENCE :                   1495 MByte
 
      difference in xcore:                  161 MByte
      difference in fatmat:                 443 MByte
      getcor calls skipped by slaves:       892 MByte
 
 
           Integral memory available for diagonal.      4840 MByte
 
           Integral memory available for slave             0 MByte
 
         MEMORY FOR (MU NU/ ALPHA) ON DIAGONALIZER      4840 MByte
 
         MEMORY FOR (MU NU/ ALPHA) ON ONE SLAVE            0 MByte
 
         TOTAL MEMORY FOR (MU NU/ ALPHA),ALL NODES      4840 MByte
 
 Contributions to RI integral batches: 
  neglected integral batches:      894366
  direct contribution:             432354
  memory contribution:       38658
 Memory core needed for (P|Q) and Cholesky    145 MByte
 Memory core minimum needed except of (P|Q)    17 MByte
 Total minimum memory core needed (sum)       162 MByte
     number of direct tasks:         160
  
 ****************************************
 Memory allocated for RI-J  5001 MByte
 ****************************************
                                            

          ------------------------
          nuclear repulsion energy  :   16636.0620098    
          ------------------------

 
          -----------------
          -S integrals
          -----------------

 1e-integrals will be neglected if expon. factor < 0.467800E-15
 
          -----------------
          -T+V integrals
          -----------------

 1e-integrals will be neglected if expon. factor < 0.467800E-15
 Difference densities >>NOT<< switched on in parallel ridft!

 automatic virtual orbital shift switched on 
      shift if e(lumo)-e(homo) < 0.10000000    


 DIIS switched on: error vector is FDS-SDF
 Max. Iterations for DIIS is     :   4
 DIIS matrix (see manual) 
    Scaling factor of diagonals  :  1.200
    threshold for scaling factor :  0.000

 scf convergence criterion : increment of total energy < .1000000D-08
                  and increment of one-electron energy < .1000000D-05


 <geterg> : there is no data group $energy 

  MOs are in ASCII format !


 reading orbital data $scfmo  from file mos . 

 orbital characterization : expanded
 
 mo provided and orthogonalized by Cholesky decomposition

 DSCF restart information will be dumped onto file mos


 Starting SCF iterations


 ITERATION  ENERGY          1e-ENERGY        2e-ENERGY     RMS[dD(SAO)]   TOL
   1  -4271.6122258407    -38918.971354     18011.297119    0.000D+00 0.467D-14
                            Exc = -537.764214034     Coul =  18549.0613328    
                              N = 576.00187488    
                            current damping = 0.700
 
          max. resid. norm for Fia-block=  4.232D-01 for orbital    206a         
          max. resid. fock norm         =  8.794D+00 for orbital   5101a         

 ITERATION  ENERGY          1e-ENERGY        2e-ENERGY     RMS[dD(SAO)]   TOL
   2  -4284.7654480124    -38997.755661     18076.928203    0.286D-02 0.467D-14
                            Exc = -538.852938130     Coul =  18615.7811416    
                              N = 576.00158234    
                            current damping = 0.650
 
          Norm of current diis error:  9.9910    
          max. resid. norm for Fia-block=  1.659D-01 for orbital      6a         
          max. resid. fock norm         =  3.669D-01 for orbital   5355a         

 ITERATION  ENERGY          1e-ENERGY        2e-ENERGY     RMS[dD(SAO)]   TOL
   3  -4286.6572565083    -39018.996894     18096.277628    0.118D-02 0.467D-14
                            Exc = -541.314763811     Coul =  18637.5923920    
                              N = 576.00147345    
                            current damping = 0.550
 
          Norm of current diis error:  4.8790    
          max. resid. norm for Fia-block=  6.348D-02 for orbital      6a         
          max. resid. fock norm         =  9.899D-02 for orbital   3295a         

 ITERATION  ENERGY          1e-ENERGY        2e-ENERGY     RMS[dD(SAO)]   TOL
   4  -4287.2335990837    -39031.928235     18108.632626    0.596D-03 0.467D-14
                            Exc = -541.015040508     Coul =  18649.6476663    
                              N = 576.00142668    
                            current damping = 0.450
 
          Norm of current diis error:  2.2128    
          max. resid. norm for Fia-block=  3.478D-02 for orbital    101a         
          max. resid. fock norm         =  8.662D-02 for orbital   5408a         

 ITERATION  ENERGY          1e-ENERGY        2e-ENERGY     RMS[dD(SAO)]   TOL
   5  -4287.3126792120    -39027.995866     18104.621177    0.314D-03 0.467D-14
                            Exc = -541.748490701     Coul =  18646.3696680    
                              N = 576.00144402    
                            current damping = 0.500
 
          Norm of current diis error:  1.5688    
          max. resid. norm for Fia-block=  1.355D-02 for orbital    258a         
          max. resid. fock norm         =  1.622D-02 for orbital    258a         
          irrep a   : virtual orbitals shifted by    0.00966
          mo-orthogonalization: Cholesky decomposition

 ITERATION  ENERGY          1e-ENERGY        2e-ENERGY     RMS[dD(SAO)]   TOL
   6  -4287.3776158129    -39034.620339     18111.180713    0.133D-03 0.467D-14
                            Exc = -541.790677703     Coul =  18652.9713909    
                              N = 576.00145793    
                            current damping = 0.550
 
          Norm of current diis error: 0.28504    
          max. resid. norm for Fia-block=  3.685D-03 for orbital    247a         
          max. resid. fock norm         =  6.500D-03 for orbital   5538a         
          irrep a   : virtual orbitals shifted by    0.01204

 ITERATION  ENERGY          1e-ENERGY        2e-ENERGY     RMS[dD(SAO)]   TOL
   7  -4287.3796985711    -39033.767508     18110.325800    0.580D-04 0.467D-14
                            Exc = -541.694539747     Coul =  18652.0203397    
                              N = 576.00145872    
                            current damping = 0.600
 
          Norm of current diis error: 0.12330    
          max. resid. norm for Fia-block=  1.510D-03 for orbital     90a         
          max. resid. fock norm         =  3.243D-03 for orbital   5508a         
          irrep a   : virtual orbitals shifted by    0.01091

 ITERATION  ENERGY          1e-ENERGY        2e-ENERGY     RMS[dD(SAO)]   TOL
   8  -4287.3800528612    -39034.033659     18110.591596    0.185D-04 0.467D-14
                            Exc = -541.716782859     Coul =  18652.3083788    
                              N = 576.00146280    
                            current damping = 0.650
 
          Norm of current diis error: 0.42813E-01
          max. resid. norm for Fia-block=  9.798D-04 for orbital    272a         
          max. resid. fock norm         =  2.623D-03 for orbital   5532a         
          irrep a   : virtual orbitals shifted by    0.00918

 ITERATION  ENERGY          1e-ENERGY        2e-ENERGY     RMS[dD(SAO)]   TOL
   9  -4287.3800612418    -39034.189310     18110.747239    0.697D-05 0.467D-14
                            Exc = -541.738355303     Coul =  18652.4855944    
                              N = 576.00146362    
                            current damping = 0.500
 
          Norm of current diis error: 0.43227E-01
          max. resid. norm for Fia-block=  4.592D-04 for orbital    257a         
          max. resid. fock norm         =  1.071D-03 for orbital   5650a         
          irrep a   : virtual orbitals shifted by    0.01759

 ITERATION  ENERGY          1e-ENERGY        2e-ENERGY     RMS[dD(SAO)]   TOL
  10  -4287.3801093585    -39034.225222     18110.783103    0.389D-05 0.467D-14
                            Exc = -541.738003347     Coul =  18652.5211061    
                              N = 576.00146444    
                            current damping = 0.350
 
          Norm of current diis error: 0.83207E-02
          max. resid. norm for Fia-block=  1.898D-04 for orbital    261a         
          max. resid. fock norm         =  3.121D-04 for orbital   5725a         
          irrep a   : virtual orbitals shifted by    0.02592
          mo-orthogonalization: Cholesky decomposition

 ITERATION  ENERGY          1e-ENERGY        2e-ENERGY     RMS[dD(SAO)]   TOL
  11  -4287.3801100883    -39034.175082     18110.732962    0.229D-05 0.467D-14
                            Exc = -541.731387906     Coul =  18652.4643502    
                              N = 576.00146467    
                            current damping = 0.400
 
          Norm of current diis error: 0.74520E-02
          max. resid. norm for Fia-block=  1.237D-04 for orbital    261a         
          max. resid. fock norm         =  2.451D-04 for orbital   5063a         
          irrep a   : virtual orbitals shifted by    0.02312

 ITERATION  ENERGY          1e-ENERGY        2e-ENERGY     RMS[dD(SAO)]   TOL
  12  -4287.3801113078    -39034.166100     18110.723979    0.570D-06 0.467D-14
                            Exc = -541.733009226     Coul =  18652.4569881    
                              N = 576.00146480    
                            current damping = 0.250
 
          Norm of current diis error: 0.30237E-02
          max. resid. norm for Fia-block=  3.313D-05 for orbital    259a         
          max. resid. fock norm         =  5.717D-05 for orbital   5334a         
          irrep a   : virtual orbitals shifted by    0.03138

 ITERATION  ENERGY          1e-ENERGY        2e-ENERGY     RMS[dD(SAO)]   TOL
  13  -4287.3801115133    -39034.191163     18110.749042    0.237D-06 0.467D-14
                            Exc = -541.733767748     Coul =  18652.4828098    
                              N = 576.00146485    
                            current damping = 0.300
 
          Norm of current diis error: 0.11368E-02
          max. resid. norm for Fia-block=  1.338D-05 for orbital    270a         
          max. resid. fock norm         =  2.465D-05 for orbital   5627a         
          irrep a   : virtual orbitals shifted by    0.02864

 ITERATION  ENERGY          1e-ENERGY        2e-ENERGY     RMS[dD(SAO)]   TOL
  14  -4287.3801115332    -39034.183937     18110.741815    0.106D-06 0.467D-14
                            Exc = -541.733826510     Coul =  18652.4756418    
                              N = 576.00146487    
                            current damping = 0.350
 
          Norm of current diis error: 0.61762E-03
          max. resid. norm for Fia-block=  6.723D-06 for orbital    269a         
          max. resid. fock norm         =  2.193D-05 for orbital   5725a         
          irrep a   : virtual orbitals shifted by    0.02590

 DENSITY CONVERGED !


 ITERATION  ENERGY          1e-ENERGY        2e-ENERGY     RMS[dD(SAO)]   TOL
  15  -4287.3801115417    -39034.184969     18110.742848    0.519D-07 0.467D-14
                            Exc = -541.733729711     Coul =  18652.4765775    
                              N = 576.00146487    
                            current damping = 0.400
 
          Norm of current diis error: 0.20512E-03
          max. resid. norm for Fia-block=  2.798D-06 for orbital    256a         
          max. resid. fock norm         =  6.089D-06 for orbital   5725a         
          irrep a   : virtual orbitals shifted by    0.02315
          mo-orthogonalization: Cholesky decomposition

 DENSITY CONVERGED !


 ITERATION  ENERGY          1e-ENERGY        2e-ENERGY     RMS[dD(SAO)]   TOL
  16  -4287.3801115424    -39034.185282     18110.743160    0.173D-07 0.467D-14
                            Exc = -541.733755229     Coul =  18652.4769157    
                              N = 576.00146488    
                            current damping = 0.250
 
          Norm of current diis error: 0.75980E-04
          max. resid. norm for Fia-block=  1.341D-06 for orbital    256a         
          max. resid. fock norm         =  2.099D-06 for orbital   5650a         
          irrep a   : virtual orbitals shifted by    0.03138

 DENSITY CONVERGED !


 ITERATION  ENERGY          1e-ENERGY        2e-ENERGY     RMS[dD(SAO)]   TOL
  17  -4287.3801115427    -39034.185093     18110.742972    0.926D-08 0.467D-14
                            Exc = -541.733730018     Coul =  18652.4767015    
                              N = 576.00146488    
                            current damping = 0.300
 
          Norm of current diis error: 0.36406E-04
          max. resid. norm for Fia-block=  5.044D-07 for orbital    258a         
          max. resid. fock norm         =  9.177D-07 for orbital   5650a         
          irrep a   : virtual orbitals shifted by    0.02864

 DENSITY CONVERGED !


 ITERATION  ENERGY          1e-ENERGY        2e-ENERGY     RMS[dD(SAO)]   TOL
  18  -4287.3801115428    -39034.185160     18110.743039    0.277D-08 0.467D-14
                            Exc = -541.733738940     Coul =  18652.4767779    
                              N = 576.00146488    
                            current damping = 0.350
 
          Norm of current diis error: 0.10613E-04
          max. resid. norm for Fia-block=  1.588D-07 for orbital    268a         
          max. resid. fock norm         =  3.263D-07 for orbital   5650a         
          irrep a   : virtual orbitals shifted by    0.02589

 ENERGY & DENSITY CONVERGED !


 ITERATION  ENERGY          1e-ENERGY        2e-ENERGY     RMS[dD(SAO)]   TOL
  19  -4287.3788923076    -39034.185176     18110.744274    0.129D-08 0.467D-14
                            Exc = -541.732522521     Coul =  18652.4767963    
                              N = 576.00015408    
                            current damping = 0.200
 
          Norm of current diis error: 0.71839E-05
          max. resid. norm for Fia-block=  6.036D-08 for orbital    265a         
          max. resid. fock norm         =  1.249D-07 for orbital   5619a         

 End of SCF iterations

   convergence criteria satisfied after   19 iterations


                  ------------------------------------------ 
                 |  total energy      =  -4287.37889230764  |
                  ------------------------------------------ 
                 :  kinetic energy    =   4270.61630464960  :
                 :  potential energy  =  -8557.99519695724  :
                 :  virial theorem    =      1.99609024813  :
                 :  wavefunction norm =      1.00000000000  :
                  .......................................... 


 <geterg> : there is no data group $energy 


 <skperg> : $end is missing 


 orbitals $scfmo  will be written to file mos

    irrep                284a        285a        286a        287a        288a   
 eigenvalues H         -0.22279    -0.21294    -0.10784    -0.09491    -0.09485
            eV          -6.0624     -5.7944     -2.9346     -2.5825     -2.5811
 occupation              2.0000      2.0000      2.0000      2.0000      2.0000 

    irrep                289a        290a        291a        292a        293a   
 eigenvalues H         -0.03996    -0.03287    -0.03047    -0.02246    -0.02143
            eV          -1.0874     -0.8943     -0.8293     -0.6111     -0.5832
 
 
 ! grave: sending quit signal to master process
 
 
 
 
 ==============================================================================
                           electrostatic moments
 ==============================================================================

 reference point for electrostatic moments:    0.00000   0.00000   0.00000

 
              nuc           elec       ->  total
 ------------------------------------------------------------------------------
                          charge      
 ------------------------------------------------------------------------------
         576.000000    -576.000000      -0.000000
 
 ------------------------------------------------------------------------------
                       dipole moment  
 ------------------------------------------------------------------------------
   x       9.828868     -11.182485      -1.353617
   y      80.101087     -85.263945      -5.162857
   z      -0.087830       0.087170      -0.000661
 
   | dipole moment | =     5.3374 a.u. =    13.5662 debye 
 
 ------------------------------------------------------------------------------
                     quadrupole moment
 ------------------------------------------------------------------------------
  xx   19196.755764  -19428.756926    -232.001162
  yy    9548.554096  -10052.040555    -503.486459
  zz   18525.166148  -18759.126290    -233.960142
  xy    -257.428005     246.334509     -11.093497
  xz      -2.429009       2.435030       0.006020
  yz       0.554143      -0.564361      -0.010218
 
     1/3  trace=    -323.149254
     anisotropy=     271.192676
 
 ==============================================================================
 

    ridft profiling
  --------------------------------------------------------------------
             module   cpu total (s)       %  wall total (s)       %

               RIDFT         22380.7  100.00         22532.4  100.00
         Ridft_b_scf           440.1    1.97           440.6    1.96
        b_scf_prelim             0.0    0.00             0.0    0.00
        b_scf_molinp             0.0    0.00             0.0    0.00
         b_scf_init0             0.0    0.00             0.0    0.00
        b_scf_auxbas             0.0    0.00             0.0    0.00
      b_scf_symmetry             0.0    0.00             0.0    0.00
         b_scf_cosmo             0.0    0.00             0.0    0.00
        b_scf_params            60.0    0.27            60.1    0.27
          b_scf_ri-j            82.4    0.37            82.4    0.37
    b_scf_ri-j_auxpq            82.1    0.37            82.1    0.36
     ri-j_auxpq_chol             8.4    0.04             8.5    0.04
         b_scf_1elec            25.1    0.11            25.1    0.11
       b_scf_moinput           272.6    1.22           273.0    1.21
     moinput_orthmos           270.2    1.21           270.6    1.20
    b_scf_dft-dstmax             0.0    0.00             0.0    0.00
           Ridft_scf         21934.5   98.01         22085.6   98.02
          Scf_b_loop             0.0    0.00             0.0    0.00
                noga             0.0    0.00             0.0    0.00
            Scf_loop         21910.3   97.90         22054.9   97.88
     scf_loop_mkdmat            87.2    0.39            87.4    0.39
       scf_loop_ri-j          4790.7   21.41          4793.8   21.28
      parlp1.bc.dens             4.5    0.02             4.5    0.02
        parlp1.gs.gp            15.0    0.07            15.0    0.07
        parlp2.bc.gq             0.0    0.00             0.0    0.00
        scf_loop_dft         13489.5   60.27         13513.0   59.97
      pardft.bc.dens             0.0    0.00             0.0    0.00
        dft_grid_con            11.5    0.05            11.6    0.05
          dft_xcmrhf         13368.6   59.73         13392.0   59.43
          dft_getval           138.3    0.62           138.7    0.62
          funct2 dst             2.1    0.01             2.1    0.01
      funct2 f2loop1            20.2    0.09            20.4    0.09
      funct2 f2loop2            56.9    0.25            56.9    0.25
          funct2 s+c            57.2    0.26            57.4    0.25
        funct2 cmf_2            50.9    0.23            51.2    0.23
          dft_mkdens          6066.2   27.10          6076.5   26.97
        dft_mgga-fun             3.2    0.01             3.3    0.01
          dft_mkfock          7159.1   31.99          7171.7   31.83
     pardft.red.fock           971.8    4.34           973.4    4.32
     scf_loop_energy             0.6    0.00             0.6    0.00
     scf_loop_mkfock             1.0    0.00             1.0    0.00
       scf_loop_diis          1554.4    6.95          1556.1    6.91
       scf_loop_diag          1267.9    5.67          1270.3    5.64
         diag_tritrn           517.0    2.31           517.9    2.30
          diag_rdiag           747.4    3.34           748.8    3.32
     scf_loop_modump           398.7    1.78           511.8    2.27
      scf_loop_ortho           305.6    1.37           306.1    1.36
          Scf_a_loop            24.2    0.11            30.7    0.14
         Ridft_a_scf             6.1    0.03             6.2    0.03
         a_scf_fanal             6.1    0.03             6.1    0.03
 


    ------------------------------------------------------------------------
         total  cpu-time :  6 hours 13 minutes and 34 seconds
         total wall-time :  6 hours 16 minutes and  5 seconds
    ------------------------------------------------------------------------


   ****  ridft : all done  ****


    2017-11-13 18:24:37.720 

