
 eiger (gplogin2.gp.local) : TURBOMOLE V7.2 ( 21285 ) 30 Jun 2017 at 11:51:10
 Copyright (C) 2017 TURBOMOLE GmbH, Karlsruhe


    2017-12-18 18:34:53.994 

                                                                                
  
Total energy =  -5108.1245173280 H =   -138999.2194908 eV
 
 HOMO-LUMO Separation
   HOMO:   385.   385 a     -0.36134048 H =     -9.83258 eV
   LUMO:   386.   386 a     -0.16935936 H =     -4.60851 eV
   Gap :                    +0.19198112 H =     +5.22408 eV
 
Number of MOs=   8170, Electrons=    770.00, Symmetry: c1   
 
   Nr.   Orbital    Occupation       Energy
  402.   402 a                     -0.132556 H =        -3.607 eV
  401.   401 a                     -0.134452 H =        -3.659 eV
  400.   400 a                     -0.134716 H =        -3.666 eV
  399.   399 a                     -0.139647 H =        -3.800 eV
  398.   398 a                     -0.139709 H =        -3.802 eV
  397.   397 a                     -0.141094 H =        -3.839 eV
  396.   396 a                     -0.143040 H =        -3.892 eV
  395.   395 a                     -0.143216 H =        -3.897 eV
  394.   394 a                     -0.145401 H =        -3.957 eV
  393.   393 a                     -0.145991 H =        -3.973 eV
  392.   392 a                     -0.147592 H =        -4.016 eV
  391.   391 a                     -0.148125 H =        -4.031 eV
  390.   390 a                     -0.155417 H =        -4.229 eV
  389.   389 a                     -0.155628 H =        -4.235 eV
  388.   388 a                     -0.164725 H =        -4.482 eV
  387.   387 a                     -0.164897 H =        -4.487 eV
  386.   386 a                     -0.169359 H =        -4.609 eV
  385.   385 a        2.000        -0.361340 H =        -9.833 eV
  384.   384 a        2.000        -0.367450 H =        -9.999 eV
  383.   383 a        2.000        -0.367516 H =       -10.001 eV
  382.   382 a        2.000        -0.368420 H =       -10.025 eV
  381.   381 a        2.000        -0.371502 H =       -10.109 eV
  380.   380 a        2.000        -0.371519 H =       -10.110 eV
  379.   379 a        2.000        -0.374797 H =       -10.199 eV
  378.   378 a        2.000        -0.375440 H =       -10.216 eV
  377.   377 a        2.000        -0.376580 H =       -10.247 eV
  376.   376 a        2.000        -0.376611 H =       -10.248 eV
  375.   375 a        2.000        -0.377117 H =       -10.262 eV
  374.   374 a        2.000        -0.377230 H =       -10.265 eV
  373.   373 a        2.000        -0.378876 H =       -10.310 eV
  372.   372 a        2.000        -0.379484 H =       -10.326 eV
  371.   371 a        2.000        -0.385008 H =       -10.477 eV
  370.   370 a        2.000        -0.385197 H =       -10.482 eV


    ------------------------------------------------------------------------
         total  cpu-time :  27.04 seconds
         total wall-time :  27.48 seconds
    ------------------------------------------------------------------------

   ****  eiger : all done  ****


    2017-12-18 18:35:21.438 

