           Doing BLAS/Lapack in the master proc. with  8 CPUs.
           SMPCPUS    set: Shared-memory Parallelization with   8 CPUs.

           SMP Parallelization Reference:
           C. van Wullen, J. Comput. Chem. 32 (2011) 1195--1201
 operating system is UNIX !

 ridft (c-12-18.gp.local) : TURBOMOLE V7.2 ( 21454 ) 4 Oct 2017 at 12:48:15
 Copyright (C) 2017 TURBOMOLE GmbH, Karlsruhe


    2018-04-28 21:02:26.730 



                                  r i d f t

                        DFT program with RI approximation 
                                for coulomb part 




                                                 
                                 References:     
                                                 
          TURBOMOLE:                             
              R. Ahlrichs, M. Baer, M. Haeser, H. Horn, and
              C. Koelmel
              Electronic structure calculations on workstation
              computers: the program system TURBOMOLE
              Chem. Phys. Lett. 162: 165 (1989)
          Density Functional:                              
              O. Treutler and R. Ahlrichs                      
              Efficient Molecular Numerical Integration Schemes
              J. Chem. Phys. 102: 346 (1995)                   
          Parallel Version:                                
              Performance of parallel TURBOMOLE for Density    
              Functional Calculations                          
              M. v. Arnim and R. Ahlrichs                      
              J. Comp. Chem. 19: 1746 (1998)                   
          RI-J Method:                                     
              Auxiliary Basis Sets to approximate Coulomb      
              Potentials                                       
              Chem. Phys. Lett. 240: 283 (1995)                
              K. Eichkorn, O. Treutler, H. Oehm, M. Haeser     
              and R. Ahlrichs                                  
              Chem. Phys. Lett. 242: 652 (1995)                
                                                           
              Auxiliary Basis Sets for Main Row Atoms and their
              Use to approximate Coulomb Potentials            
              K. Eichkorn, F. Weigend, O. Treutler and         
              R. Ahlrichs                                      
              Theo. Chem. Acc. 97: 119 (1997)                   
                                                           
              Accurate Coulomb-fitting basis sets for H to Rn 
              F. Weigend                                        
              Phys. Chem. Chem. Phys. 8: 1057 (2006)            
                                                           
          Multipole accelerated RI-J (MARI-J):             
              Fast evaluation of the Coulomb potential for     
              electron densities using multipole accelerated   
              resolution of identity approximation             
              M. Sierka, A. Hogekamp and R. Ahlrichs           
              J. Chem. Phys. 118: 9136 (2003)                  
          RI-JK Method:                                     
              A fully direct RI-HF algorithm: Implementation,
              optimised auxiliary basis sets, demonstration of
              accuracy and efficiency                         
              F. Weigend                                      
              Phys. Chem. Chem. Phys. 4: 4285 (2002)           
          Two-component HF and DFT with spin-orbit coupling:  
              Self-consistent treatment of spin-orbit         
              interactions with efficient Hartree-Fock and    
              density functional methods                      
              M. K. Armbruster, F. Weigend, C. van Wüllen and 
              W. Klopper                                      
              Phys. Chem. Chem. Phys. 10: 1748 (2008)         
          Relativistic all-electron 2c calculations           
              An efficient implementation of two-component    
              relativistic exact-decoupling methods for large 
              molecules                                       
              D. Peng, N. Middendorf, F. Weigend, M. Reiher   
              J. Chem. Phys. 138, 184105 (2013)               
                                         




              +--------------------------------------------------+
              |      general information about current run       |
              +--------------------------------------------------+

 

 DENSITY CONVERGENCE CHECK SWITCHED ON !
 SCF CONVERGENCE IF RMS(delta[D]) <     0.1000000000E-06

 TPSS meta-GGA functional
 exchange:    LDA + TPSS
 correlation: LDA (PW) + TPSS
 A DFT calculation using the RI-J approximation will be carried out.
 Allocatable memory for RI due to $ricore (MB):                  5000


              +--------------------------------------------------+
              | Atomic coordinate, charge and isotop information |
              +--------------------------------------------------+

                    atomic coordinates            atom    charge  isotop
         -0.09613728   -1.85208518    0.06417924    n      7.000     0
         -0.10057510   -3.76186599    0.09414931    h      1.000     0
         -2.47329843   -0.68384725    0.00760796    c      6.000     0
         -4.39780845   -1.95124602   -0.01101496    o      8.000     0
         -2.33724822    2.05611329   -0.02310077    c      6.000     0
         -4.06808709    3.12080795   -0.10350867    h      1.000     0
         -0.06650765    3.20844476    0.06369290    c      6.000     0
          0.13297314    5.23921987    0.06024870    h      1.000     0
          2.14394934    1.87136273    0.17356117    n      7.000     0
          3.82427717    2.75290046    0.29421670    h      1.000     0
          2.25479475   -0.74045681    0.21878328    c      6.000     0
          4.22617968   -1.91086889    0.36695765    o      8.000     0
 
       center of nuclear mass  :   -0.05149777   -0.07124706    0.11222776
       center of nuclear charge:   -0.05143646   -0.00636880    0.11135742

              +--------------------------------------------------+
              |               basis set information              |
              +--------------------------------------------------+

              we will work with the 1s 3p 5d 7f 9g ... basis set
              ...i.e. with spherical basis functions...

   type   atoms  prim   cont   basis
   ---------------------------------------------------------------------------
    n        2     50     30   cc-pVTZ   [4s3p2d1f|18s5p2d1f]
    h        4     16     14   cc-pVTZ   [3s2p1d|5s2p1d]
    c        4     50     30   cc-pVTZ   [4s3p2d1f|18s5p2d1f]
    o        2     50     30   cc-pVTZ   [4s3p2d1f|18s5p2d1f]
   ---------------------------------------------------------------------------
   total:   12    464    296
   ---------------------------------------------------------------------------

   total number of primitive shells          :   86
   total number of contracted shells         :  104
   total number of cartesian basis functions :  340
   total number of SCF-basis functions       :  296


 integral neglect threshold       :  0.98E-13
 integral storage threshold THIZE :  0.10E-04
 integral storage threshold THIME :         5

 RI-J AUXILIARY BASIS SET information:

              we will work with the 1s 3p 5d 7f 9g ... basis set
              ...i.e. with spherical basis functions...

   type   atoms  prim   cont   basis
   ---------------------------------------------------------------------------
    n        2     70     49   cc-pVTZ   [6s4p3d1f1g|12s5p4d2f1g]
    h        4     16     11   cc-pVTZ   [3s1p1d|5s2p1d]
    c        4     70     49   cc-pVTZ   [6s4p3d1f1g|12s5p4d2f1g]
    o        2     70     49   cc-pVTZ   [6s4p3d1f1g|12s5p4d2f1g]
   ---------------------------------------------------------------------------
   total:   12    624    436
   ---------------------------------------------------------------------------

   total number of primitive shells          :   80
   total number of contracted shells         :  140
   total number of cartesian basis functions :  536
   total number of SCF-basis functions       :  436


 symmetry group of the molecule :   c1 

 the group has the following generators :
   c1(z)

    1 symmetry operations found

 there are 1 real representations :   a   

 maximum number of shells which are related by symmetry :  1


    mo occupation :
   irrep   mo's   occupied
    a      296       29
 
 number of basis functions   :                    296
 number of occupied orbitals :                     29
 
  
           ------------------
           density functional
           ------------------
 TPSS meta-GGA functional
 exchange:    LDA + TPSS
 correlation: LDA (PW) + TPSS

 iterations will be done with small grid
  
 spherical integration : Lebedev's spherical grid
 spherical gridsize    :                     5
    i.e. gridpoints    :                   590
 value for diffuse not defined
 radial integration    : Chebyshev 2nd kind (scaling 3)
 radial gridsize       :                     8
 integration cells     :                    12
 partition function    : becke
 partition sharpness   :                     3
  

 biggest AO integral is expected to be     4.866064444
  
           ------------------------
               RI-J - INFORMATION
           ------------------------
 Contributions to RI integral batches: 
  neglected integral batches:                   354
  direct contribution:                            0
  memory contribution:                  5106
 Memory core needed for (P|Q) and Cholesky      2 MByte
 Memory core minimum needed except of (P|Q)     1 MByte
 Total minimum memory core needed (sum)         2 MByte
  
 ****************************************
 Memory allocated for RI-J   222 MByte
 ****************************************
                                            

          ------------------------
          nuclear repulsion energy  :   357.187267482    
          ------------------------


         -----------------
         -S,T+V- integrals
         -----------------

 1e-integrals will be neglected if expon. factor < 0.982930E-14
 Difference densities >>NOT<< switched on in parallel ridft!

 DIIS switched on: error vector is FDS-SDF
 Max. Iterations for DIIS is     :   4
 DIIS matrix (see manual) 
    Scaling factor of diagonals  :  1.200
    threshold for scaling factor :  0.000

 scf convergence criterion : increment of total energy < .1000000D-08
                  and increment of one-electron energy < .1000000D-05

  MOs are in ASCII format !


 automatic virtual orbital shift switched on 
      shift if e(lumo)-e(homo) < 0.10000000    


 reading orbital data $scfmo  from file mos
 orbital characterization : expanded
 mo provided and orthogonalized by Cholesky decomposition

 DSCF restart information will be dumped onto file mos


 Starting SCF iterations

          Overall gridpoints after grid construction =         63482

 ITERATION  ENERGY          1e-ENERGY        2e-ENERGY     RMS[dD(SAO)]   TOL
   1  -413.16028647501    -1261.8107595     491.46320550    0.000D+00 0.980D-13
                            Exc = -54.1515741152     Coul =  545.614779615    
                              N = 58.000029486    
                            current damping = 0.700
 
          max. resid. norm for Fia-block=  4.394D-01 for orbital     20a         
          max. resid. fock norm         =  4.633D+00 for orbital    296a         

 ITERATION  ENERGY          1e-ENERGY        2e-ENERGY     RMS[dD(SAO)]   TOL
   2  -414.75348415265    -1268.4996120     496.55886032    0.481D-02 0.980D-13
                            Exc = -54.0934761586     Coul =  550.652336482    
                              N = 58.000021188    
                            current damping = 0.650
 
          Norm of current diis error:  2.3270    
          max. resid. norm for Fia-block=  1.596D-01 for orbital      1a         
          max. resid. fock norm         =  3.664D-01 for orbital    294a         

 ITERATION  ENERGY          1e-ENERGY        2e-ENERGY     RMS[dD(SAO)]   TOL
   3  -414.96660648455    -1271.2922802     499.13840625    0.306D-02 0.980D-13
                            Exc = -54.3624499681     Coul =  553.500856216    
                              N = 58.000017993    
                            current damping = 0.550
 
          Norm of current diis error:  1.0819    
          max. resid. norm for Fia-block=  6.360D-02 for orbital      1a         
          max. resid. fock norm         =  8.640D-02 for orbital     63a         

 ITERATION  ENERGY          1e-ENERGY        2e-ENERGY     RMS[dD(SAO)]   TOL
   4  -415.02282242531    -1271.7069560     499.49686607    0.264D-02 0.980D-13
                            Exc = -54.3068588333     Coul =  553.803724908    
                              N = 58.000016017    
                            current damping = 0.400
 
          Norm of current diis error: 0.48345    
          max. resid. norm for Fia-block=  3.060D-02 for orbital     10a         
          max. resid. fock norm         =  6.427D-02 for orbital    277a         

 ITERATION  ENERGY          1e-ENERGY        2e-ENERGY     RMS[dD(SAO)]   TOL
   5  -415.03065807971    -1272.0085304     499.79060487    0.831D-03 0.980D-13
                            Exc = -54.3935596919     Coul =  554.184164557    
                              N = 58.000016338    
                            current damping = 0.250
 
          Norm of current diis error: 0.31272    
          max. resid. norm for Fia-block=  1.002D-02 for orbital     27a         
          max. resid. fock norm         =  1.255D-02 for orbital    292a         
          mo-orthogonalization: Cholesky decomposition

 ITERATION  ENERGY          1e-ENERGY        2e-ENERGY     RMS[dD(SAO)]   TOL
   6  -415.03533607998    -1272.3503443     500.12774069    0.741D-03 0.980D-13
                            Exc = -54.3870046832     Coul =  554.514745376    
                              N = 58.000015705    
                            current damping = 0.100
 
          Norm of current diis error: 0.82009E-01
          max. resid. norm for Fia-block=  3.378D-03 for orbital     26a         
          max. resid. fock norm         =  5.468D-03 for orbital    235a         

 ITERATION  ENERGY          1e-ENERGY        2e-ENERGY     RMS[dD(SAO)]   TOL
   7  -415.03545078552    -1272.1313189     499.90860060    0.177D-03 0.980D-13
                            Exc = -54.3729251385     Coul =  554.281525735    
                              N = 58.000015730    
                            current damping = 0.150
 
          Norm of current diis error: 0.62406E-01
          max. resid. norm for Fia-block=  2.178D-03 for orbital     28a         
          max. resid. fock norm         =  3.744D-03 for orbital     21a         

 ITERATION  ENERGY          1e-ENERGY        2e-ENERGY     RMS[dD(SAO)]   TOL
   8  -415.03560398532    -1272.2058114     499.98293998    0.997D-04 0.980D-13
                            Exc = -54.3819319981     Coul =  554.364871976    
                              N = 58.000015711    
                            current damping = 0.200
 
          Norm of current diis error: 0.24623E-01
          max. resid. norm for Fia-block=  9.475D-04 for orbital     28a         
          max. resid. fock norm         =  2.000D-03 for orbital    273a         

 ITERATION  ENERGY          1e-ENERGY        2e-ENERGY     RMS[dD(SAO)]   TOL
   9  -415.03562276850    -1272.2531724     500.03028211    0.602D-04 0.980D-13
                            Exc = -54.3851266363     Coul =  554.415408744    
                              N = 58.000015733    
                            current damping = 0.050
 
          Norm of current diis error: 0.14857E-01
          max. resid. norm for Fia-block=  6.697D-04 for orbital     29a         
          max. resid. fock norm         =  1.007D-03 for orbital    235a         

 ITERATION  ENERGY          1e-ENERGY        2e-ENERGY     RMS[dD(SAO)]   TOL
  10  -415.03563024825    -1272.2331066     500.01020890    0.438D-04 0.980D-13
                            Exc = -54.3816901498     Coul =  554.391899054    
                              N = 58.000015709    
                            current damping = 0.100
 
          Norm of current diis error: 0.95893E-02
          max. resid. norm for Fia-block=  2.755D-04 for orbital     29a         
          max. resid. fock norm         =  4.393D-04 for orbital    294a         
          mo-orthogonalization: Cholesky decomposition

 ITERATION  ENERGY          1e-ENERGY        2e-ENERGY     RMS[dD(SAO)]   TOL
  11  -415.03563455621    -1272.2289408     500.00603877    0.153D-04 0.980D-13
                            Exc = -54.3826960274     Coul =  554.388734794    
                              N = 58.000015714    
                            current damping = 0.050
 
          Norm of current diis error: 0.19650E-02
          max. resid. norm for Fia-block=  6.607D-05 for orbital     24a         
          max. resid. fock norm         =  8.525D-05 for orbital     23a         

 ITERATION  ENERGY          1e-ENERGY        2e-ENERGY     RMS[dD(SAO)]   TOL
  12  -415.03563466185    -1272.2330632     500.01016105    0.215D-05 0.980D-13
                            Exc = -54.3826979565     Coul =  554.392859007    
                              N = 58.000015716    
                            current damping = 0.100
 
          Norm of current diis error: 0.11012E-02
          max. resid. norm for Fia-block=  3.386D-05 for orbital     17a         
          max. resid. fock norm         =  5.003D-05 for orbital    296a         

 ITERATION  ENERGY          1e-ENERGY        2e-ENERGY     RMS[dD(SAO)]   TOL
  13  -415.03563469915    -1272.2323386     500.00943642    0.117D-05 0.980D-13
                            Exc = -54.3826969428     Coul =  554.392133363    
                              N = 58.000015714    
                            current damping = 0.150
 
          Norm of current diis error: 0.48482E-03
          max. resid. norm for Fia-block=  1.623D-05 for orbital     26a         
          max. resid. fock norm         =  2.810D-05 for orbital    292a         

 ITERATION  ENERGY          1e-ENERGY        2e-ENERGY     RMS[dD(SAO)]   TOL
  14  -415.03563470664    -1272.2316631     500.00876090    0.735D-06 0.980D-13
                            Exc = -54.3826825371     Coul =  554.391443435    
                              N = 58.000015715    
                            current damping = 0.050
 
          Norm of current diis error: 0.23576E-03
          max. resid. norm for Fia-block=  9.881D-06 for orbital     27a         
          max. resid. fock norm         =  2.273D-05 for orbital    273a         

 ITERATION  ENERGY          1e-ENERGY        2e-ENERGY     RMS[dD(SAO)]   TOL
  15  -415.03563470794    -1272.2318516     500.00894937    0.623D-06 0.980D-13
                            Exc = -54.3826851959     Coul =  554.391634567    
                              N = 58.000015715    
                            current damping = 0.100
 
          Norm of current diis error: 0.16894E-03
          max. resid. norm for Fia-block=  5.329D-06 for orbital     29a         
          max. resid. fock norm         =  1.197D-05 for orbital    273a         
          mo-orthogonalization: Cholesky decomposition

 ITERATION  ENERGY          1e-ENERGY        2e-ENERGY     RMS[dD(SAO)]   TOL
  16  -415.03563470939    -1272.2319191     500.00901694    0.327D-06 0.980D-13
                            Exc = -54.3826878107     Coul =  554.391704747    
                              N = 58.000015715    
                            current damping = 0.050
 
          Norm of current diis error: 0.40691E-04
          max. resid. norm for Fia-block=  1.592D-06 for orbital     28a         
          max. resid. fock norm         =  2.575D-06 for orbital    277a         

 DENSITY CONVERGED !


 ITERATION  ENERGY          1e-ENERGY        2e-ENERGY     RMS[dD(SAO)]   TOL
  17  -415.03563470939    -1272.2318566     500.00895440    0.981D-07 0.980D-13
                            Exc = -54.3826878137     Coul =  554.391642210    
                              N = 58.000015715    
                            current damping = 0.100
 
          Norm of current diis error: 0.40092E-04
          max. resid. norm for Fia-block=  1.013D-06 for orbital     28a         
          max. resid. fock norm         =  1.431D-06 for orbital    296a         

 DENSITY CONVERGED !


 ITERATION  ENERGY          1e-ENERGY        2e-ENERGY     RMS[dD(SAO)]   TOL
  18  -415.03563470947    -1272.2318702     500.00896804    0.513D-07 0.980D-13
                            Exc = -54.3826862671     Coul =  554.391654303    
                              N = 58.000015715    
                            current damping = 0.150
 
          Norm of current diis error: 0.83477E-05
          max. resid. norm for Fia-block=  3.378D-07 for orbital     25a         
          max. resid. fock norm         =  5.812D-07 for orbital    291a         

 ENERGY & DENSITY CONVERGED !

          Overall gridpoints after grid construction =        199871

 ITERATION  ENERGY          1e-ENERGY        2e-ENERGY     RMS[dD(SAO)]   TOL
  19  -415.03548406606    -1272.2318826     500.00913104    0.133D-07 0.980D-13
                            Exc = -54.3825366986     Coul =  554.391667740    
                              N = 58.000000584    
                            current damping = 0.050
 
          Norm of current diis error: 0.56268E-05
          max. resid. norm for Fia-block=  1.370D-07 for orbital     28a         
          max. resid. fock norm         =  2.538D-07 for orbital    291a         

 End of SCF iterations

   convergence criteria satisfied after    19 iterations


                  ------------------------------------------ 
                 |  total energy      =   -415.03548406606  |
                  ------------------------------------------ 
                 :  kinetic energy    =    412.97165396887  :
                 :  potential energy  =   -828.00713803494  :
                 :  virial theorem    =      1.99502734061  :
                 :  wavefunction norm =      1.00000000000  :
                  .......................................... 


 <geterg> : there is no data group $energy 


 <skperg> : $end is missing 


 orbitals $scfmo  will be written to file mos

    irrep                 25a         26a         27a         28a         29a   
 eigenvalues H         -0.33928    -0.25864    -0.25651    -0.23028    -0.22646
            eV          -9.2324     -7.0381     -6.9800     -6.2662     -6.1623
 occupation              2.0000      2.0000      2.0000      2.0000      2.0000 

    irrep                 30a         31a         32a         33a         34a   
 eigenvalues H         -0.07611    -0.02576     0.00043     0.04727     0.04991
            eV          -2.0710     -0.7010      0.0118      1.2862      1.3582
 
 
 
 
 ==============================================================================
                           electrostatic moments
 ==============================================================================

 reference point for electrostatic moments:    0.00000   0.00000   0.00000

 
              nuc           elec       ->  total
 ------------------------------------------------------------------------------
                          charge      
 ------------------------------------------------------------------------------
          58.000000     -58.000000      -0.000000
 
 ------------------------------------------------------------------------------
                       dipole moment  
 ------------------------------------------------------------------------------
   x      -2.983315       3.509614       0.526299
   y      -0.369390       1.973271       1.603880
   z       6.458731      -6.472340      -0.013609
 
   | dipole moment | =     1.6881 a.u. =     4.2907 debye 
 
 ------------------------------------------------------------------------------
                     quadrupole moment
 ------------------------------------------------------------------------------
  xx     461.063806    -503.218529     -42.154723
  yy     260.340595    -288.648476     -28.307880
  zz       1.742789     -35.687280     -33.944490
  xy       2.299020      -0.770085       1.528935
  xz      20.046015     -20.298983      -0.252968
  yz      -3.609879       3.959252       0.349374
 
     1/3  trace=     -34.802365
     anisotropy=      12.370459
 
 ==============================================================================
 


    ------------------------------------------------------------------------
         total  cpu-time :  5 minutes and 20 seconds
         total wall-time :  37.00 seconds
    ------------------------------------------------------------------------

   ****  ridft : all done  ****


    2018-04-28 21:03:03.714 

