Using Slurm to start processes with PMI2
STARTING ridft ON 8 PROCESSORS!
RUNNING PROGRAM /beegfs/modfac/apps/TURBOMOLE/7.0_intel_GA/bin/em64t-unknown-linux-gnu_mpi/ridft_mpi.
PLEASE WAIT UNTIL ridft HAS FINISHED.
Look for the output in slave1.output.
  this is node-proc. number 1 running on node c-5-13.local
  the total number of node-proc. spawned is            8
  parallel platform: MPP, or cluster with fast interconnect

 ridft (c-5-13.local) : TURBOMOLE V7.0.2( ) 15 Jan 2016 at 17:47:42
 Copyright (C) 2016 TURBOMOLE GmbH, Karlsruhe


    2017-11-13 12:08:04.032 



                                  r i d f t

                        DFT program with RI approximation 
                                for coulomb part 




                                                 
                                 References:     
                                                 
          TURBOMOLE:                             
              R. Ahlrichs, M. Baer, M. Haeser, H. Horn, and
              C. Koelmel
              Electronic structure calculations on workstation
              computers: the program system TURBOMOLE
              Chem. Phys. Lett. 162: 165 (1989)
          Density Functional:                              
              O. Treutler and R. Ahlrichs                      
              Efficient Molecular Numerical Integration Schemes
              J. Chem. Phys. 102: 346 (1995)                   
          Parallel Version:                                
              Performance of parallel TURBOMOLE for Density    
              Functional Calculations                          
              M. v. Arnim and R. Ahlrichs                      
              J. Comp. Chem. 19: 1746 (1998)                   
          RI-J Method:                                     
              Auxiliary Basis Sets to approximate Coulomb      
              Potentials                                       
              Chem. Phys. Lett. 240: 283 (1995)                
              K. Eichkorn, O. Treutler, H. Oehm, M. Haeser     
              and R. Ahlrichs                                  
              Chem. Phys. Lett. 242: 652 (1995)                
                                                           
              Auxiliary Basis Sets for Main Row Atoms and their
              Use to approximate Coulomb Potentials            
              K. Eichkorn, F. Weigend, O. Treutler and         
              R. Ahlrichs                                      
              Theo. Chem. Acc. 97: 119 (1997)                   
                                                           
              Accurate Coulomb-fitting basis sets for H to Rn 
              F. Weigend                                        
              Phys. Chem. Chem. Phys. 8: 1057 (2006)            
                                                           
          Multipole accelerated RI-J (MARI-J):             
              Fast evaluation of the Coulomb potential for     
              electron densities using multipole accelerated   
              resolution of identity approximation             
              M. Sierka, A. Hogekamp and R. Ahlrichs           
              J. Chem. Phys. 118: 9136 (2003)                  
          RI-JK Method:                                     
              A fully direct RI-HF algorithm: Implementation,
              optimised auxiliary basis sets, demonstration of
              accuracy and efficiency                         
              F. Weigend                                      
              Phys. Chem. Chem. Phys. 4: 4285 (2002)           
          Two-component HF and DFT with spin-orbit coupling:  
              Self-consistent treatment of spin-orbit         
              interactions with efficient Hartree-Fock and    
              density functional methods                      
              M. K. Armbruster, F. Weigend, C. van Wüllen and 
              W. Klopper                                      
              Phys. Chem. Chem. Phys. 10: 1748 (2008)         
          Relativistic all-electron 2c calculations           
              An efficient implementation of two-component    
              relativistic exact-decoupling methods for large 
              molecules                                       
              D. Peng, N. Middendorf, F. Weigend, M. Reiher   
              J. Chem. Phys. 138, 184105 (2013)               
                                         


 


              +--------------------------------------------------+
              |      general information about current run       |
              +--------------------------------------------------+

 

 SCF run will be profiled !


 DENSITY CONVERGENCE CHECK SWITCHED ON !
 SCF CONVERGENCE IF RMS(delta[D]) <     0.1000000000E-06

 TPSS meta-GGA functional
 exchange:    LDA + TPSS
 correlation: LDA (PW) + TPSS
 A DFT calculation using the RI-J approximation will be carried out.
 Allocatable memory for RI due to $ricore (MB):        5000


              +--------------------------------------------------+
              | Atomic coordinate, charge and isotop information |
              +--------------------------------------------------+

                    atomic coordinates            atom    charge  isotop
         -0.14230526   -2.44974723    7.80850844    c      6.000     0
          0.95815540   -2.13047120    5.46128660    c      6.000     0
         -0.36350885   -0.96463565    3.44779494    c      6.000     0
         -2.88283920   -0.12582590    3.92118513    c      6.000     0
         -3.97078987   -0.47298862    6.33968441    c      6.000     0
         -2.62880237   -1.61595886    8.26016433    c      6.000     0
         -4.26306550    1.05453880    1.93502230    c      6.000     0
         -3.22146886    1.39511696   -0.40392046    c      6.000     0
         -0.71045879    0.58842047   -0.96794343    c      6.000     0
          0.72718192   -0.59534367    0.96240898    c      6.000     0
          3.23900703   -1.39998773    0.39899148    c      6.000     0
          4.28133027   -1.05767008   -1.93938511    c      6.000     0
          2.90039173    0.12095192   -3.92611731    c      6.000     0
          0.37994928    0.95696506   -3.45358184    c      6.000     0
         -0.94326077    2.11915400   -5.46816691    c      6.000     0
          0.15712430    2.43844100   -7.81540330    c      6.000     0
          2.64537338    1.60916133   -8.26573807    c      6.000     0
          3.98861793    0.46905251   -6.34440589    c      6.000     0
          5.39238511    5.86136298   -3.05655019    c      6.000     0
          3.79569333    7.40629460   -4.51205468    c      6.000     0
          1.62785412    8.41360253   -3.34714926    c      6.000     0
          1.08064461    7.88579994   -0.84253629    c      6.000     0
          2.66178357    6.31416555    0.60750273    c      6.000     0
          4.83471653    5.32426275   -0.55534138    c      6.000     0
          2.05034265    5.70687277    3.25380038    c      6.000     0
         -0.44162616    5.88247632    4.15551268    c      6.000     0
         -1.02774456    5.27455218    6.63375981    c      6.000     0
          0.85174700    4.45430068    8.32178527    c      6.000     0
          3.35107630    4.29303769    7.42818424    c      6.000     0
          3.93570030    4.91410563    4.95358881    c      6.000     0
          0.21044179    3.73291700   10.91767711    c      6.000     0
         -2.06698263    4.50392716   12.06330166    c      6.000     0
         -2.67972576    3.70616434   14.46121427    c      6.000     0
         -1.09657085    2.18890946   15.78011877    n      7.000     0
          1.14563607    1.45739497   14.77932963    c      6.000     0
          1.82406439    2.20475236   12.38148392    c      6.000     0
         -1.92203554    1.06278273   18.24361867    c      6.000     0
         -3.04301692   -1.50991235   17.71740761    c      6.000     0
         -5.56313812   -1.75047826   16.95089349    c      6.000     0
         -6.49549743   -4.09269799   16.19371084    c      6.000     0
         -4.91588046   -6.21428899   16.19751240    c      6.000     0
         -2.42440581   -5.99125708   17.05136834    c      6.000     0
         -1.49138169   -3.64773269   17.80817739    c      6.000     0
         -5.80666410   -8.69278840   15.09525178    c      6.000     0
         -5.38962176   -8.61919320   12.29539953    n      7.000     0
         -3.04008066   -9.08606894   11.38658563    c      6.000     0
         -2.50996297   -8.73629651    8.86393390    c      6.000     0
         -4.38403102   -7.88358159    7.17796579    c      6.000     0
         -6.81379950   -7.48949111    8.19488015    c      6.000     0
         -7.26299912   -7.85109701   10.73067756    c      6.000     0
         -3.82398215   -7.39631061    4.50974449    c      6.000     0
         -5.41179543   -5.85031356    3.04545183    c      6.000     0
         -4.84469448   -5.32057684    0.54481296    c      6.000     0
         -2.67001144   -6.31795124   -0.60825409    c      6.000     0
         -1.09766783   -7.89045830    0.85016983    c      6.000     0
         -1.65517654   -8.41209717    3.35382075    c      6.000     0
         -2.04766377   -5.71599051   -3.25314067    c      6.000     0
          0.44871037   -5.88847450   -4.14282808    c      6.000     0
          1.04542144   -5.28195802   -6.61900559    c      6.000     0
         -0.82774710   -4.46778388   -8.31708703    c      6.000     0
         -3.33184380   -4.31221142   -7.43562957    c      6.000     0
         -3.92691024   -4.93035387   -4.96286963    c      6.000     0
          4.34637445    7.90118363   -7.18064674    c      6.000     0
          2.46198831    8.74024245   -8.86177754    c      6.000     0
          2.98422168    9.09671755  -11.38525167    c      6.000     0
          5.33597263    8.65074161  -12.29865137    n      7.000     0
          7.21896831    7.89740702  -10.73821341    c      6.000     0
          6.77758649    7.52875830   -8.20211458    c      6.000     0
          5.74752210    8.72826744  -15.09914896    c      6.000     0
          4.88494035    6.23838092  -16.19841909    c      6.000     0
          6.48664860    4.13340572  -16.18676723    c      6.000     0
          5.57990358    1.77962861  -16.93915073    c      6.000     0
          3.06393203    1.51101859  -17.70994338    c      6.000     0
          1.49047878    3.63245633  -17.80947771    c      6.000     0
          2.39749498    5.98731342  -17.05609058    c      6.000     0
          1.97095752   -1.07432178  -18.23259986    c      6.000     0
          1.14347026   -2.20021702  -15.76957107    n      7.000     0
          2.73189184   -3.70172859  -14.43903096    c      6.000     0
          2.11324766   -4.49969455  -12.04259726    c      6.000     0
         -0.17672964   -3.74592210  -10.91055512    c      6.000     0
         -1.79418479   -2.23273070  -12.38572617    c      6.000     0
         -1.10924675   -1.48435663  -14.78127038    c      6.000     0
          1.95830864   -6.41883446   -2.86427018    h      1.000     0
          3.00739502   -5.36019873   -7.20447052    h      1.000     0
         -4.84256929   -3.75083633   -8.70256433    h      1.000     0
         -5.88505013   -4.83649703   -4.36334117    h      1.000     0
          3.43204993   -5.72699476  -11.07323710    h      1.000     0
          4.48130487   -4.22194222  -15.36364618    h      1.000     0
         -2.30040009   -0.33419542  -16.00909669    h      1.000     0
         -3.58860712   -1.57176799  -11.65875476    h      1.000     0
          0.28513492   -0.95454716  -19.42078236    h      1.000     0
          3.34808864   -2.36988419  -19.05076662    h      1.000     0
          6.82899460    0.14921788  -16.90210227    h      1.000     0
          8.43639470    4.32190307  -15.56814195    h      1.000     0
          1.17683791    7.64404085  -17.09668265    h      1.000     0
         -0.45257939    3.41268949  -18.45168545    h      1.000     0
          7.75543057    9.07778741  -15.40000017    h      1.000     0
          4.61712855   10.30161298  -15.81663168    h      1.000     0
          1.60122712    9.76466506  -12.76026308    h      1.000     0
          0.54457731    9.07169247   -8.22988222    h      1.000     0
          8.35437190    6.96173898   -7.02847315    h      1.000     0
          9.05394303    7.61236092  -11.59702629    h      1.000     0
          0.37939143    9.66320718   -4.38778062    h      1.000     0
         -0.57909524    8.73693372    0.00783480    h      1.000     0
          6.06077293    4.04982162    0.47799149    h      1.000     0
          7.04284621    4.99259692   -3.90474470    h      1.000     0
         -1.95673336    6.41716205    2.88534101    h      1.000     0
         -2.98660765    5.35596461    7.22921932    h      1.000     0
          4.86607503    3.72570940    8.68743008    h      1.000     0
          5.89083458    4.81673711    4.34491710    h      1.000     0
         -3.37949249    5.74516259   11.10319247    h      1.000     0
         -4.41918843    4.23998835   15.39676798    h      1.000     0
          2.33299201    0.29502858   15.99980245    h      1.000     0
          3.60944343    1.53150417   11.64344571    h      1.000     0
         -0.23158688    0.92267636   19.42272746    h      1.000     0
         -3.28214419    2.36886374   19.07347470    h      1.000     0
         -6.79553549   -0.10726407   16.92047287    h      1.000     0
         -8.44812915   -4.25947615   15.57796475    h      1.000     0
         -1.22125781   -7.66089343   17.08671302    h      1.000     0
          0.45553077   -3.44933525   18.44564740    h      1.000     0
         -7.81912927   -9.01817373   15.39261984    h      1.000     0
         -4.69650537  -10.28010960   15.81379350    h      1.000     0
         -1.66598010   -9.76539752   12.76469619    h      1.000     0
         -0.59415163   -9.08471004    8.23647056    h      1.000     0
         -8.38367418   -6.90973750    7.01829584    h      1.000     0
         -9.09679559   -7.54800988   11.58588390    h      1.000     0
         -0.41333432   -9.66282923    4.40087850    h      1.000     0
          0.56307848   -8.74684194    0.00691281    h      1.000     0
         -6.06412946   -4.04590441   -0.49611925    h      1.000     0
         -7.06307913   -4.97533351    3.88564883    h      1.000     0
         -2.86223211    2.78009668   -5.18853790    h      1.000     0
          5.91150554   -0.18369329   -6.65805772    h      1.000     0
         -0.91032719    3.33644150   -9.32108965    h      1.000     0
          3.49681500    1.86741433  -10.11650807    h      1.000     0
          6.19979554   -1.68874979   -2.31698679    h      1.000     0
          4.35824949   -2.30705854    1.85577116    h      1.000     0
         -4.34031882    2.30327777   -1.86031897    h      1.000     0
         -6.18061464    1.68786823    2.31349212    h      1.000     0
         -5.89264324    0.18240506    6.65410725    h      1.000     0
         -3.48034981   -1.87400947   10.11092827    h      1.000     0
          2.87573685   -2.79505216    5.18066851    h      1.000     0
          0.92373631   -3.35162469    9.31287746    h      1.000     0
          4.56284957   -0.83689602   19.79105115    cl    17.000     0
         -0.08538217  -12.47792250   16.06084930    cl    17.000     0
         -0.02691329   12.43636629  -16.06243648    cl    17.000     0
         -4.51593353    0.73774549  -19.83306486    cl    17.000     0
 
       center of nuclear mass  :   -0.00143859   -0.00343177   -0.00106416
       center of nuclear charge:   -0.00128954   -0.00306228   -0.00094942

              +--------------------------------------------------+
              |               basis set information              |
              +--------------------------------------------------+

              we will work with the 1s 3p 5d 7f 9g ... basis set
              ...i.e. with spherical basis functions...

   type   atoms  prim   cont   basis
   ---------------------------------------------------------------------------
    c       78     50     30   cc-pVTZ   [4s3p2d1f|18s5p2d1f]
    n        4     50     30   cc-pVTZ   [4s3p2d1f|18s5p2d1f]
    h       60     16     14   cc-pVTZ   [3s2p1d|5s2p1d]
    cl       4    106     34   cc-pVTZ   [5s4p2d1f|41s16p2d1f]
   ---------------------------------------------------------------------------
   total:  146   5484   3436
   ---------------------------------------------------------------------------

   total number of primitive shells          :  120
   total number of contracted shells         : 1228
   total number of cartesian basis functions : 3926
   total number of SCF-basis functions       : 3436


 integral neglect threshold       :  0.85E-14
 integral storage threshold THIZE :  0.10E-04
 integral storage threshold THIME :         5

 RI-J AUXILIARY BASIS SET information:

              we will work with the 1s 3p 5d 7f 9g ... basis set
              ...i.e. with spherical basis functions...

   type   atoms  prim   cont   basis
   ---------------------------------------------------------------------------
    c       78     70     49   cc-pVTZ   [6s4p3d1f1g|12s5p4d2f1g]
    n        4     70     49   cc-pVTZ   [6s4p3d1f1g|12s5p4d2f1g]
    h       60     16     11   cc-pVTZ   [3s1p1d|5s2p1d]
    cl       4     77     51   cc-pVTZ   [8s4p3d1f1g|14s5p5d2f1g]
   ---------------------------------------------------------------------------
   total:  146   7008   4882
   ---------------------------------------------------------------------------

   total number of primitive shells          :   83
   total number of contracted shells         : 1598
   total number of cartesian basis functions : 5974
   total number of SCF-basis functions       : 4882


 symmetry group of the molecule :   c1 

 the group has the following generators :
   c1(z)

    1 symmetry operations found

 there are 1 real representations :   a   

 maximum number of shells which are related by symmetry :  1


    mo occupation :
   irrep   mo's   occupied
    a     3436      312
 
 number of basis functions   :         3436
 number of occupied orbitals :          312
 
  
           ------------------
           density functional
           ------------------
 TPSS meta-GGA functional
 exchange:    LDA + TPSS
 correlation: LDA (PW) + TPSS
 grinp -> nfun, dfgga, dfhybrid 
           5 F F
 iterations will be done with small grid
  
 spherical integration : Lebedev's spherical grid
 spherical gridsize    :           5
    i.e. gridpoints    :         590
 value for diffuse not defined
 radial integration    : Chebyshev 2nd kind (scaling 3)
 radial gridsize       :           8
 integration cells     :         146
 partition function    : becke
 partition sharpness   :           3
  

 <rddim> : input of entry tasksize
           from data group '$pardft' failed !

               Default values taken

 <rddim> : input of entry memdiv
           from data group '$pardft' failed !

               Default values taken
  RIDFT: memory allocation for DFT gridpoints
  MEMORY is divided by 1 as DEFAULT
 Each node can hold at most  the            1 -th part
 of the gridpoints    

 biggest AO integral is expected to be    10.299856942
  
           ------------------------
               RI-J - INFORMATION
           ------------------------
 
 
 **************************************************
 *      MEMORY ALLOCATION FOR PARALLEL RI-DFT     *
 **************************************************
 
 
MEMORY FOR (MU NU/ ALPHA), SEQUENTIAL RUN               4809 MByte
 
            DIFFERENCE IN MEMORY NEED:       DIAG./SLAVE  
 
      TOTAL DIFFERENCE :                    662 MByte
 
      difference in xcore:                  192 MByte
      difference in fatmat:                 173 MByte
      getcor calls skipped by slaves:       298 MByte
 
 
           Integral memory available for diagonal.      4809 MByte
 
           Integral memory available for slave             0 MByte
 
         MEMORY FOR (MU NU/ ALPHA) ON DIAGONALIZER      4809 MByte
 
         MEMORY FOR (MU NU/ ALPHA) ON ONE SLAVE            0 MByte
 
         TOTAL MEMORY FOR (MU NU/ ALPHA),ALL NODES      4809 MByte
 
 Contributions to RI integral batches: 
  neglected integral batches:      509220
  direct contribution:             204389
  memory contribution:       40997
 Memory core needed for (P|Q) and Cholesky    182 MByte
 Memory core minimum needed except of (P|Q)    11 MByte
 Total minimum memory core needed (sum)       193 MByte
     number of direct tasks:         160
  
 ****************************************
 Memory allocated for RI-J  5001 MByte
 ****************************************
                                            

          ------------------------
          nuclear repulsion energy  :   15654.8618152    
          ------------------------

 
          -----------------
          -S integrals
          -----------------

 1e-integrals will be neglected if expon. factor < 0.851238E-15
 
          -----------------
          -T+V integrals
          -----------------

 1e-integrals will be neglected if expon. factor < 0.851238E-15
 Difference densities >>NOT<< switched on in parallel ridft!

 automatic virtual orbital shift switched on 
      shift if e(lumo)-e(homo) < 0.10000000    


 DIIS switched on: error vector is FDS-SDF
 Max. Iterations for DIIS is     :   4
 DIIS matrix (see manual) 
    Scaling factor of diagonals  :  1.200
    threshold for scaling factor :  0.000

 scf convergence criterion : increment of total energy < .1000000D-08
                  and increment of one-electron energy < .1000000D-05


 <geterg> : there is no data group $energy 

  MOs are in ASCII format !


 reading orbital data $scfmo  from file mos . 

 orbital characterization : expanded
 
 mo provided and orthogonalized by Cholesky decomposition

 DSCF restart information will be dumped onto file mos


 Starting SCF iterations


 ITERATION  ENERGY          1e-ENERGY        2e-ENERGY     RMS[dD(SAO)]   TOL
   1  -5059.5987058688    -37966.835662     17252.375141    0.000D+00 0.849D-14
                            Exc = -576.436992366     Coul =  17828.8121329    
                              N = 623.99590526    
                            current damping = 0.700
 
          max. resid. norm for Fia-block=  2.935D-01 for orbital      5a         
          max. resid. fock norm         =  4.531D+00 for orbital   3219a         

 ITERATION  ENERGY          1e-ENERGY        2e-ENERGY     RMS[dD(SAO)]   TOL
   2  -5067.7006145614    -38061.480336     17338.917906    0.176D-02 0.849D-14
                            Exc = -583.464904194     Coul =  17922.3828104    
                              N = 623.99658179    
                            current damping = 0.650
 
          Norm of current diis error:  7.6204    
          max. resid. norm for Fia-block=  1.311D-01 for orbital      5a         
          max. resid. fock norm         =  1.855D-01 for orbital   1668a         

 ITERATION  ENERGY          1e-ENERGY        2e-ENERGY     RMS[dD(SAO)]   TOL
   3  -5069.4248962521    -38080.183425     17355.896713    0.883D-03 0.849D-14
                            Exc = -585.552043059     Coul =  17941.4487564    
                              N = 623.99694959    
                            current damping = 0.550
 
          Norm of current diis error:  3.7178    
          max. resid. norm for Fia-block=  5.848D-02 for orbital    112a         
          max. resid. fock norm         =  7.248D-02 for orbital   1774a         
          irrep a   : virtual orbitals shifted by    0.02561

 ITERATION  ENERGY          1e-ENERGY        2e-ENERGY     RMS[dD(SAO)]   TOL
   4  -5069.9304164494    -38101.369674     17376.577442    0.547D-03 0.849D-14
                            Exc = -586.963551469     Coul =  17963.5409938    
                              N = 623.99713466    
                            current damping = 0.450
 
          Norm of current diis error:  1.4468    
          max. resid. norm for Fia-block=  2.319D-02 for orbital    112a         
          max. resid. fock norm         =  4.035D-02 for orbital   1525a         
          irrep a   : virtual orbitals shifted by    0.09959

 ITERATION  ENERGY          1e-ENERGY        2e-ENERGY     RMS[dD(SAO)]   TOL
   5  -5070.0178805135    -38104.101870     17379.222174    0.298D-03 0.849D-14
                            Exc = -587.426490772     Coul =  17966.6486652    
                              N = 623.99723929    
                            current damping = 0.350
 
          Norm of current diis error: 0.63409    
          max. resid. norm for Fia-block=  1.014D-02 for orbital    106a         
          max. resid. fock norm         =  1.330D-02 for orbital   1519a         
          irrep a   : virtual orbitals shifted by    0.12093
          mo-orthogonalization: Cholesky decomposition

 ITERATION  ENERGY          1e-ENERGY        2e-ENERGY     RMS[dD(SAO)]   TOL
   6  -5070.0360025362    -38110.407684     17385.509866    0.147D-03 0.849D-14
                            Exc = -587.729458838     Coul =  17973.2393252    
                              N = 623.99727227    
                            current damping = 0.250
 
          Norm of current diis error: 0.30148    
          max. resid. norm for Fia-block=  4.629D-03 for orbital    198a         
          max. resid. fock norm         =  8.777D-03 for orbital    174a         
          irrep a   : virtual orbitals shifted by    0.09175

 ITERATION  ENERGY          1e-ENERGY        2e-ENERGY     RMS[dD(SAO)]   TOL
   7  -5070.0408434772    -38110.651068     17385.748409    0.748D-04 0.849D-14
                            Exc = -587.759737757     Coul =  17973.5081470    
                              N = 623.99729230    
                            current damping = 0.100
 
          Norm of current diis error: 0.10723    
          max. resid. norm for Fia-block=  3.152D-03 for orbital    301a         
          max. resid. fock norm         =  5.257D-03 for orbital   1604a         
          irrep a   : virtual orbitals shifted by    0.10411

 ITERATION  ENERGY          1e-ENERGY        2e-ENERGY     RMS[dD(SAO)]   TOL
   8  -5070.0418031409    -38110.683245     17385.779626    0.404D-04 0.849D-14
                            Exc = -587.778368548     Coul =  17973.5579949    
                              N = 623.99729856    
                            current damping = 0.050
 
          Norm of current diis error: 0.89258E-01
          max. resid. norm for Fia-block=  2.438D-03 for orbital    301a         
          max. resid. fock norm         =  2.892D-03 for orbital    313a         
          irrep a   : virtual orbitals shifted by    0.09879

 ITERATION  ENERGY          1e-ENERGY        2e-ENERGY     RMS[dD(SAO)]   TOL
   9  -5070.0424448333    -38111.257734     17386.353474    0.230D-04 0.849D-14
                            Exc = -587.784114243     Coul =  17974.1375886    
                              N = 623.99730162    
                            current damping = 0.050
 
          Norm of current diis error: 0.32336E-01
          max. resid. norm for Fia-block=  1.651D-03 for orbital    301a         
          max. resid. fock norm         =  1.743D-03 for orbital    313a         
          irrep a   : virtual orbitals shifted by    0.10047

 ITERATION  ENERGY          1e-ENERGY        2e-ENERGY     RMS[dD(SAO)]   TOL
  10  -5070.0426666848    -38111.490226     17386.585744    0.171D-04 0.849D-14
                            Exc = -587.785994330     Coul =  17974.3717385    
                              N = 623.99730298    
                            current damping = 0.050
 
          Norm of current diis error: 0.22887E-01
          max. resid. norm for Fia-block=  1.099D-03 for orbital    301a         
          max. resid. fock norm         =  1.340D-03 for orbital    313a         
          irrep a   : virtual orbitals shifted by    0.09483
          mo-orthogonalization: Cholesky decomposition

 ITERATION  ENERGY          1e-ENERGY        2e-ENERGY     RMS[dD(SAO)]   TOL
  11  -5070.0427862057    -38111.401312     17386.496711    0.117D-04 0.849D-14
                            Exc = -587.783812612     Coul =  17974.2805236    
                              N = 623.99730403    
                            current damping = 0.100
 
          Norm of current diis error: 0.18361E-01
          max. resid. norm for Fia-block=  7.917D-04 for orbital    301a         
          max. resid. fock norm         =  9.839D-04 for orbital    313a         
          irrep a   : virtual orbitals shifted by    0.09844

 ITERATION  ENERGY          1e-ENERGY        2e-ENERGY     RMS[dD(SAO)]   TOL
  12  -5070.0428620376    -38111.578139     17386.673462    0.853D-05 0.849D-14
                            Exc = -587.786095655     Coul =  17974.4595575    
                              N = 623.99730422    
                            current damping = 0.150
 
          Norm of current diis error: 0.12014E-01
          max. resid. norm for Fia-block=  6.939D-04 for orbital    302a         
          max. resid. fock norm         =  9.366D-04 for orbital   1576a         
          irrep a   : virtual orbitals shifted by    0.09729

 ITERATION  ENERGY          1e-ENERGY        2e-ENERGY     RMS[dD(SAO)]   TOL
  13  -5070.0429058121    -38111.499335     17386.594614    0.809D-05 0.849D-14
                            Exc = -587.786743617     Coul =  17974.3813577    
                              N = 623.99730478    
                            current damping = 0.200
 
          Norm of current diis error: 0.77272E-02
          max. resid. norm for Fia-block=  5.866D-04 for orbital    311a         
          max. resid. fock norm         =  7.445D-04 for orbital    313a         
          irrep a   : virtual orbitals shifted by    0.09802

 ITERATION  ENERGY          1e-ENERGY        2e-ENERGY     RMS[dD(SAO)]   TOL
  14  -5070.0429405271    -38111.625632     17386.720876    0.565D-05 0.849D-14
                            Exc = -587.785625520     Coul =  17974.5065016    
                              N = 623.99730448    
                            current damping = 0.250
 
          Norm of current diis error: 0.74573E-02
          max. resid. norm for Fia-block=  4.832D-04 for orbital    311a         
          max. resid. fock norm         =  5.267D-04 for orbital    314a         
          irrep a   : virtual orbitals shifted by    0.09744

 ITERATION  ENERGY          1e-ENERGY        2e-ENERGY     RMS[dD(SAO)]   TOL
  15  -5070.0429650695    -38111.653384     17386.748603    0.454D-05 0.849D-14
                            Exc = -587.786069835     Coul =  17974.5346733    
                              N = 623.99730453    
                            current damping = 0.100
 
          Norm of current diis error: 0.64849E-02
          max. resid. norm for Fia-block=  4.211D-04 for orbital    311a         
          max. resid. fock norm         =  4.252D-04 for orbital    314a         
          irrep a   : virtual orbitals shifted by    0.09728
          mo-orthogonalization: Cholesky decomposition

 ITERATION  ENERGY          1e-ENERGY        2e-ENERGY     RMS[dD(SAO)]   TOL
  16  -5070.0429847356    -38111.661338     17386.756538    0.412D-05 0.849D-14
                            Exc = -587.786587722     Coul =  17974.5431261    
                              N = 623.99730458    
                            current damping = 0.050
 
          Norm of current diis error: 0.48275E-02
          max. resid. norm for Fia-block=  3.873D-04 for orbital    311a         
          max. resid. fock norm         =  4.062D-04 for orbital    314a         
          irrep a   : virtual orbitals shifted by    0.09737

 ITERATION  ENERGY          1e-ENERGY        2e-ENERGY     RMS[dD(SAO)]   TOL
  17  -5070.0429984206    -38111.667764     17386.762951    0.337D-05 0.849D-14
                            Exc = -587.786305254     Coul =  17974.5492558    
                              N = 623.99730455    
                            current damping = 0.050
 
          Norm of current diis error: 0.49325E-02
          max. resid. norm for Fia-block=  3.267D-04 for orbital    311a         
          max. resid. fock norm         =  3.496D-04 for orbital   1504a         
          irrep a   : virtual orbitals shifted by    0.09682

 ITERATION  ENERGY          1e-ENERGY        2e-ENERGY     RMS[dD(SAO)]   TOL
  18  -5070.0430096678    -38111.629238     17386.724413    0.354D-05 0.849D-14
                            Exc = -587.787075459     Coul =  17974.5114884    
                              N = 623.99730463    
                            current damping = 0.100
 
          Norm of current diis error: 0.36552E-02
          max. resid. norm for Fia-block=  3.273D-04 for orbital    311a         
          max. resid. fock norm         =  3.349D-04 for orbital    314a         
          irrep a   : virtual orbitals shifted by    0.09698

 ITERATION  ENERGY          1e-ENERGY        2e-ENERGY     RMS[dD(SAO)]   TOL
  19  -5070.0430191413    -38111.664229     17386.759395    0.264D-05 0.849D-14
                            Exc = -587.786919531     Coul =  17974.5463144    
                              N = 623.99730446    
                            current damping = 0.150
 
          Norm of current diis error: 0.24245E-02
          max. resid. norm for Fia-block=  2.941D-04 for orbital    311a         
          max. resid. fock norm         =  2.963D-04 for orbital    314a         
          irrep a   : virtual orbitals shifted by    0.09676

 ITERATION  ENERGY          1e-ENERGY        2e-ENERGY     RMS[dD(SAO)]   TOL
  20  -5070.0430263106    -38111.668515     17386.763674    0.232D-05 0.849D-14
                            Exc = -587.786760759     Coul =  17974.5504346    
                              N = 623.99730436    
                            current damping = 0.050
 
          Norm of current diis error: 0.22803E-02
          max. resid. norm for Fia-block=  2.665D-04 for orbital    311a         
          max. resid. fock norm         =  2.701D-04 for orbital    314a         
          irrep a   : virtual orbitals shifted by    0.09694
          mo-orthogonalization: Cholesky decomposition

 ITERATION  ENERGY          1e-ENERGY        2e-ENERGY     RMS[dD(SAO)]   TOL
  21  -5070.0430323500    -38111.675727     17386.770880    0.214D-05 0.849D-14
                            Exc = -587.786971749     Coul =  17974.5578516    
                              N = 623.99730433    
                            current damping = 0.050
 
          Norm of current diis error: 0.23067E-02
          max. resid. norm for Fia-block=  2.486D-04 for orbital    311a         
          max. resid. fock norm         =  2.535D-04 for orbital    314a         
          irrep a   : virtual orbitals shifted by    0.09691

 ITERATION  ENERGY          1e-ENERGY        2e-ENERGY     RMS[dD(SAO)]   TOL
  22  -5070.0430374372    -38111.685631     17386.780778    0.195D-05 0.849D-14
                            Exc = -587.787074557     Coul =  17974.5678526    
                              N = 623.99730424    
                            current damping = 0.050
 
          Norm of current diis error: 0.20128E-02
          max. resid. norm for Fia-block=  2.167D-04 for orbital    311a         
          max. resid. fock norm         =  2.197D-04 for orbital    314a         
          irrep a   : virtual orbitals shifted by    0.09672

 ITERATION  ENERGY          1e-ENERGY        2e-ENERGY     RMS[dD(SAO)]   TOL
  23  -5070.0430414689    -38111.666182     17386.761326    0.187D-05 0.849D-14
                            Exc = -587.787134046     Coul =  17974.5484597    
                              N = 623.99730424    
                            current damping = 0.100
 
          Norm of current diis error: 0.19723E-02
          max. resid. norm for Fia-block=  2.197D-04 for orbital    311a         
          max. resid. fock norm         =  2.222D-04 for orbital    314a         
          irrep a   : virtual orbitals shifted by    0.09671

 ITERATION  ENERGY          1e-ENERGY        2e-ENERGY     RMS[dD(SAO)]   TOL
  24  -5070.0430451844    -38111.686468     17386.781607    0.166D-05 0.849D-14
                            Exc = -587.787045480     Coul =  17974.5686528    
                              N = 623.99730413    
                            current damping = 0.150
 
          Norm of current diis error: 0.15196E-02
          max. resid. norm for Fia-block=  1.924D-04 for orbital    311a         
          max. resid. fock norm         =  1.936D-04 for orbital    311a         
          irrep a   : virtual orbitals shifted by    0.09645

 ITERATION  ENERGY          1e-ENERGY        2e-ENERGY     RMS[dD(SAO)]   TOL
  25  -5070.0430481941    -38111.687659     17386.782796    0.150D-05 0.849D-14
                            Exc = -587.787152271     Coul =  17974.5699482    
                              N = 623.99730410    
                            current damping = 0.050
 
          Norm of current diis error: 0.13979E-02
          max. resid. norm for Fia-block=  1.799D-04 for orbital    311a         
          max. resid. fock norm         =  1.852D-04 for orbital    314a         
          irrep a   : virtual orbitals shifted by    0.09676
          mo-orthogonalization: Cholesky decomposition

 ITERATION  ENERGY          1e-ENERGY        2e-ENERGY     RMS[dD(SAO)]   TOL
  26  -5070.0430507873    -38111.690296     17386.785430    0.137D-05 0.849D-14
                            Exc = -587.787179492     Coul =  17974.5726093    
                              N = 623.99730402    
                            current damping = 0.050
 
          Norm of current diis error: 0.14598E-02
          max. resid. norm for Fia-block=  1.666D-04 for orbital    311a         
          max. resid. fock norm         =  1.720D-04 for orbital    314a         
          irrep a   : virtual orbitals shifted by    0.09673

 ITERATION  ENERGY          1e-ENERGY        2e-ENERGY     RMS[dD(SAO)]   TOL
  27  -5070.0430530501    -38111.693955     17386.789087    0.129D-05 0.849D-14
                            Exc = -587.787138388     Coul =  17974.5762255    
                              N = 623.99730399    
                            current damping = 0.050
 
          Norm of current diis error: 0.12464E-02
          max. resid. norm for Fia-block=  1.501D-04 for orbital    311a         
          max. resid. fock norm         =  1.545D-04 for orbital    314a         
          irrep a   : virtual orbitals shifted by    0.09667

 ITERATION  ENERGY          1e-ENERGY        2e-ENERGY     RMS[dD(SAO)]   TOL
  28  -5070.0430549528    -38111.694004     17386.789134    0.120D-05 0.849D-14
                            Exc = -587.787255926     Coul =  17974.5763897    
                              N = 623.99730396    
                            current damping = 0.050
 
          Norm of current diis error: 0.11478E-02
          max. resid. norm for Fia-block=  1.383D-04 for orbital    311a         
          max. resid. fock norm         =  1.434D-04 for orbital    314a         
          irrep a   : virtual orbitals shifted by    0.09666

 ITERATION  ENERGY          1e-ENERGY        2e-ENERGY     RMS[dD(SAO)]   TOL
  29  -5070.0430565793    -38111.693085     17386.788213    0.109D-05 0.849D-14
                            Exc = -587.787225900     Coul =  17974.5754392    
                              N = 623.99730392    
                            current damping = 0.100
 
          Norm of current diis error: 0.10401E-02
          max. resid. norm for Fia-block=  1.344D-04 for orbital    311a         
          max. resid. fock norm         =  1.379D-04 for orbital    314a         
          irrep a   : virtual orbitals shifted by    0.09652

 ITERATION  ENERGY          1e-ENERGY        2e-ENERGY     RMS[dD(SAO)]   TOL
  30  -5070.0430580009    -38111.701396     17386.796523    0.102D-05 0.849D-14
                            Exc = -587.787211051     Coul =  17974.5837344    
                              N = 623.99730386    
                            current damping = 0.150
 
          Norm of current diis error: 0.99858E-03
          max. resid. norm for Fia-block=  1.189D-04 for orbital    311a         
          max. resid. fock norm         =  1.249D-04 for orbital    313a         
          irrep a   : virtual orbitals shifted by    0.09630
          mo-orthogonalization: Cholesky decomposition

 ITERATION  ENERGY          1e-ENERGY        2e-ENERGY     RMS[dD(SAO)]   TOL
  31  -5070.0430592370    -38111.698534     17386.793659    0.954D-06 0.849D-14
                            Exc = -587.787276830     Coul =  17974.5809361    
                              N = 623.99730385    
                            current damping = 0.200
 
          Norm of current diis error: 0.83236E-03
          max. resid. norm for Fia-block=  1.100D-04 for orbital    311a         
          max. resid. fock norm         =  1.150D-04 for orbital    313a         
          irrep a   : virtual orbitals shifted by    0.09612

 ITERATION  ENERGY          1e-ENERGY        2e-ENERGY     RMS[dD(SAO)]   TOL
  32  -5070.0430602752    -38111.699656     17386.794781    0.867D-06 0.849D-14
                            Exc = -587.787326135     Coul =  17974.5821071    
                              N = 623.99730381    
                            current damping = 0.250
 
          Norm of current diis error: 0.81780E-03
          max. resid. norm for Fia-block=  1.053D-04 for orbital    311a         
          max. resid. fock norm         =  1.102D-04 for orbital    313a         
          irrep a   : virtual orbitals shifted by    0.09598

 ITERATION  ENERGY          1e-ENERGY        2e-ENERGY     RMS[dD(SAO)]   TOL
  33  -5070.0430611920    -38111.703142     17386.798266    0.812D-06 0.849D-14
                            Exc = -587.787251276     Coul =  17974.5855169    
                              N = 623.99730378    
                            current damping = 0.100
 
          Norm of current diis error: 0.77368E-03
          max. resid. norm for Fia-block=  9.496D-05 for orbital    311a         
          max. resid. fock norm         =  1.017D-04 for orbital    313a         
          irrep a   : virtual orbitals shifted by    0.09643

 ITERATION  ENERGY          1e-ENERGY        2e-ENERGY     RMS[dD(SAO)]   TOL
  34  -5070.0430619825    -38111.703114     17386.798237    0.760D-06 0.849D-14
                            Exc = -587.787323846     Coul =  17974.5855605    
                              N = 623.99730375    
                            current damping = 0.150
 
          Norm of current diis error: 0.75141E-03
          max. resid. norm for Fia-block=  8.809D-05 for orbital    311a         
          max. resid. fock norm         =  9.615D-05 for orbital    313a         
          irrep a   : virtual orbitals shifted by    0.09625

 ITERATION  ENERGY          1e-ENERGY        2e-ENERGY     RMS[dD(SAO)]   TOL
  35  -5070.0430626715    -38111.703007     17386.798129    0.705D-06 0.849D-14
                            Exc = -587.787341630     Coul =  17974.5854710    
                              N = 623.99730373    
                            current damping = 0.050
 
          Norm of current diis error: 0.69731E-03
          max. resid. norm for Fia-block=  8.289D-05 for orbital    311a         
          max. resid. fock norm         =  8.884D-05 for orbital    313a         
          irrep a   : virtual orbitals shifted by    0.09658
          mo-orthogonalization: Cholesky decomposition

 ITERATION  ENERGY          1e-ENERGY        2e-ENERGY     RMS[dD(SAO)]   TOL
  36  -5070.0430632687    -38111.706208     17386.801329    0.659D-06 0.849D-14
                            Exc = -587.787331903     Coul =  17974.5886612    
                              N = 623.99730370    
                            current damping = 0.100
 
          Norm of current diis error: 0.60923E-03
          max. resid. norm for Fia-block=  7.464D-05 for orbital    311a         
          max. resid. fock norm         =  8.209D-05 for orbital    313a         
          irrep a   : virtual orbitals shifted by    0.09639

 ITERATION  ENERGY          1e-ENERGY        2e-ENERGY     RMS[dD(SAO)]   TOL
  37  -5070.0430637774    -38111.704003     17386.799124    0.608D-06 0.849D-14
                            Exc = -587.787322223     Coul =  17974.5864461    
                              N = 623.99730369    
                            current damping = 0.150
 
          Norm of current diis error: 0.57956E-03
          max. resid. norm for Fia-block=  7.056D-05 for orbital    311a         
          max. resid. fock norm         =  7.804D-05 for orbital    313a         
          irrep a   : virtual orbitals shifted by    0.09623

 ITERATION  ENERGY          1e-ENERGY        2e-ENERGY     RMS[dD(SAO)]   TOL
  38  -5070.0430642256    -38111.707105     17386.802225    0.565D-06 0.849D-14
                            Exc = -587.787383636     Coul =  17974.5896090    
                              N = 623.99730366    
                            current damping = 0.200
 
          Norm of current diis error: 0.53590E-03
          max. resid. norm for Fia-block=  6.501D-05 for orbital    311a         
          max. resid. fock norm         =  7.255D-05 for orbital    313a         
          irrep a   : virtual orbitals shifted by    0.09605

 ITERATION  ENERGY          1e-ENERGY        2e-ENERGY     RMS[dD(SAO)]   TOL
  39  -5070.0430646116    -38111.707490     17386.802610    0.526D-06 0.849D-14
                            Exc = -587.787349407     Coul =  17974.5899599    
                              N = 623.99730365    
                            current damping = 0.050
 
          Norm of current diis error: 0.49401E-03
          max. resid. norm for Fia-block=  5.993D-05 for orbital    311a         
          max. resid. fock norm         =  6.804D-05 for orbital    313a         
          irrep a   : virtual orbitals shifted by    0.09654

 ITERATION  ENERGY          1e-ENERGY        2e-ENERGY     RMS[dD(SAO)]   TOL
  40  -5070.0430649463    -38111.707495     17386.802615    0.492D-06 0.849D-14
                            Exc = -587.787380447     Coul =  17974.5899954    
                              N = 623.99730363    
                            current damping = 0.050
 
          Norm of current diis error: 0.50533E-03
          max. resid. norm for Fia-block=  5.613D-05 for orbital    311a         
          max. resid. fock norm         =  6.415D-05 for orbital    313a         
          irrep a   : virtual orbitals shifted by    0.09653
          mo-orthogonalization: Cholesky decomposition

 ITERATION  ENERGY          1e-ENERGY        2e-ENERGY     RMS[dD(SAO)]   TOL
  41  -5070.0430652405    -38111.708292     17386.803411    0.460D-06 0.849D-14
                            Exc = -587.787381546     Coul =  17974.5907929    
                              N = 623.99730362    
                            current damping = 0.050
 
          Norm of current diis error: 0.44967E-03
          max. resid. norm for Fia-block=  5.176D-05 for orbital    311a         
          max. resid. fock norm         =  5.936D-05 for orbital    313a         
          irrep a   : virtual orbitals shifted by    0.09653

 ITERATION  ENERGY          1e-ENERGY        2e-ENERGY     RMS[dD(SAO)]   TOL
  42  -5070.0430654936    -38111.709808     17386.804927    0.430D-06 0.849D-14
                            Exc = -587.787391103     Coul =  17974.5923184    
                              N = 623.99730360    
                            current damping = 0.050
 
          Norm of current diis error: 0.42637E-03
          max. resid. norm for Fia-block=  4.751D-05 for orbital    311a         
          max. resid. fock norm         =  5.554D-05 for orbital    313a         
          irrep a   : virtual orbitals shifted by    0.09652

 ITERATION  ENERGY          1e-ENERGY        2e-ENERGY     RMS[dD(SAO)]   TOL
  43  -5070.0430657134    -38111.708599     17386.803718    0.398D-06 0.849D-14
                            Exc = -587.787385651     Coul =  17974.5911040    
                              N = 623.99730359    
                            current damping = 0.100
 
          Norm of current diis error: 0.38586E-03
          max. resid. norm for Fia-block=  4.438D-05 for orbital    311a         
          max. resid. fock norm         =  5.189D-05 for orbital    313a         
          irrep a   : virtual orbitals shifted by    0.09635

 ITERATION  ENERGY          1e-ENERGY        2e-ENERGY     RMS[dD(SAO)]   TOL
  44  -5070.0430659044    -38111.710377     17386.805496    0.371D-06 0.849D-14
                            Exc = -587.787410167     Coul =  17974.5929061    
                              N = 623.99730357    
                            current damping = 0.150
 
          Norm of current diis error: 0.35314E-03
          max. resid. norm for Fia-block=  4.073D-05 for orbital    311a         
          max. resid. fock norm         =  4.854D-05 for orbital    313a         
          irrep a   : virtual orbitals shifted by    0.09618

 ITERATION  ENERGY          1e-ENERGY        2e-ENERGY     RMS[dD(SAO)]   TOL
  45  -5070.0430660692    -38111.710286     17386.805405    0.344D-06 0.849D-14
                            Exc = -587.787395472     Coul =  17974.5928005    
                              N = 623.99730356    
                            current damping = 0.200
 
          Norm of current diis error: 0.32984E-03
          max. resid. norm for Fia-block=  3.785D-05 for orbital    311a         
          max. resid. fock norm         =  4.559D-05 for orbital    313a         
          irrep a   : virtual orbitals shifted by    0.09601
          mo-orthogonalization: Cholesky decomposition

 ITERATION  ENERGY          1e-ENERGY        2e-ENERGY     RMS[dD(SAO)]   TOL
  46  -5070.0430662137    -38111.710628     17386.805747    0.321D-06 0.849D-14
                            Exc = -587.787416153     Coul =  17974.5931632    
                              N = 623.99730355    
                            current damping = 0.250
 
          Norm of current diis error: 0.31267E-03
          max. resid. norm for Fia-block=  3.525D-05 for orbital    311a         
          max. resid. fock norm         =  4.276D-05 for orbital    313a         
          irrep a   : virtual orbitals shifted by    0.09584

 ITERATION  ENERGY          1e-ENERGY        2e-ENERGY     RMS[dD(SAO)]   TOL
  47  -5070.0430663385    -38111.711068     17386.806186    0.300D-06 0.849D-14
                            Exc = -587.787413854     Coul =  17974.5936003    
                              N = 623.99730354    
                            current damping = 0.100
 
          Norm of current diis error: 0.28960E-03
          max. resid. norm for Fia-block=  3.240D-05 for orbital    311a         
          max. resid. fock norm         =  3.985D-05 for orbital    313a         
          irrep a   : virtual orbitals shifted by    0.09633

 ITERATION  ENERGY          1e-ENERGY        2e-ENERGY     RMS[dD(SAO)]   TOL
  48  -5070.0430664473    -38111.711721     17386.806839    0.281D-06 0.849D-14
                            Exc = -587.787420926     Coul =  17974.5942600    
                              N = 623.99730353    
                            current damping = 0.050
 
          Norm of current diis error: 0.28016E-03
          max. resid. norm for Fia-block=  3.014D-05 for orbital    309a         
          max. resid. fock norm         =  3.739D-05 for orbital    313a         
          irrep a   : virtual orbitals shifted by    0.09649

 ITERATION  ENERGY          1e-ENERGY        2e-ENERGY     RMS[dD(SAO)]   TOL
  49  -5070.0430665426    -38111.711159     17386.806277    0.262D-06 0.849D-14
                            Exc = -587.787420772     Coul =  17974.5936981    
                              N = 623.99730352    
                            current damping = 0.100
 
          Norm of current diis error: 0.25849E-03
          max. resid. norm for Fia-block=  2.830D-05 for orbital    309a         
          max. resid. fock norm         =  3.490D-05 for orbital    313a         
          irrep a   : virtual orbitals shifted by    0.09633

 ITERATION  ENERGY          1e-ENERGY        2e-ENERGY     RMS[dD(SAO)]   TOL
  50  -5070.0430666253    -38111.712259     17386.807377    0.245D-06 0.849D-14
                            Exc = -587.787430547     Coul =  17974.5948073    
                              N = 623.99730351    
                            current damping = 0.150
 
          Norm of current diis error: 0.23283E-03
          max. resid. norm for Fia-block=  2.642D-05 for orbital    309a         
          max. resid. fock norm         =  3.252D-05 for orbital    313a         
          irrep a   : virtual orbitals shifted by    0.09615
          mo-orthogonalization: Cholesky decomposition

 ITERATION  ENERGY          1e-ENERGY        2e-ENERGY     RMS[dD(SAO)]   TOL
  51  -5070.0430666961    -38111.712001     17386.807119    0.227D-06 0.849D-14
                            Exc = -587.787425819     Coul =  17974.5945449    
                              N = 623.99730351    
                            current damping = 0.200
 
          Norm of current diis error: 0.21763E-03
          max. resid. norm for Fia-block=  2.487D-05 for orbital    309a         
          max. resid. fock norm         =  3.073D-05 for orbital    313a         
          irrep a   : virtual orbitals shifted by    0.09598

 ITERATION  ENERGY          1e-ENERGY        2e-ENERGY     RMS[dD(SAO)]   TOL
  52  -5070.0430667589    -38111.712362     17386.807480    0.211D-06 0.849D-14
                            Exc = -587.787437033     Coul =  17974.5949166    
                              N = 623.99730350    
                            current damping = 0.250
 
          Norm of current diis error: 0.20693E-03
          max. resid. norm for Fia-block=  2.343D-05 for orbital    309a         
          max. resid. fock norm         =  2.881D-05 for orbital    313a         
          irrep a   : virtual orbitals shifted by    0.09581

 ITERATION  ENERGY          1e-ENERGY        2e-ENERGY     RMS[dD(SAO)]   TOL
  53  -5070.0430668135    -38111.712624     17386.807742    0.198D-06 0.849D-14
                            Exc = -587.787434672     Coul =  17974.5951768    
                              N = 623.99730349    
                            current damping = 0.100
 
          Norm of current diis error: 0.18971E-03
          max. resid. norm for Fia-block=  2.197D-05 for orbital    309a         
          max. resid. fock norm         =  2.688D-05 for orbital    313a         
          irrep a   : virtual orbitals shifted by    0.09631

 ITERATION  ENERGY          1e-ENERGY        2e-ENERGY     RMS[dD(SAO)]   TOL
  54  -5070.0430668605    -38111.712954     17386.808072    0.186D-06 0.849D-14
                            Exc = -587.787440878     Coul =  17974.5955128    
                              N = 623.99730349    
                            current damping = 0.050
 
          Norm of current diis error: 0.18686E-03
          max. resid. norm for Fia-block=  2.065D-05 for orbital    309a         
          max. resid. fock norm         =  2.532D-05 for orbital    313a         
          irrep a   : virtual orbitals shifted by    0.09648

 ITERATION  ENERGY          1e-ENERGY        2e-ENERGY     RMS[dD(SAO)]   TOL
  55  -5070.0430669021    -38111.712667     17386.807785    0.173D-06 0.849D-14
                            Exc = -587.787441401     Coul =  17974.5952265    
                              N = 623.99730348    
                            current damping = 0.100
 
          Norm of current diis error: 0.17049E-03
          max. resid. norm for Fia-block=  1.940D-05 for orbital    309a         
          max. resid. fock norm         =  2.359D-05 for orbital    313a         
          irrep a   : virtual orbitals shifted by    0.09631
          mo-orthogonalization: Cholesky decomposition

 ITERATION  ENERGY          1e-ENERGY        2e-ENERGY     RMS[dD(SAO)]   TOL
  56  -5070.0430669385    -38111.713317     17386.808435    0.162D-06 0.849D-14
                            Exc = -587.787444367     Coul =  17974.5958789    
                              N = 623.99730348    
                            current damping = 0.150
 
          Norm of current diis error: 0.15409E-03
          max. resid. norm for Fia-block=  1.809D-05 for orbital    309a         
          max. resid. fock norm         =  2.201D-05 for orbital    313a         
          irrep a   : virtual orbitals shifted by    0.09614

 ITERATION  ENERGY          1e-ENERGY        2e-ENERGY     RMS[dD(SAO)]   TOL
  57  -5070.0430669700    -38111.713111     17386.808229    0.150D-06 0.849D-14
                            Exc = -587.787444417     Coul =  17974.5956731    
                              N = 623.99730347    
                            current damping = 0.200
 
          Norm of current diis error: 0.14474E-03
          max. resid. norm for Fia-block=  1.707D-05 for orbital    309a         
          max. resid. fock norm         =  2.083D-05 for orbital    313a         
          irrep a   : virtual orbitals shifted by    0.09597

 ITERATION  ENERGY          1e-ENERGY        2e-ENERGY     RMS[dD(SAO)]   TOL
  58  -5070.0430669970    -38111.713372     17386.808490    0.140D-06 0.849D-14
                            Exc = -587.787450775     Coul =  17974.5959407    
                              N = 623.99730347    
                            current damping = 0.250
 
          Norm of current diis error: 0.13642E-03
          max. resid. norm for Fia-block=  1.609D-05 for orbital    309a         
          max. resid. fock norm         =  1.954D-05 for orbital    313a         
          irrep a   : virtual orbitals shifted by    0.09580

 ITERATION  ENERGY          1e-ENERGY        2e-ENERGY     RMS[dD(SAO)]   TOL
  59  -5070.0430670208    -38111.713518     17386.808636    0.131D-06 0.849D-14
                            Exc = -587.787448074     Coul =  17974.5960842    
                              N = 623.99730346    
                            current damping = 0.100
 
          Norm of current diis error: 0.12590E-03
          max. resid. norm for Fia-block=  1.509D-05 for orbital    309a         
          max. resid. fock norm         =  1.827D-05 for orbital    313a         
          irrep a   : virtual orbitals shifted by    0.09630

 ITERATION  ENERGY          1e-ENERGY        2e-ENERGY     RMS[dD(SAO)]   TOL
  60  -5070.0430670426    -38111.713711     17386.808829    0.123D-06 0.849D-14
                            Exc = -587.787452862     Coul =  17974.5962819    
                              N = 623.99730346    
                            current damping = 0.050
 
          Norm of current diis error: 0.12408E-03
          max. resid. norm for Fia-block=  1.421D-05 for orbital    309a         
          max. resid. fock norm         =  1.723D-05 for orbital    313a         
          irrep a   : virtual orbitals shifted by    0.09647
          mo-orthogonalization: Cholesky decomposition

 ITERATION  ENERGY          1e-ENERGY        2e-ENERGY     RMS[dD(SAO)]   TOL
  61  -5070.0430670609    -38111.713544     17386.808662    0.115D-06 0.849D-14
                            Exc = -587.787454107     Coul =  17974.5961159    
                              N = 623.99730346    
                            current damping = 0.100
 
          Norm of current diis error: 0.11322E-03
          max. resid. norm for Fia-block=  1.336D-05 for orbital    309a         
          max. resid. fock norm         =  1.607D-05 for orbital    313a         
          irrep a   : virtual orbitals shifted by    0.09630

 ITERATION  ENERGY          1e-ENERGY        2e-ENERGY     RMS[dD(SAO)]   TOL
  62  -5070.0430670767    -38111.713941     17386.809059    0.108D-06 0.849D-14
                            Exc = -587.787454271     Coul =  17974.5965128    
                              N = 623.99730345    
                            current damping = 0.150
 
          Norm of current diis error: 0.10250E-03
          max. resid. norm for Fia-block=  1.247D-05 for orbital    309a         
          max. resid. fock norm         =  1.501D-05 for orbital    313a         
          irrep a   : virtual orbitals shifted by    0.09613

 ITERATION  ENERGY          1e-ENERGY        2e-ENERGY     RMS[dD(SAO)]   TOL
  63  -5070.0430670905    -38111.713795     17386.808912    0.100D-06 0.849D-14
                            Exc = -587.787455272     Coul =  17974.5963677    
                              N = 623.99730345    
                            current damping = 0.200
 
          Norm of current diis error: 0.96604E-04
          max. resid. norm for Fia-block=  1.178D-05 for orbital    309a         
          max. resid. fock norm         =  1.422D-05 for orbital    313a         
          irrep a   : virtual orbitals shifted by    0.09596

 DENSITY CONVERGED !


 ITERATION  ENERGY          1e-ENERGY        2e-ENERGY     RMS[dD(SAO)]   TOL
  64  -5070.0430671031    -38111.713972     17386.809090    0.938D-07 0.849D-14
                            Exc = -587.787459504     Coul =  17974.5965494    
                              N = 623.99730345    
                            current damping = 0.250
 
          Norm of current diis error: 0.90581E-04
          max. resid. norm for Fia-block=  1.111D-05 for orbital    309a         
          max. resid. fock norm         =  1.335D-05 for orbital    313a         
          irrep a   : virtual orbitals shifted by    0.09579

 DENSITY CONVERGED !


 ITERATION  ENERGY          1e-ENERGY        2e-ENERGY     RMS[dD(SAO)]   TOL
  65  -5070.0430671133    -38111.714051     17386.809169    0.878D-07 0.849D-14
                            Exc = -587.787457266     Coul =  17974.5966258    
                              N = 623.99730344    
                            current damping = 0.100
 
          Norm of current diis error: 0.83988E-04
          max. resid. norm for Fia-block=  1.043D-05 for orbital    309a         
          max. resid. fock norm         =  1.251D-05 for orbital    313a         
          irrep a   : virtual orbitals shifted by    0.09629
          mo-orthogonalization: Cholesky decomposition

 DENSITY CONVERGED !


 ITERATION  ENERGY          1e-ENERGY        2e-ENERGY     RMS[dD(SAO)]   TOL
  66  -5070.0430671228    -38111.714170     17386.809288    0.826D-07 0.849D-14
                            Exc = -587.787460324     Coul =  17974.5967480    
                              N = 623.99730344    
                            current damping = 0.050
 
          Norm of current diis error: 0.82899E-04
          max. resid. norm for Fia-block=  9.836D-06 for orbital    309a         
          max. resid. fock norm         =  1.180D-05 for orbital    313a         
          irrep a   : virtual orbitals shifted by    0.09646

 DENSITY CONVERGED !


 ITERATION  ENERGY          1e-ENERGY        2e-ENERGY     RMS[dD(SAO)]   TOL
  67  -5070.0430671314    -38111.714065     17386.809183    0.774D-07 0.849D-14
                            Exc = -587.787461620     Coul =  17974.5966446    
                              N = 623.99730344    
                            current damping = 0.100
 
          Norm of current diis error: 0.75491E-04
          max. resid. norm for Fia-block=  9.248D-06 for orbital    309a         
          max. resid. fock norm         =  1.103D-05 for orbital    313a         
          irrep a   : virtual orbitals shifted by    0.09629

 DENSITY CONVERGED !


 ITERATION  ENERGY          1e-ENERGY        2e-ENERGY     RMS[dD(SAO)]   TOL
  68  -5070.0430671385    -38111.714317     17386.809434    0.725D-07 0.849D-14
                            Exc = -587.787461263     Coul =  17974.5968957    
                              N = 623.99730344    
                            current damping = 0.150
 
          Norm of current diis error: 0.68880E-04
          max. resid. norm for Fia-block=  8.656D-06 for orbital    309a         
          max. resid. fock norm         =  1.033D-05 for orbital    313a         
          irrep a   : virtual orbitals shifted by    0.09612

 DENSITY CONVERGED !


 ITERATION  ENERGY          1e-ENERGY        2e-ENERGY     RMS[dD(SAO)]   TOL
  69  -5070.0430671449    -38111.714215     17386.809332    0.673D-07 0.849D-14
                            Exc = -587.787462055     Coul =  17974.5967944    
                              N = 623.99730344    
                            current damping = 0.200
 
          Norm of current diis error: 0.64681E-04
          max. resid. norm for Fia-block=  8.180D-06 for orbital    309a         
          max. resid. fock norm         =  9.775D-06 for orbital    313a         
          irrep a   : virtual orbitals shifted by    0.09596

 DENSITY CONVERGED !


 ITERATION  ENERGY          1e-ENERGY        2e-ENERGY     RMS[dD(SAO)]   TOL
  70  -5070.0430671501    -38111.714326     17386.809444    0.631D-07 0.849D-14
                            Exc = -587.787464816     Coul =  17974.5969085    
                              N = 623.99730343    
                            current damping = 0.250
 
          Norm of current diis error: 0.60552E-04
          max. resid. norm for Fia-block=  7.711D-06 for orbital    309a         
          max. resid. fock norm         =  9.193D-06 for orbital    313a         
          irrep a   : virtual orbitals shifted by    0.09579
          mo-orthogonalization: Cholesky decomposition

 DENSITY CONVERGED !


 ITERATION  ENERGY          1e-ENERGY        2e-ENERGY     RMS[dD(SAO)]   TOL
  71  -5070.0430671550    -38111.714374     17386.809492    0.592D-07 0.849D-14
                            Exc = -587.787463335     Coul =  17974.5969553    
                              N = 623.99730343    
                            current damping = 0.100
 
          Norm of current diis error: 0.56468E-04
          max. resid. norm for Fia-block=  7.257D-06 for orbital    309a         
          max. resid. fock norm         =  8.627D-06 for orbital    313a         
          irrep a   : virtual orbitals shifted by    0.09629

 DENSITY CONVERGED !


 ITERATION  ENERGY          1e-ENERGY        2e-ENERGY     RMS[dD(SAO)]   TOL
  72  -5070.0430671594    -38111.714446     17386.809564    0.557D-07 0.849D-14
                            Exc = -587.787465254     Coul =  17974.5970292    
                              N = 623.99730343    
                            current damping = 0.050
 
          Norm of current diis error: 0.55622E-04
          max. resid. norm for Fia-block=  6.848D-06 for orbital    309a         
          max. resid. fock norm         =  8.145D-06 for orbital    313a         
          irrep a   : virtual orbitals shifted by    0.09646

 DENSITY CONVERGED !


 ITERATION  ENERGY          1e-ENERGY        2e-ENERGY     RMS[dD(SAO)]   TOL
  73  -5070.0430671633    -38111.714376     17386.809494    0.523D-07 0.849D-14
                            Exc = -587.787466126     Coul =  17974.5969601    
                              N = 623.99730343    
                            current damping = 0.100
 
          Norm of current diis error: 0.50820E-04
          max. resid. norm for Fia-block=  6.441D-06 for orbital    309a         
          max. resid. fock norm         =  7.629D-06 for orbital    313a         
          irrep a   : virtual orbitals shifted by    0.09629

 DENSITY CONVERGED !


 ITERATION  ENERGY          1e-ENERGY        2e-ENERGY     RMS[dD(SAO)]   TOL
  74  -5070.0430671661    -38111.714542     17386.809659    0.490D-07 0.849D-14
                            Exc = -587.787465893     Coul =  17974.5971254    
                              N = 623.99730343    
                            current damping = 0.150
 
          Norm of current diis error: 0.46610E-04
          max. resid. norm for Fia-block=  6.043D-06 for orbital    309a         
          max. resid. fock norm         =  7.160D-06 for orbital    313a         
          irrep a   : virtual orbitals shifted by    0.09612

 DENSITY CONVERGED !


 ITERATION  ENERGY          1e-ENERGY        2e-ENERGY     RMS[dD(SAO)]   TOL
  75  -5070.0430671697    -38111.714470     17386.809588    0.456D-07 0.849D-14
                            Exc = -587.787466505     Coul =  17974.5970544    
                              N = 623.99730343    
                            current damping = 0.200
 
          Norm of current diis error: 0.43601E-04
          max. resid. norm for Fia-block=  5.711D-06 for orbital    309a         
          max. resid. fock norm         =  6.766D-06 for orbital    313a         
          irrep a   : virtual orbitals shifted by    0.09595
          mo-orthogonalization: Cholesky decomposition

 DENSITY CONVERGED !


 ITERATION  ENERGY          1e-ENERGY        2e-ENERGY     RMS[dD(SAO)]   TOL
  76  -5070.0430671720    -38111.714537     17386.809655    0.428D-07 0.849D-14
                            Exc = -587.787468090     Coul =  17974.5971231    
                              N = 623.99730343    
                            current damping = 0.250
 
          Norm of current diis error: 0.40772E-04
          max. resid. norm for Fia-block=  5.386D-06 for orbital    309a         
          max. resid. fock norm         =  6.377D-06 for orbital    313a         
          irrep a   : virtual orbitals shifted by    0.09578

 DENSITY CONVERGED !


 ITERATION  ENERGY          1e-ENERGY        2e-ENERGY     RMS[dD(SAO)]   TOL
  77  -5070.0430671747    -38111.714570     17386.809688    0.401D-07 0.849D-14
                            Exc = -587.787467234     Coul =  17974.5971549    
                              N = 623.99730342    
                            current damping = 0.100
 
          Norm of current diis error: 0.38253E-04
          max. resid. norm for Fia-block=  5.077D-06 for orbital    309a         
          max. resid. fock norm         =  5.993D-06 for orbital    313a         
          irrep a   : virtual orbitals shifted by    0.09629

 DENSITY CONVERGED !


 ITERATION  ENERGY          1e-ENERGY        2e-ENERGY     RMS[dD(SAO)]   TOL
  78  -5070.0430671763    -38111.714613     17386.809730    0.378D-07 0.849D-14
                            Exc = -587.787468551     Coul =  17974.5971990    
                              N = 623.99730342    
                            current damping = 0.050
 
          Norm of current diis error: 0.37587E-04
          max. resid. norm for Fia-block=  4.794D-06 for orbital    309a         
          max. resid. fock norm         =  5.661D-06 for orbital    313a         
          irrep a   : virtual orbitals shifted by    0.09646

 DENSITY CONVERGED !


 ITERATION  ENERGY          1e-ENERGY        2e-ENERGY     RMS[dD(SAO)]   TOL
  79  -5070.0430671782    -38111.714564     17386.809682    0.356D-07 0.849D-14
                            Exc = -587.787468951     Coul =  17974.5971508    
                              N = 623.99730342    
                            current damping = 0.100
 
          Norm of current diis error: 0.34494E-04
          max. resid. norm for Fia-block=  4.512D-06 for orbital    309a         
          max. resid. fock norm         =  5.314D-06 for orbital    313a         
          irrep a   : virtual orbitals shifted by    0.09629

 DENSITY CONVERGED !


 ITERATION  ENERGY          1e-ENERGY        2e-ENERGY     RMS[dD(SAO)]   TOL
  80  -5070.0430671795    -38111.714675     17386.809793    0.334D-07 0.849D-14
                            Exc = -587.787468865     Coul =  17974.5972619    
                              N = 623.99730342    
                            current damping = 0.150
 
          Norm of current diis error: 0.31746E-04
          max. resid. norm for Fia-block=  4.243D-06 for orbital    309a         
          max. resid. fock norm         =  4.996D-06 for orbital    313a         
          irrep a   : virtual orbitals shifted by    0.09612
          mo-orthogonalization: Cholesky decomposition

 DENSITY CONVERGED !


 ITERATION  ENERGY          1e-ENERGY        2e-ENERGY     RMS[dD(SAO)]   TOL
  81  -5070.0430671811    -38111.714624     17386.809742    0.311D-07 0.849D-14
                            Exc = -587.787469421     Coul =  17974.5972115    
                              N = 623.99730342    
                            current damping = 0.200
 
          Norm of current diis error: 0.29627E-04
          max. resid. norm for Fia-block=  4.008D-06 for orbital    309a         
          max. resid. fock norm         =  4.716D-06 for orbital    313a         
          irrep a   : virtual orbitals shifted by    0.09595

 DENSITY CONVERGED !


 ITERATION  ENERGY          1e-ENERGY        2e-ENERGY     RMS[dD(SAO)]   TOL
  82  -5070.0430671824    -38111.714665     17386.809783    0.292D-07 0.849D-14
                            Exc = -587.787470190     Coul =  17974.5972527    
                              N = 623.99730342    
                            current damping = 0.250
 
          Norm of current diis error: 0.27646E-04
          max. resid. norm for Fia-block=  3.783D-06 for orbital    309a         
          max. resid. fock norm         =  4.452D-06 for orbital    313a         
          irrep a   : virtual orbitals shifted by    0.09578

 DENSITY CONVERGED !


 ITERATION  ENERGY          1e-ENERGY        2e-ENERGY     RMS[dD(SAO)]   TOL
  83  -5070.0430671833    -38111.714688     17386.809805    0.274D-07 0.849D-14
                            Exc = -587.787469742     Coul =  17974.5972749    
                              N = 623.99730342    
                            current damping = 0.100
 
          Norm of current diis error: 0.26095E-04
          max. resid. norm for Fia-block=  3.571D-06 for orbital    309a         
          max. resid. fock norm         =  4.191D-06 for orbital    313a         
          irrep a   : virtual orbitals shifted by    0.09629

 DENSITY CONVERGED !


 ITERATION  ENERGY          1e-ENERGY        2e-ENERGY     RMS[dD(SAO)]   TOL
  84  -5070.0430671839    -38111.714712     17386.809830    0.259D-07 0.849D-14
                            Exc = -587.787470711     Coul =  17974.5973007    
                              N = 623.99730342    
                            current damping = 0.050
 
          Norm of current diis error: 0.25616E-04
          max. resid. norm for Fia-block=  3.374D-06 for orbital    309a         
          max. resid. fock norm         =  3.961D-06 for orbital    313a         
          irrep a   : virtual orbitals shifted by    0.09646

 DENSITY CONVERGED !


 ITERATION  ENERGY          1e-ENERGY        2e-ENERGY     RMS[dD(SAO)]   TOL
  85  -5070.0430671846    -38111.714679     17386.809796    0.244D-07 0.849D-14
                            Exc = -587.787470786     Coul =  17974.5972671    
                              N = 623.99730342    
                            current damping = 0.100
 
          Norm of current diis error: 0.23569E-04
          max. resid. norm for Fia-block=  3.178D-06 for orbital    309a         
          max. resid. fock norm         =  3.724D-06 for orbital    313a         
          irrep a   : virtual orbitals shifted by    0.09629
          mo-orthogonalization: Cholesky decomposition

 DENSITY CONVERGED !


 ITERATION  ENERGY          1e-ENERGY        2e-ENERGY     RMS[dD(SAO)]   TOL
  86  -5070.0430671857    -38111.714754     17386.809872    0.229D-07 0.849D-14
                            Exc = -587.787470788     Coul =  17974.5973424    
                              N = 623.99730342    
                            current damping = 0.150
 
          Norm of current diis error: 0.21773E-04
          max. resid. norm for Fia-block=  2.994D-06 for orbital    309a         
          max. resid. fock norm         =  3.507D-06 for orbital    313a         
          irrep a   : virtual orbitals shifted by    0.09612

 DENSITY CONVERGED !


 ITERATION  ENERGY          1e-ENERGY        2e-ENERGY     RMS[dD(SAO)]   TOL
  87  -5070.0430671866    -38111.714717     17386.809834    0.214D-07 0.849D-14
                            Exc = -587.787471293     Coul =  17974.5973058    
                              N = 623.99730342    
                            current damping = 0.200
 
          Norm of current diis error: 0.20299E-04
          max. resid. norm for Fia-block=  2.828D-06 for orbital    309a         
          max. resid. fock norm         =  3.309D-06 for orbital    313a         
          irrep a   : virtual orbitals shifted by    0.09595

 DENSITY CONVERGED !


 ITERATION  ENERGY          1e-ENERGY        2e-ENERGY     RMS[dD(SAO)]   TOL
  88  -5070.0430671867    -38111.714742     17386.809860    0.201D-07 0.849D-14
                            Exc = -587.787471579     Coul =  17974.5973313    
                              N = 623.99730342    
                            current damping = 0.250
 
          Norm of current diis error: 0.18874E-04
          max. resid. norm for Fia-block=  2.671D-06 for orbital    309a         
          max. resid. fock norm         =  3.127D-06 for orbital    313a         
          irrep a   : virtual orbitals shifted by    0.09578

 DENSITY CONVERGED !


 ITERATION  ENERGY          1e-ENERGY        2e-ENERGY     RMS[dD(SAO)]   TOL
  89  -5070.0430671869    -38111.714758     17386.809875    0.189D-07 0.849D-14
                            Exc = -587.787471382     Coul =  17974.5973465    
                              N = 623.99730342    
                            current damping = 0.100
 
          Norm of current diis error: 0.17922E-04
          max. resid. norm for Fia-block=  2.524D-06 for orbital    309a         
          max. resid. fock norm         =  2.949D-06 for orbital    313a         
          irrep a   : virtual orbitals shifted by    0.09629

 ENERGY & DENSITY CONVERGED !


 ITERATION  ENERGY          1e-ENERGY        2e-ENERGY     RMS[dD(SAO)]   TOL
  90  -5070.0412864446    -38111.714771     17386.811670    0.178D-07 0.849D-14
                            Exc = -587.785691350     Coul =  17974.5973611    
                              N = 623.99998269    
                            current damping = 0.050
 
          Norm of current diis error: 0.17601E-04
          max. resid. norm for Fia-block=  2.393D-06 for orbital    309a         
          max. resid. fock norm         =  2.795D-06 for orbital    313a         

 End of SCF iterations

   convergence criteria satisfied after   90 iterations


                  ------------------------------------------ 
                 |  total energy      =  -5070.04128644459  |
                  ------------------------------------------ 
                 :  kinetic energy    =   5046.43325355935  :
                 :  potential energy  = -10116.47454000394  :
                 :  virial theorem    =      1.99534362118  :
                 :  wavefunction norm =      1.00000000000  :
                  .......................................... 


 <geterg> : there is no data group $energy 


 <skperg> : $end is missing 


 orbitals $scfmo  will be written to file mos

    irrep                308a        309a        310a        311a        312a   
 eigenvalues H         -0.16178    -0.16112    -0.16112    -0.16041    -0.16035
            eV          -4.4023     -4.3845     -4.3844     -4.3651     -4.3633
 occupation              2.0000      2.0000      2.0000      2.0000      2.0000 

    irrep                313a        314a        315a        316a        317a   
 eigenvalues H         -0.15697    -0.15541    -0.14028    -0.14017    -0.12253
            eV          -4.2714     -4.2290     -3.8173     -3.8144     -3.3342
 
 
 ! grave: sending quit signal to master process
 
 
 
 
 ==============================================================================
                           electrostatic moments
 ==============================================================================

 reference point for electrostatic moments:    0.00000   0.00000   0.00000

 
              nuc           elec       ->  total
 ------------------------------------------------------------------------------
                          charge      
 ------------------------------------------------------------------------------
         624.000000    -624.000000      -0.000000
 
 ------------------------------------------------------------------------------
                       dipole moment  
 ------------------------------------------------------------------------------
   x      -0.804671       0.838787       0.034116
   y      -1.910862       1.998396       0.087535
   z      -0.592437       0.623380       0.030943
 
   | dipole moment | =     0.0989 a.u. =     0.2514 debye 
 
 ------------------------------------------------------------------------------
                     quadrupole moment
 ------------------------------------------------------------------------------
  xx    8178.205505   -8524.883159    -346.677654
  yy   20917.872607  -21408.178606    -490.305999
  zz   84652.177196  -85407.291453    -755.114257
  xy    6907.113698   -6874.441206      32.672492
  xz   -9545.774909    9355.147490    -190.627419
  yz  -17564.214430   17746.305911     182.091481
 
     1/3  trace=    -530.699303
     anisotropy=     583.504346
 
 ==============================================================================
 

    ridft profiling
  --------------------------------------------------------------------
             module   cpu total (s)       %  wall total (s)       %

               RIDFT         33003.6  100.00         33056.2  100.00
         Ridft_b_scf           173.4    0.53           173.4    0.52
        b_scf_prelim             0.0    0.00             0.0    0.00
        b_scf_molinp             0.0    0.00             0.0    0.00
         b_scf_init0             0.0    0.00             0.0    0.00
        b_scf_auxbas             0.0    0.00             0.0    0.00
      b_scf_symmetry             0.0    0.00             0.0    0.00
         b_scf_cosmo             0.0    0.00             0.0    0.00
        b_scf_params             5.0    0.02             5.0    0.02
          b_scf_ri-j            69.6    0.21            69.7    0.21
    b_scf_ri-j_auxpq            69.5    0.21            69.6    0.21
     ri-j_auxpq_chol            16.0    0.05            16.0    0.05
         b_scf_1elec             5.3    0.02             5.3    0.02
       b_scf_moinput            93.4    0.28            93.4    0.28
     moinput_orthmos            92.2    0.28            92.1    0.28
    b_scf_dft-dstmax             0.0    0.00             0.0    0.00
           Ridft_scf         32827.8   99.47         32880.4   99.47
          Scf_b_loop             0.0    0.00             0.0    0.00
                noga             0.0    0.00             0.0    0.00
            Scf_loop         32819.9   99.44         32871.8   99.44
     scf_loop_mkdmat           158.2    0.48           158.2    0.48
       scf_loop_ri-j          6631.0   20.09          6625.8   20.04
      parlp1.bc.dens             8.2    0.02             8.1    0.02
        parlp1.gs.gp           137.9    0.42           137.8    0.42
        parlp2.bc.gq             0.0    0.00             0.0    0.00
        scf_loop_dft         20544.9   62.25         20529.7   62.11
      pardft.bc.dens             0.0    0.00             0.0    0.00
        dft_grid_con            11.9    0.04            11.9    0.04
          dft_xcmrhf         20273.1   61.43         20258.1   61.28
          dft_getval           394.5    1.20           394.4    1.19
          funct2 dst            10.0    0.03             9.8    0.03
      funct2 f2loop1            58.1    0.18            58.0    0.18
      funct2 f2loop2           194.2    0.59           194.6    0.59
          funct2 s+c           126.0    0.38           126.0    0.38
        funct2 cmf_2           116.1    0.35           115.7    0.35
          dft_mkdens          9507.5   28.81          9500.6   28.74
        dft_mgga-fun            11.7    0.04            11.5    0.03
          dft_mkfock         10353.3   31.37         10345.7   31.30
     pardft.red.fock           592.2    1.79           591.8    1.79
     scf_loop_energy             0.9    0.00             0.9    0.00
     scf_loop_mkfock             1.6    0.00             1.6    0.00
       scf_loop_diis          2775.1    8.41          2773.0    8.39
       scf_loop_diag          1558.6    4.72          1557.4    4.71
         diag_tritrn           522.5    1.58           522.1    1.58
          diag_rdiag          1030.9    3.12          1030.2    3.12
     scf_loop_modump           643.9    1.95           719.8    2.18
      scf_loop_ortho           482.6    1.46           482.2    1.46
          Scf_a_loop             7.9    0.02             8.6    0.03
         Ridft_a_scf             2.4    0.01             2.4    0.01
         a_scf_fanal             2.4    0.01             2.4    0.01
 


    ------------------------------------------------------------------------
         total  cpu-time :  9 hours 10 minutes and 14 seconds
         total wall-time :  9 hours 11 minutes and  7 seconds
    ------------------------------------------------------------------------


   ****  ridft : all done  ****


    2017-11-13 21:19:10.675 

