
   OpenMP run-time library returned nthreads = 28
 operating system is UNIX !

 dscf (c-19-411) : TURBOMOLE V7.3 ( 22142 ) 4 Jul 2018 at 18:12:42
 Copyright (C) 2018 TURBOMOLE GmbH, Karlsruhe


    2019-04-02 20:11:24.523 



                             d s c f - program

                   idea & directorship : reinhart ahlrichs
                   program development : marco haeser
                                         michael baer
                           dft version : oliver treutler


                          quantum chemistry group
                          universitaet  karlsruhe
                                  germany




                          References             
                                                 
          TURBOMOLE:                             
              R. Ahlrichs, M. Baer, M. Haeser, H. Horn, and
              C. Koelmel
              Electronic structure calculations on workstation
              computers: the program system TURBOMOLE
              Chem. Phys. Lett. 162: 165 (1989)
          Density Functional:                              
              O. Treutler and R. Ahlrichs                      
              Efficient Molecular Numerical Integration Schemes
              J. Chem. Phys. 102: 346 (1995)                   
          Parallel Version:                                
              Performance of parallel TURBOMOLE for Density    
              Functional Calculations                          
              M. v. Arnim and R. Ahlrichs                      
              J. Comp. Chem. 19: 1746 (1998)                   
                                         




              +--------------------------------------------------+
              | Atomic coordinate, charge and isotop information |
              +--------------------------------------------------+

                    atomic coordinates            atom    charge  isotop
          1.14665739    2.51413293    0.59797456    c      6.000     0
          2.35554071    4.16167648    0.62427540    h      1.000     0
          2.11287380    0.16487645    1.29468260    c      6.000     0
          4.06301990   -0.00734496    1.87793091    h      1.000     0
          0.55350511   -1.95792138    1.26442949    c      6.000     0
          1.30107051   -3.78126921    1.80540272    h      1.000     0
         -1.97066638   -1.73233297    0.54459949    c      6.000     0
         -3.17986023   -3.37975298    0.52789316    h      1.000     0
         -2.93585656    0.61859994   -0.15107070    c      6.000     0
         -4.89294495    0.79423126   -0.71308097    h      1.000     0
         -1.37579931    2.74169623   -0.12632505    c      6.000     0
         -2.12334124    4.56493328   -0.66870120    h      1.000     0
          0.79177046   -0.51339860    7.60610416    c      6.000     0
          3.05092420   -0.20357659    7.75069802    o      8.000     0
         -0.30332900   -2.80262221    7.98298803    o      8.000     0
          1.08458198   -3.93855264    8.34777720    h      1.000     0
         -1.13931087    1.45934607    7.00010455    c      6.000     0
         -0.23546541    3.29416876    6.91162234    h      1.000     0
         -1.99497906    1.01866914    5.18085000    h      1.000     0
         -2.62246435    1.44888360    8.42212248    h      1.000     0
 
       center of nuclear mass  :    0.02773396   -0.03120651    3.62508906
       center of nuclear charge:   -0.01574377   -0.00140481    3.59957534

              +--------------------------------------------------+
              |               basis set information              |
              +--------------------------------------------------+

              we will work with the 1s 3p 5d 7f 9g ... basis set
              ...i.e. with spherical basis functions...

   type   atoms  prim   cont   basis
   ---------------------------------------------------------------------------
    c        8     77     55   cc-pVQZ   [5s4p3d2f1g|21s6p3d2f1g]
    h       10     32     30   cc-pVQZ   [4s3p2d1f|6s3p2d1f]
    o        2     77     55   cc-pVQZ   [5s4p3d2f1g|21s6p3d2f1g]
   ---------------------------------------------------------------------------
   total:   20   1090    850
   ---------------------------------------------------------------------------

   total number of primitive shells          :   78
   total number of contracted shells         :  250
   total number of cartesian basis functions : 1050
   total number of SCF-basis functions       :  850


 integral neglect threshold       :  0.32E-13
 integral storage threshold THIZE :  0.10E-04
 integral storage threshold THIME :         5


 DENSITY CONVERGENCE CHECK SWITCHED ON !
 SCF CONVERGENCE IF RMS(delta[D]) <     0.1000000000E-06


 symmetry group of the molecule :   c1 

 the group has the following generators :
   c1(z)

    1 symmetry operations found

 there are 1 real representations :   a   

 maximum number of shells which are related by symmetry :  1


    mo occupation :
   irrep   mo's   occupied
    a      850       37
 
 number of basis functions   :                    850
 number of occupied orbitals :                     37
 

 automatic virtual orbital shift switched on 
      shift if e(lumo)-e(homo) < 0.10000000    


          ------------------------
          nuclear repulsion energy  :   496.780906011    
          ------------------------


         -----------------
         -S,T+V- integrals
         -----------------

 1e-integrals will be neglected if expon. factor < 0.318282E-14
 
   Difference densities algorithm switched on.
   The maximal number of linear combinations of
   difference densities is                    20 .

 DIIS switched on: error vector is FDS-SDF
 Max. Iterations for DIIS is     :   5
 DIIS matrix (see manual) 
    Scaling factor of diagonals  :  1.200
    threshold for scaling factor :  0.000

 scf convergence criterion : increment of total energy < .1000000D-08
                  and increment of one-electron energy < .1000000D-05

  MOs are in ASCII format !


 reading orbital data $scfmo  from file mos
 orbital characterization : scfconv=9

 DSCF restart information will be dumped onto file mos

 
                                              current damping :  0.700
 ITERATION  ENERGY          1e-ENERGY        2e-ENERGY     RMS[dD(SAO)]   TOL
   1  -458.60896962776    -1610.9254230     655.53554739    0.000D+00 0.317D-13
          max. resid. norm for Fia-block=  1.187D-01 for orbital      1a         
          max. resid. fock norm         =  2.530D-01 for orbital    848a         
          Delta Eig. =    29.9504391938 eV 
 
                                              current damping :  0.650
 ITERATION  ENERGY          1e-ENERGY        2e-ENERGY     RMS[dD(SAO)]   TOL
   2  -458.69027898398    -1609.5983795     654.12719455    0.114D-02 0.207D-13
          Norm of current diis error: 0.80085    
          max. resid. norm for Fia-block=  5.391D-02 for orbital      1a         
          max. resid. fock norm         =  9.855D-02 for orbital    850a         
          Delta Eig. =    12.8019868768 eV 
 
                                              current damping :  0.600
 ITERATION  ENERGY          1e-ENERGY        2e-ENERGY     RMS[dD(SAO)]   TOL
   3  -458.70658103664    -1609.7980652     654.31057812    0.500D-03 0.157D-13
          Norm of current diis error: 0.35485    
          max. resid. norm for Fia-block=  2.383D-02 for orbital      2a         
          max. resid. fock norm         =  3.831D-02 for orbital    848a         
          Delta Eig. =     5.4933102309 eV 
 
                                              current damping :  0.650
 ITERATION  ENERGY          1e-ENERGY        2e-ENERGY     RMS[dD(SAO)]   TOL
   4  -458.71015384727    -1609.7114654     654.22040550    0.216D-03 0.136D-13
          Norm of current diis error: 0.14604    
          max. resid. norm for Fia-block=  8.694D-03 for orbital      1a         
          max. resid. fock norm         =  1.484D-02 for orbital    849a         
          Delta Eig. =     2.0295950538 eV 
 
                                              current damping :  0.500
 ITERATION  ENERGY          1e-ENERGY        2e-ENERGY     RMS[dD(SAO)]   TOL
   5  -458.71077566779    -1609.6864694     654.19478768    0.798D-04 0.125D-13
          Norm of current diis error: 0.62531E-01
          max. resid. norm for Fia-block=  4.260D-03 for orbital     24a         
          max. resid. fock norm         =  5.660D-03 for orbital    850a         
 mo-orthogonalization: Cholesky decomposition
          Delta Eig. =     0.8341192122 eV 
 
                                              current damping :  0.350
 ITERATION  ENERGY          1e-ENERGY        2e-ENERGY     RMS[dD(SAO)]   TOL
   6  -458.71090655193    -1609.6793701     654.18755752    0.368D-04 0.118D-13
          Norm of current diis error: 0.23974E-01
          max. resid. norm for Fia-block=  1.860D-03 for orbital     24a         
          max. resid. fock norm         =  1.938D-03 for orbital     24a         
          Delta Eig. =     0.3173117403 eV 
 
                                              current damping :  0.200
 ITERATION  ENERGY          1e-ENERGY        2e-ENERGY     RMS[dD(SAO)]   TOL
   7  -458.71092943364    -1609.6755475     654.18371207    0.146D-04 0.112D-13
          Norm of current diis error: 0.80044E-02
          max. resid. norm for Fia-block=  7.375D-04 for orbital     24a         
          max. resid. fock norm         =  7.447D-04 for orbital     24a         
          Delta Eig. =     0.0949750083 eV 
 
                                              current damping :  0.050
 ITERATION  ENERGY          1e-ENERGY        2e-ENERGY     RMS[dD(SAO)]   TOL
   8  -458.71093269752    -1609.6747883     654.18294955    0.514D-05 0.106D-13
          Norm of current diis error: 0.24027E-02
          max. resid. norm for Fia-block=  2.572D-04 for orbital     24a         
          max. resid. fock norm         =  2.783D-04 for orbital     24a         
          Delta Eig. =     0.0224246448 eV 
 
                                              current damping :  0.050
 ITERATION  ENERGY          1e-ENERGY        2e-ENERGY     RMS[dD(SAO)]   TOL
   9  -458.71093310135    -1609.6745437     654.18270463    0.161D-05 0.101D-13
          Norm of current diis error: 0.81580E-03
          max. resid. norm for Fia-block=  9.054D-05 for orbital     35a         
          max. resid. fock norm         =  1.071D-04 for orbital    804a         
          Delta Eig. =     0.0053830173 eV 
 
                                              current damping :  0.050
 ITERATION  ENERGY          1e-ENERGY        2e-ENERGY     RMS[dD(SAO)]   TOL
  10  -458.71093314419    -1609.6745169     654.18267771    0.451D-06 0.978D-14
          Norm of current diis error: 0.39475E-03
          max. resid. norm for Fia-block=  3.884D-05 for orbital     34a         
          max. resid. fock norm         =  5.575D-05 for orbital    838a         
 mo-orthogonalization: Cholesky decomposition
          Delta Eig. =     0.0028742901 eV 
 
                                              current damping :  0.100
 ITERATION  ENERGY          1e-ENERGY        2e-ENERGY     RMS[dD(SAO)]   TOL
  11  -458.71093315277    -1609.6745663     654.18272714    0.182D-06 0.952D-14
          Norm of current diis error: 0.16972E-03
          max. resid. norm for Fia-block=  1.591D-05 for orbital     35a         
          max. resid. fock norm         =  1.899D-05 for orbital     35a         
          Delta Eig. =     0.0008195017 eV 

 DENSITY CONVERGED !

 
                                              current damping :  0.150
 ITERATION  ENERGY          1e-ENERGY        2e-ENERGY     RMS[dD(SAO)]   TOL
  12  -458.71093315456    -1609.6745454     654.18270623    0.818D-07 0.925D-14
          Norm of current diis error: 0.57829E-04
          max. resid. norm for Fia-block=  5.477D-06 for orbital     34a         
          max. resid. fock norm         =  5.633D-06 for orbital     34a         
          Delta Eig. =     0.0000849150 eV 

 DENSITY CONVERGED !

 
                                              current damping :  0.200
 ITERATION  ENERGY          1e-ENERGY        2e-ENERGY     RMS[dD(SAO)]   TOL
  13  -458.71093315489    -1609.6745571     654.18271796    0.343D-07 0.905D-14
          Norm of current diis error: 0.30152E-04
          max. resid. norm for Fia-block=  2.810D-06 for orbital     36a         
          max. resid. fock norm         =  2.811D-06 for orbital     36a         
          Delta Eig. =     0.0000537443 eV 

 ENERGY & DENSITY CONVERGED !

 
                                              current damping :  0.250
 ITERATION  ENERGY          1e-ENERGY        2e-ENERGY     RMS[dD(SAO)]   TOL
  14  -458.71093315496    -1609.6745550     654.18271585    0.175D-07 0.904D-14
          max. resid. norm for Fia-block=  9.602D-07 for orbital     36a         
          max. resid. fock norm         =  9.607D-07 for orbital     36a         

 convergence criteria satisfied after    14 iterations


                  ------------------------------------------ 
                 |  total energy      =   -458.71093315496  |
                  ------------------------------------------ 
                 :  kinetic energy    =    458.18821746282  :
                 :  potential energy  =   -916.89915061778  :
                 :  virial theorem    =      1.99886046821  :
                 :  wavefunction norm =      1.00000000000  :
                  .......................................... 


 orbitals $scfmo  will be written to file mos

    irrep                 33a         34a         35a         36a         37a   
 eigenvalues H         -0.49779    -0.47848    -0.44891    -0.34182    -0.34085
            eV         -13.5457    -13.0201    -12.2155     -9.3016     -9.2751
 occupation              2.0000      2.0000      2.0000      2.0000      2.0000 

    irrep                 38a         39a         40a         41a         42a   
 eigenvalues H          0.10658     0.11632     0.11866     0.12565     0.13436
            eV           2.9003      3.1652      3.2290      3.4191      3.6562
 
 
 
 
 ==============================================================================
                           electrostatic moments
 ==============================================================================

 reference point for electrostatic moments:    0.00000   0.00000   0.00000

 
              nuc           elec       ->  total
 ------------------------------------------------------------------------------
                          charge      
 ------------------------------------------------------------------------------
          74.000000     -74.000000       0.000000
 
 ------------------------------------------------------------------------------
                       dipole moment  
 ------------------------------------------------------------------------------
   x      -1.165039       0.464785      -0.700254
   y      -0.103956       0.032451      -0.071505
   z     266.368575    -266.548710      -0.180135
 
   | dipole moment | =     0.7266 a.u. =     1.8468 debye 
 
 ------------------------------------------------------------------------------
                     quadrupole moment
 ------------------------------------------------------------------------------
  xx     284.036445    -329.649057     -45.612612
  yy     298.031417    -337.003469     -38.972053
  zz    1878.984013   -1927.861936     -48.877923
  xy     -19.601162      17.585354      -2.015807
  xz     169.759196    -173.712831      -3.953635
  yz    -168.873194     166.571810      -2.301384
 
     1/3  trace=     -44.487529
     anisotropy=      12.305122
 
 ==============================================================================
 


    ------------------------------------------------------------------------
         total  cpu-time :  2 hours 38 minutes and 11 seconds
         total wall-time :  8 minutes and  0 seconds
    ------------------------------------------------------------------------

   ****  dscf : all done  ****


    2019-04-02 20:19:24.290 

