STARTING ridft ON 32 PROCESSORS!
RUNNING PROGRAM /sopt/TURBOMOLE/7.3-official/bin/em64t-unknown-linux-gnu_smp/ridft_mpi.
           SMPCPUS    set: Shared-memory Parallelization with  32 CPUs.

           SMP Parallelization Reference:
           C. van Wullen, J. Comput. Chem. 32 (2011) 1195--1201
 operating system is UNIX !

 ridft (c-13-33) : TURBOMOLE V7.3 ( 22118 ) 1 Jul 2018 at 20:38:15
 Copyright (C) 2018 TURBOMOLE GmbH, Karlsruhe


    2019-03-12 22:18:26.024 



                                  r i d f t

                        DFT program with RI approximation 
                                for coulomb part 




                                                 
                                 References:     
                                                 
          TURBOMOLE:                             
              R. Ahlrichs, M. Baer, M. Haeser, H. Horn, and
              C. Koelmel
              Electronic structure calculations on workstation
              computers: the program system TURBOMOLE
              Chem. Phys. Lett. 162: 165 (1989)
          Density Functional:                              
              O. Treutler and R. Ahlrichs                      
              Efficient Molecular Numerical Integration Schemes
              J. Chem. Phys. 102: 346 (1995)                   
          Parallel Version:                                
              Performance of parallel TURBOMOLE for Density    
              Functional Calculations                          
              M. v. Arnim and R. Ahlrichs                      
              J. Comp. Chem. 19: 1746 (1998)                   
          RI-J Method:                                     
              Auxiliary Basis Sets to approximate Coulomb      
              Potentials                                       
              Chem. Phys. Lett. 240: 283 (1995)                
              K. Eichkorn, O. Treutler, H. Oehm, M. Haeser     
              and R. Ahlrichs                                  
              Chem. Phys. Lett. 242: 652 (1995)                
                                                           
              Auxiliary Basis Sets for Main Row Atoms and their
              Use to approximate Coulomb Potentials            
              K. Eichkorn, F. Weigend, O. Treutler and         
              R. Ahlrichs                                      
              Theo. Chem. Acc. 97: 119 (1997)                   
                                                           
              Accurate Coulomb-fitting basis sets for H to Rn 
              F. Weigend                                        
              Phys. Chem. Chem. Phys. 8: 1057 (2006)            
                                                           
          Multipole accelerated RI-J (MARI-J):             
              Fast evaluation of the Coulomb potential for     
              electron densities using multipole accelerated   
              resolution of identity approximation             
              M. Sierka, A. Hogekamp and R. Ahlrichs           
              J. Chem. Phys. 118: 9136 (2003)                  
          RI-JK Method:                                     
              A fully direct RI-HF algorithm: Implementation,
              optimised auxiliary basis sets, demonstration of
              accuracy and efficiency                         
              F. Weigend                                      
              Phys. Chem. Chem. Phys. 4: 4285 (2002)           
          Two-component HF and DFT with spin-orbit coupling:  
              Self-consistent treatment of spin-orbit         
              interactions with efficient Hartree-Fock and    
              density functional methods                      
              M. K. Armbruster, F. Weigend, C. van Wüllen and 
              W. Klopper                                      
              Phys. Chem. Chem. Phys. 10: 1748 (2008)         
          Two-component difference density and DIIS algorithm 
              Efficient two-component self-consistent field   
              procedures and gradients: implementation in     
              TURBOMOLE and application to Au20-              
              A. Baldes, F. Weigend                           
              Mol. Phys. 111: 2617 (2013)                     
          Relativistic all-electron 2c calculations           
              An efficient implementation of two-component    
              relativistic exact-decoupling methods for large 
              molecules                                       
              D. Peng, N. Middendorf, F. Weigend, M. Reiher   
              J. Chem. Phys. 138: 184105 (2013)               
          Finite nucleus model and SNSO approximation         
              Efficient implementation of one- and two-       
              component analytical energy gradients in exact  
              two-component theory                            
              Y. J. Franzke, N. Middendorf, F. Weigend        
              J. Chem. Phys. 148: 104110 (2018)               
                                         




              +--------------------------------------------------+
              |      general information about current run       |
              +--------------------------------------------------+

 
 PBE functional
 exchange:    LDA + PBE
 correlation: LDA (PW) + PBE
 A DFT calculation using the RI-J approximation will be carried out.
 Allocatable memory for RI due to $ricore (MB):                  8000


              +--------------------------------------------------+
              | Atomic coordinate, charge and isotop information |
              +--------------------------------------------------+

                    atomic coordinates            atom    charge  isotop
         -1.20685731    0.88990297    0.08422222    n      7.000     0
          0.35896172   -0.21531003   -0.01091053    h      1.000     0
         -2.45753015    0.15355310   -1.15966536    h      1.000     0
         -2.26513690    0.73963612    2.63039786    c      6.000     0
         -3.95470126    1.90719611    2.74608859    h      1.000     0
         -2.76418842   -1.16377587    3.26819100    h      1.000     0
         -0.90758924    1.50927685    3.97047959    h      1.000     0
 
       center of nuclear mass  :   -1.73591551    0.75848779    1.34131668
       center of nuclear charge:   -1.76465944    0.71433765    1.39922922

              +--------------------------------------------------+
              |               basis set information              |
              +--------------------------------------------------+

              we will work with the 1s 3p 5d 7f 9g ... basis set
              ...i.e. with spherical basis functions...

   type   atoms  prim   cont   basis
   ---------------------------------------------------------------------------
    n        1     68     48   def2-QZVP   [7s4p3d2f|15s8p3d2f]
    h        5     26     23   def2-QZVP   [4s3p2d|7s3p2d]
    c        1     68     48   def2-QZVP   [7s4p3d2f|15s8p3d2f]
   ---------------------------------------------------------------------------
   total:    7    266    211
   ---------------------------------------------------------------------------

   total number of primitive shells          :   68
   total number of contracted shells         :   77
   total number of cartesian basis functions :  239
   total number of SCF-basis functions       :  211


 integral neglect threshold       :  0.14E-10
 integral storage threshold THIZE :  0.10E-04
 integral storage threshold THIME :         5

 RI-J AUXILIARY BASIS SET information:

              we will work with the 1s 3p 5d 7f 9g ... basis set
              ...i.e. with spherical basis functions...

   type   atoms  prim   cont   basis
   ---------------------------------------------------------------------------
    n        1     70     49   def2-QZVP   [6s4p3d1f1g|12s5p4d2f1g]
    h        5     16     11   def2-QZVP   [3s1p1d|5s2p1d]
    c        1     70     49   def2-QZVP   [6s4p3d1f1g|12s5p4d2f1g]
   ---------------------------------------------------------------------------
   total:    7    220    153
   ---------------------------------------------------------------------------

   total number of primitive shells          :   56
   total number of contracted shells         :   55
   total number of cartesian basis functions :  182
   total number of SCF-basis functions       :  153


 symmetry group of the molecule :   c1 

 the group has the following generators :
   c1(z)

    1 symmetry operations found

 there are 1 real representations :   a   

 maximum number of shells which are related by symmetry :  1


    mo occupation :
   irrep   mo's   occupied
    a      211        9
 
 number of basis functions   :                    211
 number of occupied orbitals :                      9
 
  
           ------------------
           density functional
           ------------------
 PBE functional
 exchange:    LDA + PBE
 correlation: LDA (PW) + PBE

 iterations will be done with small grid
  
 spherical integration : Lebedev's spherical grid
 spherical gridsize    :                     4
    i.e. gridpoints    :                   434
 value for diffuse not defined
 radial integration    : Chebyshev 2nd kind (scaling 3)
 radial gridsize       :                     6
 integration cells     :                     7
 partition function    : becke
 partition sharpness   :                     3
  

 biggest AO integral is expected to be     6.129561670
  
           ------------------------
               RI-J - INFORMATION
           ------------------------
 Contributions to RI integral batches: 
  neglected integral batches:                    58
  direct contribution:                            0
  memory contribution:                  2945
 Memory core needed for (P|Q) and Cholesky      1 MByte
 Memory core minimum needed except of (P|Q)     1 MByte
 Total minimum memory core needed (sum)         1 MByte
  
 ****************************************
 Memory allocated for RI-J    40 MByte
 ****************************************
                                            

          ------------------------
          nuclear repulsion energy  :   42.0921754793    
          ------------------------

  _________________________________
 |                                 |
 |         DFTD3 V3.1 Rev 0        |
 | S.Grimme, University Bonn       |
 |            June  2014           |
 |   see standalone version        |
 |       dftd3 -h for options      |
 |_________________________________|
 
 Please cite DFT-D3 work done with this code as:
 S. Grimme, J. Antony, S. Ehrlich and H. Krieg,
 J. Chem. Phys, 132 (2010), 154104.
 If used with BJ-damping cite also
 S. Grimme, S. Ehrlich and L. Goerigk,
 J. Comput. Chem. 32 (2011), 1456-1465
 For DFT-D2 the reference is
 S. Grimme, J. Comput. Chem., 27 (2006), 1787-1799
 
C6 coefficients used:
                     2  C6 for element                      1
Z=  1 CN= 0.912     C6(AA)=    3.03
Z=  1 CN= 0.000     C6(AA)=    7.59
                     5  C6 for element                      6
Z=  6 CN= 0.000     C6(AA)=   49.11
Z=  6 CN= 0.987     C6(AA)=   43.25
Z=  6 CN= 1.998     C6(AA)=   29.36
Z=  6 CN= 2.999     C6(AA)=   25.78
Z=  6 CN= 3.984     C6(AA)=   18.21
                     4  C6 for element                      7
Z=  7 CN= 0.000     C6(AA)=   25.27
Z=  7 CN= 0.994     C6(AA)=   22.12
Z=  7 CN= 2.014     C6(AA)=   19.68
Z=  7 CN= 2.990     C6(AA)=   15.58

#           XYZ [au]              R0(AA) [Ang.]  CN          C6(AA)     C8(AA)   C10(AA) [au]
  1  -1.20686   0.88990   0.08422   n   0.533  2.999        15.7       345.5      9335.7
  2   0.35896  -0.21531  -0.01091   h   0.395  1.005         3.1        37.3       552.8
  3  -2.45753   0.15355  -1.15967   h   0.395  1.006         3.1        37.3       552.8
  4  -2.26514   0.73964   2.63040   c   0.610  3.990        18.3       530.3     18787.3
  5  -3.95470   1.90720   2.74609   h   0.395  0.998         3.1        37.4       553.4
  6  -2.76419  -1.16378   3.26819   h   0.395  0.996         3.1        37.4       553.6
  7  -0.90759   1.50928   3.97048   h   0.395  0.998         3.1        37.4       553.4

molecular C6(AA) [au] =       288.36

           DFT-D V3(BJ)
 DF pbe                                               
 parameters
 s6       :    1.0000
 s8       :    0.7875
 a1       :    0.4289
 a2       :    4.4407
 k1-k3    :   16.0000    1.3333   -4.0000
 
 Edisp /kcal,au:    -1.6753 -0.00266975

 E6    /kcal :    -1.2431
 E8    /kcal :    -0.4322
 % E8        : 25.80
 nuclear repulsion energy                  =      42.092175479
 empirical dispersive energy correction    =      -0.002669746
 nuclear repulsion + dispersion correction =      42.089505733


         -----------------
         -S,T+V- integrals
         -----------------

 1e-integrals will be neglected if expon. factor < 0.139831E-11
 Difference densities >>NOT<< switched on in parallel ridft!

 DIIS switched on: error vector is FDS-SDF
 Max. Iterations for DIIS is     :   4
 DIIS matrix (see manual) 
    Scaling factor of diagonals  :  1.200
    threshold for scaling factor :  0.000

 scf convergence criterion : increment of total energy < .1000000D-06
                  and increment of one-electron energy < .1000000D-03

  MOs are in ASCII format !


 automatic virtual orbital shift switched on 
      shift if e(lumo)-e(homo) < 0.10000000    


 reading orbital data $scfmo  from file mos
 orbital characterization : expanded
 mo provided and orthogonalized by Cholesky decomposition

 DSCF restart information will be dumped onto file mos


 Starting SCF iterations

          Overall gridpoints after grid construction =         16303

 ITERATION  ENERGY          1e-ENERGY        2e-ENERGY     NORM[dD(SAO)]  TOL
   1  -95.388338425331    -210.15469191     72.676847755    0.000D+00 0.139D-10
                            Exc = -13.8170403079     Coul =  86.4938880633    
                              N = 18.000159559    
                            current damping = 0.700
 
          max. resid. norm for Fia-block=  5.734D-01 for orbital      3a         
          max. resid. fock norm         =  7.527D+01 for orbital    197a         

 ITERATION  ENERGY          1e-ENERGY        2e-ENERGY     NORM[dD(SAO)]  TOL
   2  -95.695060783402    -211.13776774     73.353201224    0.000D+00 0.139D-10
                            Exc = -13.9433720838     Coul =  87.2965733076    
                              N = 18.000135487    
                            current damping = 0.650
 
          Norm of current diis error:  1.7163    
          max. resid. norm for Fia-block=  1.246D-01 for orbital      1a         
          max. resid. fock norm         =  1.557D-01 for orbital    134a         

 ITERATION  ENERGY          1e-ENERGY        2e-ENERGY     NORM[dD(SAO)]  TOL
   3  -95.754629662306    -211.54382365     73.699688252    0.000D+00 0.139D-10
                            Exc = -14.0257662195     Coul =  87.7254544719    
                              N = 18.000117836    
                            current damping = 0.500
 
          Norm of current diis error: 0.79762    
          max. resid. norm for Fia-block=  5.050D-02 for orbital      1a         
          max. resid. fock norm         =  5.361D-02 for orbital      1a         

 ITERATION  ENERGY          1e-ENERGY        2e-ENERGY     NORM[dD(SAO)]  TOL
   4  -95.773834129780    -211.58844069     73.725100830    0.000D+00 0.139D-10
                            Exc = -14.0483541710     Coul =  87.7734550012    
                              N = 18.000109521    
                            current damping = 0.350
 
          Norm of current diis error: 0.28652    
          max. resid. norm for Fia-block=  1.874D-02 for orbital      3a         
          max. resid. fock norm         =  2.692D-02 for orbital    134a         

 ITERATION  ENERGY          1e-ENERGY        2e-ENERGY     NORM[dD(SAO)]  TOL
   5  -95.776723502204    -211.80197561     73.935746372    0.000D+00 0.139D-10
                            Exc = -14.0820869842     Coul =  88.0178333563    
                              N = 18.000105469    
                            current damping = 0.200
 
          Norm of current diis error: 0.11817    
          max. resid. norm for Fia-block=  9.380D-03 for orbital      9a         
          max. resid. fock norm         =  9.463D-03 for orbital      9a         
          mo-orthogonalization: Cholesky decomposition

 ITERATION  ENERGY          1e-ENERGY        2e-ENERGY     NORM[dD(SAO)]  TOL
   6  -95.777139103674    -211.64729438     73.780649545    0.000D+00 0.139D-10
                            Exc = -14.0672875794     Coul =  87.8479371246    
                              N = 18.000105461    
                            current damping = 0.250
 
          Norm of current diis error: 0.73773E-01
          max. resid. norm for Fia-block=  2.383D-03 for orbital      5a         
          max. resid. fock norm         =  3.365D-03 for orbital    136a         

 ITERATION  ENERGY          1e-ENERGY        2e-ENERGY     NORM[dD(SAO)]  TOL
   7  -95.777249634939    -211.72890167     73.862146306    0.000D+00 0.139D-10
                            Exc = -14.0765050266     Coul =  87.9386513326    
                              N = 18.000104963    
                            current damping = 0.300
 
          Norm of current diis error: 0.10439E-01
          max. resid. norm for Fia-block=  5.468D-04 for orbital      7a         
          max. resid. fock norm         =  8.946D-04 for orbital    151a         

 ITERATION  ENERGY          1e-ENERGY        2e-ENERGY     NORM[dD(SAO)]  TOL
   8  -95.777251109711    -211.72026582     73.853508975    0.000D+00 0.139D-10
                            Exc = -14.0758932651     Coul =  87.9294022397    
                              N = 18.000104945    
                            current damping = 0.350
 
          Norm of current diis error: 0.61420E-02
          max. resid. norm for Fia-block=  1.996D-04 for orbital      7a         
          max. resid. fock norm         =  2.366D-04 for orbital    151a         

 ITERATION  ENERGY          1e-ENERGY        2e-ENERGY     NORM[dD(SAO)]  TOL
   9  -95.777251889533    -211.72622970     73.859472075    0.000D+00 0.139D-10
                            Exc = -14.0764847106     Coul =  87.9359567858    
                              N = 18.000104926    
                            current damping = 0.400
 
          Norm of current diis error: 0.69269E-03
          max. resid. norm for Fia-block=  3.585D-05 for orbital      9a         
          max. resid. fock norm         =  4.144D-05 for orbital      9a         

 ENERGY CONVERGED !

          Overall gridpoints after grid construction =         63473

 ITERATION  ENERGY          1e-ENERGY        2e-ENERGY     NORM[dD(SAO)]  TOL
  10  -95.777197008202    -211.72642744     73.859724699    0.000D+00 0.139D-10
                            Exc = -14.0764446421     Coul =  87.9361693406    
                              N = 17.999997173    
                            current damping = 0.250
 
          Norm of current diis error: 0.14124E-03
          max. resid. norm for Fia-block=  6.257D-06 for orbital      4a         
          max. resid. fock norm         =  8.479D-06 for orbital    191a         

 End of SCF iterations

   convergence criteria satisfied after    10 iterations


                  ------------------------------------------ 
                 |  total energy      =    -95.77719700820  |
                  ------------------------------------------ 
                 :  kinetic energy    =     95.37863232012  :
                 :  potential energy  =   -191.15582932832  :
                 :  virial theorem    =      1.99583862652  :
                 :  wavefunction norm =      1.00000000000  :
                  .......................................... 


 orbitals $scfmo  will be written to file mos

    irrep                  5a          6a          7a          8a          9a   
 eigenvalues H         -0.44130    -0.39435    -0.35713    -0.32303    -0.19990
            eV         -12.0084    -10.7310     -9.7180     -8.7902     -5.4396
 occupation              2.0000      2.0000      2.0000      2.0000      2.0000 

    irrep                 10a         11a         12a         13a         14a   
 eigenvalues H         -0.00038     0.03431     0.05091     0.07378     0.08803
            eV          -0.0102      0.9336      1.3854      2.0075      2.3955
 
 
 
 
 ==============================================================================
                           electrostatic moments
 ==============================================================================

 reference point for electrostatic moments:    0.00000   0.00000   0.00000

 
              nuc           elec       ->  total
 ------------------------------------------------------------------------------
                          charge      
 ------------------------------------------------------------------------------
          18.000000     -18.000000       0.000000
 
 ------------------------------------------------------------------------------
                       dipole moment  
 ------------------------------------------------------------------------------
   x     -31.763870      31.664150      -0.099720
   y      12.858078     -13.359973      -0.501895
   z      25.186126     -25.098916       0.087210
 
   | dipole moment | =     0.5191 a.u. =     1.3194 debye 
 
 ------------------------------------------------------------------------------
                     quadrupole moment
 ------------------------------------------------------------------------------
  xx      71.253029     -80.746034      -9.493005
  yy      16.165486     -28.319812     -12.154326
  zz      76.895337     -87.104440     -10.209103
  xy     -23.720112      23.728511       0.008399
  xz     -57.112201      57.370456       0.258255
  yz      19.448590     -18.736556       0.712035
 
     1/3  trace=     -10.618811
     anisotropy=       2.722304
 
 ==============================================================================
 


    ------------------------------------------------------------------------
         total  cpu-time :  20.57 seconds
         total wall-time :   4.73 seconds
    ------------------------------------------------------------------------

   ****  ridft : all done  ****


    2019-03-12 22:18:30.718 

