
OPTIMIZATION CYCLE 20
Sat Feb 13 20:24:20 PST 2016
 operating system is UNIX !
 hostname is         c-9-412.local

 statpt (c-9-412.local) : TURBOMOLE V7.0.2( ) 8 Jan 2016 at 10:54:38
 Copyright (C) 2016 TURBOMOLE GmbH, Karlsruhe


    2016-02-13 20:24:20.632 



                           this is S T A T P T   


                     hessian and coordinate update for
                          stationary point search 

                     by barbara unterreiner, marek sierka,
                           and reinhart ahlrichs

                          quantum chemistry group
                          universitaet  karlsruhe
                                  germany


  Keyword $statpt not found - using default options
 
        ***************  Stationary point options ******************
        ************************************************************
           Maximum allowed trust radius:           3.000000E-01
           Minimum allowed trust radius:           1.000000E-03
           Initial trust radius:                   1.500000E-01
           GDIIS used if gradient norm <           1.000000E-02
           Number of previous steps for GDIIS:       5
           Hessian update method:                  BFGS
                        *** Convergence criteria ***                
           Threshold for energy change:            1.000000E-07
           Threshold for max displacement element: 1.000000E-03
           Threshold for max gradient element :    1.000000E-04
           Threshold for RMS of displacement:      5.000000E-04
           Threshold for RMS of gradient:          5.000000E-04
        ************************************************************
 
  actual coordinates :
        -0.781724000843         0.411303776671        -1.037347174513
         3.812251437709         0.423697588010        -1.153838560479
         3.910699305433         3.294487043098        -1.140739799626
         1.545419428970         4.359116374077        -2.395088946894
        -0.772869400728         3.298806166789        -1.054259631409
        -3.107281516410        -0.650300884588         0.346129017037
        -3.053167417782        -3.542916471049         0.317931956151
        -0.564651342948        -4.568540555481         1.353854049090
         1.642803152240        -3.338208334953        -0.015109183140
        -2.513526492386         3.952358877003        -1.951391247995
        -0.780338526396         3.987548013049         0.890997533662
         1.516689552237         3.811046490757        -4.388819048210
         1.537762452222         6.419484886251        -2.325003687118
         5.616384057201         3.916676198472        -2.119021153900
         4.026115470147         3.963196240886         0.809418713032
         3.846788507230        -0.249406038792        -3.127055778216
         5.465561153314        -0.362612611429        -0.206049629676
         3.432999422501        -3.954307738650         0.801189068294
         1.632855028455        -3.929722213324        -2.014719949942
        -0.461853933128        -6.611029492967         1.082187002648
        -0.426543797501        -4.188465847351         3.371653439145
        -3.278233263696        -4.184736575593        -1.636163104549
        -4.652439592268        -4.285686533876         1.388992597213
        -4.762810520863        -0.034879824799        -0.733294390418
        -0.864682570595        -0.247427371547        -3.019315190877
         1.562130490565        -0.564416842096         0.133461760507
        -3.442219228418         0.460544218393         3.002078471992
        -4.028317465103         2.438791428998         2.840951694588
        -4.972607140799        -0.546703564127         3.954344511980
        -1.267352578645         0.280957057188         4.576317422288
         0.182159330285         0.241346540980         3.447709239335
  actual gradients :
         0.000003325008         0.000007139182         0.000001022373
        -0.000003959412        -0.000000003755         0.000000414931
        -0.000000682763        -0.000004509799        -0.000001313485
         0.000004615881         0.000003021341         0.000003574811
        -0.000007453198        -0.000006131180        -0.000002921413
        -0.000006342606        -0.000004411473         0.000006838256
         0.000004297309        -0.000004280470         0.000000766402
         0.000005319408         0.000009797920         0.000003316569
        -0.000004446802         0.000001277895        -0.000006168979
        -0.000001479970         0.000000341635        -0.000000489336
         0.000002494696         0.000002590622         0.000002450399
         0.000001418159        -0.000000696128        -0.000002757224
        -0.000001884421         0.000002835464        -0.000000305244
         0.000000934757         0.000002612718        -0.000001736741
         0.000001185098        -0.000000155815         0.000003538566
         0.000000313210        -0.000002392860        -0.000003035932
         0.000004396236         0.000000022584         0.000000969628
         0.000004879245         0.000000547742         0.000000191978
         0.000001193232        -0.000002309882        -0.000003297570
        -0.000003049714        -0.000004137694        -0.000000535420
         0.000001415547        -0.000003342641         0.000002307796
         0.000000934255        -0.000001821619        -0.000002698555
        -0.000005646853         0.000003204996        -0.000000772874
        -0.000001359143         0.000002058731        -0.000003135061
         0.000000789680        -0.000001767113        -0.000002936369
        -0.000000963496        -0.000001677798         0.000006952431
        -0.000001867027         0.000005706688        -0.000011305782
        -0.000001165526         0.000001202522         0.000002273104
        -0.000000431156        -0.000001496254         0.000005315998
         0.000000565319        -0.000004311454         0.000003919304
         0.000002655168         0.000001858649        -0.000000138246
     Number of symmetry restricted degrees of freedom:    93
     Constituted by:     3 translational degrees of freedom
                         3 rotational degrees of freedom
                      87 internal degrees of freedom

  *************************************************************************
   ATOM                      CARTESIAN COORDINATES
    1 c      -0.78172400084268      0.41130377667063     -1.03734717451343
    2 c       3.81225143770860      0.42369758801040     -1.15383856047870
    3 c       3.91069930543265      3.29448704309842     -1.14073979962635
    4 c       1.54541942896988      4.35911637407664     -2.39508894689396
    5 c      -0.77286940072815      3.29880616678927     -1.05425963140894
    6 c      -3.10728151640957     -0.65030088458803      0.34612901703734
    7 c      -3.05316741778184     -3.54291647104927      0.31793195615073
    8 c      -0.56465134294827     -4.56854055548067      1.35385404909024
    9 c       1.64280315224041     -3.33820833495309     -0.01510918313983
   10 h      -2.51352649238552      3.95235887700311     -1.95139124799455
   11 h      -0.78033852639592      3.98754801304860      0.89099753366198
   12 h       1.51668955223723      3.81104649075687     -4.38881904821009
   13 h       1.53776245222193      6.41948488625142     -2.32500368711805
   14 h       5.61638405720055      3.91667619847219     -2.11902115390028
   15 h       4.02611547014693      3.96319624088595      0.80941871303207
   16 h       3.84678850722951     -0.24940603879239     -3.12705577821593
   17 h       5.46556115331412     -0.36261261142941     -0.20604962967586
   18 h       3.43299942250072     -3.95430773865036      0.80118906829378
   19 h       1.63285502845550     -3.92972221332381     -2.01471994994244
   20 h      -0.46185393312778     -6.61102949296681      1.08218700264799
   21 h      -0.42654379750082     -4.18846584735109      3.37165343914504
   22 h      -3.27823326369611     -4.18473657559263     -1.63616310454886
   23 h      -4.65243959226783     -4.28568653387599      1.38899259721345
   24 h      -4.76281052086302     -0.03487982479858     -0.73329439041835
   25 h      -0.86468257059486     -0.24742737154724     -3.01931519087699
   26 n       1.56213049056512     -0.56441684209641      0.13346176050710
   27 c      -3.44221922841785      0.46054421839272      3.00207847199192
   28 h      -4.02831746510322      2.43879142899790      2.84095169458790
   29 h      -4.97260714079907     -0.54670356412676      3.95434451198027
   30 o      -1.26735257864518      0.28095705718849      4.57631742228799
   31 h       0.18215933028460      0.24134654097966      3.44770923933482
  *************************************************************************
   ATOM                      CARTESIAN GRADIENTS  
    1 c       0.00000332500849      0.00000713918201      0.00000102237316
    2 c      -0.00000395941150     -0.00000000375468      0.00000041493061
    3 c      -0.00000068276339     -0.00000450979882     -0.00000131348501
    4 c       0.00000461588107      0.00000302134114      0.00000357481050
    5 c      -0.00000745319790     -0.00000613118001     -0.00000292141322
    6 c      -0.00000634260607     -0.00000441147298      0.00000683825640
    7 c       0.00000429730870     -0.00000428046958      0.00000076640192
    8 c       0.00000531940798      0.00000979791957      0.00000331656900
    9 c      -0.00000444680217      0.00000127789480     -0.00000616897854
   10 h      -0.00000147996961      0.00000034163512     -0.00000048933617
   11 h       0.00000249469587      0.00000259062241      0.00000245039936
   12 h       0.00000141815915     -0.00000069612814     -0.00000275722443
   13 h      -0.00000188442147      0.00000283546417     -0.00000030524384
   14 h       0.00000093475726      0.00000261271806     -0.00000173674121
   15 h       0.00000118509751     -0.00000015581547      0.00000353856551
   16 h       0.00000031321008     -0.00000239286034     -0.00000303593249
   17 h       0.00000439623620      0.00000002258393      0.00000096962787
   18 h       0.00000487924479      0.00000054774209      0.00000019197829
   19 h       0.00000119323206     -0.00000230988248     -0.00000329757026
   20 h      -0.00000304971395     -0.00000413769447     -0.00000053541990
   21 h       0.00000141554707     -0.00000334264070      0.00000230779620
   22 h       0.00000093425455     -0.00000182161933     -0.00000269855522
   23 h      -0.00000564685326      0.00000320499586     -0.00000077287383
   24 h      -0.00000135914333      0.00000205873138     -0.00000313506135
   25 h       0.00000078967966     -0.00000176711338     -0.00000293636911
   26 n      -0.00000096349619     -0.00000167779790      0.00000695243054
   27 c      -0.00000186702676      0.00000570668768     -0.00001130578238
   28 h      -0.00000116552575      0.00000120252229      0.00000227310396
   29 h      -0.00000043115641     -0.00000149625448      0.00000531599823
   30 o       0.00000056531874     -0.00000431145380      0.00000391930368
   31 h       0.00000265516835      0.00000185864925     -0.00000013824609
  *************************************************************************

  norm of actual CARTESIAN gradient:  3.40157E-05
  norm of actual INTERNAL  gradient:  2.96900E-05

  ENERGY =    -523.5287906779 a.u.; # of cycle =   20

  Approximate Hessian read from $hessapprox data section

  Hessian updated according to BFGS formula
  Number of zero Hessian eigenvalues:   0
  Number of structures for GDIIS interpolation:    5
  GDIIS step:     0.000146

  Transforming internal coordinate displacements to Cartesian space
      Iteration   1 residual norm     1.455601E-04
      Iteration   2 residual norm     6.541541E-09
      Transformation converged
      Residual norm:    6.541541E-09 after    2 iterations

      ****************************************************************** 
                          CONVERGENCE INFORMATION

                               Converged?     Value      Criterion
             Energy change         yes      0.0000000   0.0000001
             RMS of displacement   yes      0.0000156   0.0005000
             RMS of gradient       yes      0.0000032   0.0005000
             MAX displacement      yes      0.0000806   0.0010000
             MAX gradient          yes      0.0000084   0.0001000
      ****************************************************************** 


    ------------------------------------------------------------------------
         total  cpu-time :   0.12 seconds
         total wall-time :   0.19 seconds
    ------------------------------------------------------------------------


   ****  statpt : all done  ****


    2016-02-13 20:24:20.810 

fine, there is no data group "$actual step"
next step = ridft
 operating system is UNIX !
 hostname is         c-9-412.local

 ridft (c-9-412.local) : TURBOMOLE V7.0( ) 18 Nov 2015 at 09:57:41
 Copyright (C) 2015 TURBOMOLE GmbH, Karlsruhe


    2016-02-13 20:24:20.918 



                                  r i d f t

                        DFT program with RI approximation 
                                for coulomb part 




                                                 
                                 References:     
                                                 
          TURBOMOLE:                             
              R. Ahlrichs, M. Baer, M. Haeser, H. Horn, and
              C. Koelmel
              Electronic structure calculations on workstation
              computers: the program system TURBOMOLE
              Chem. Phys. Lett. 162: 165 (1989)
          Density Functional:                              
              O. Treutler and R. Ahlrichs                      
              Efficient Molecular Numerical Integration Schemes
              J. Chem. Phys. 102: 346 (1995)                   
          Parallel Version:                                
              Performance of parallel TURBOMOLE for Density    
              Functional Calculations                          
              M. v. Arnim and R. Ahlrichs                      
              J. Comp. Chem. 19: 1746 (1998)                   
          RI-J Method:                                     
              Auxiliary Basis Sets to approximate Coulomb      
              Potentials                                       
              Chem. Phys. Lett. 240: 283 (1995)                
              K. Eichkorn, O. Treutler, H. Oehm, M. Haeser     
              and R. Ahlrichs                                  
              Chem. Phys. Lett. 242: 652 (1995)                
                                                           
              Auxiliary Basis Sets for Main Row Atoms and their
              Use to approximate Coulomb Potentials            
              K. Eichkorn, F. Weigend, O. Treutler and         
              R. Ahlrichs                                      
              Theo. Chem. Acc. 97: 119 (1997)                   
                                                           
              Accurate Coulomb-fitting basis sets for H to Rn 
              F. Weigend                                        
              Phys. Chem. Chem. Phys. 8: 1057 (2006)            
                                                           
          Multipole accelerated RI-J (MARI-J):             
              Fast evaluation of the Coulomb potential for     
              electron densities using multipole accelerated   
              resolution of identity approximation             
              M. Sierka, A. Hogekamp and R. Ahlrichs           
              J. Chem. Phys. 118: 9136 (2003)                  
          RI-JK Method:                                     
              A fully direct RI-HF algorithm: Implementation,
              optimised auxiliary basis sets, demonstration of
              accuracy and efficiency                         
              F. Weigend                                      
              Phys. Chem. Chem. Phys. 4: 4285 (2002)           
          Two-component HF and DFT with spin-orbit coupling:  
              Self-consistent treatment of spin-orbit         
              interactions with efficient Hartree-Fock and    
              density functional methods                      
              M. K. Armbruster, F. Weigend, C. van Wüllen and 
              W. Klopper                                      
              Phys. Chem. Chem. Phys. 10: 1748 (2008)         
          Relativistic all-electron 2c calculations           
              An efficient implementation of two-component    
              relativistic exact-decoupling methods for large 
              molecules                                       
              D. Peng, N. Middendorf, F. Weigend, M. Reiher   
              J. Chem. Phys. 138, 184105 (2013)               
                                         


 


              +--------------------------------------------------+
              |      general information about current run       |
              +--------------------------------------------------+

 

 DENSITY CONVERGENCE CHECK SWITCHED ON !
 SCF CONVERGENCE IF RMS(delta[D]) <     0.1000000000E-06

 PBE functional
 exchange:    LDA + PBE
 correlation: LDA (PW) + PBE
 A DFT calculation using the RI-J approximation will be carried out.
 Allocatable memory for RI due to $ricore (MB):       15000


              +--------------------------------------------------+
              | Atomic coordinate, charge and isotop information |
              +--------------------------------------------------+

                    atomic coordinates            atom    charge  isotop
         -0.78173446    0.41131841   -1.03735307    c      6.000     0
          3.81225276    0.42372193   -1.15381043    c      6.000     0
          3.91067049    3.29450870   -1.14074645    c      6.000     0
          1.54539585    4.35907747   -2.39514692    c      6.000     0
         -0.77286002    3.29881835   -1.05423456    c      6.000     0
         -3.10727290   -0.65028807    0.34613158    c      6.000     0
         -3.05318244   -3.54289760    0.31789951    c      6.000     0
         -0.56468177   -4.56854635    1.35380871    c      6.000     0
          1.64280609   -3.33819605   -0.01506852    c      6.000     0
         -2.51353274    3.95239229   -1.95130651    h      1.000     0
         -0.78025913    3.98754391    0.89102148    h      1.000     0
          1.51664878    3.81090786   -4.38884155    h      1.000     0
          1.53773866    6.41944248   -2.32515892    h      1.000     0
          5.61635924    3.91669683   -2.11900752    h      1.000     0
          4.02604440    3.96324865    0.80939585    h      1.000     0
          3.84684550   -0.24939829   -3.12701233    h      1.000     0
          5.46553862   -0.36256151   -0.20597418    h      1.000     0
          3.43296657   -3.95426867    0.80130892    h      1.000     0
          1.63294480   -3.92973816   -2.01466357    h      1.000     0
         -0.46187637   -6.61102046    1.08209542    h      1.000     0
         -0.42660751   -4.18851962    3.37161343    h      1.000     0
         -3.27825896   -4.18469153   -1.63619568    h      1.000     0
         -4.65244426   -4.28567366    1.38895748    h      1.000     0
         -4.76280392   -0.03484814   -0.73326129    h      1.000     0
         -0.86471120   -0.24739133   -3.01931954    h      1.000     0
          1.56211910   -0.56440833    0.13343760    n      7.000     0
         -3.44217733    0.46053018    3.00209374    c      6.000     0
         -4.02824221    2.43878234    2.84097994    h      1.000     0
         -4.97257296   -0.54669734    3.95435237    h      1.000     0
         -1.26730445    0.28091296    4.57631142    o      8.000     0
          0.18219178    0.24124278    3.44769358    h      1.000     0
 
       center of nuclear mass  :   -0.04498366   -0.00883988    0.30007635
       center of nuclear charge:   -0.03779080   -0.00723218    0.25481568

              +--------------------------------------------------+
              |               basis set information              |
              +--------------------------------------------------+

              we will work with the 1s 3p 5d 7f 9g ... basis set
              ...i.e. with spherical basis functions...

   type   atoms  prim   cont   basis
   ---------------------------------------------------------------------------
    c       10     77     55   cc-pVQZ   [5s4p3d2f1g|21s6p3d2f1g]
    h       19     32     30   cc-pVQZ   [4s3p2d1f|6s3p2d1f]
    n        1     77     55   cc-pVQZ   [5s4p3d2f1g|21s6p3d2f1g]
    o        1     77     55   cc-pVQZ   [5s4p3d2f1g|21s6p3d2f1g]
   ---------------------------------------------------------------------------
   total:   31   1532   1230
   ---------------------------------------------------------------------------

   total number of primitive shells          :  111
   total number of contracted shells         :  370
   total number of cartesian basis functions : 1505
   total number of SCF-basis functions       : 1230


 integral neglect threshold       :  0.22E-13
 integral storage threshold THIZE :  0.10E-04
 integral storage threshold THIME :         5

 RI-J AUXILIARY BASIS SET information:

              we will work with the 1s 3p 5d 7f 9g ... basis set
              ...i.e. with spherical basis functions...

   type   atoms  prim   cont   basis
   ---------------------------------------------------------------------------
    c       10     70     49   cc-pVQZ   [6s4p3d1f1g|12s5p4d2f1g]
    h       19     16     11   cc-pVQZ   [3s1p1d|5s2p1d]
    n        1     70     49   cc-pVQZ   [6s4p3d1f1g|12s5p4d2f1g]
    o        1     70     49   cc-pVQZ   [6s4p3d1f1g|12s5p4d2f1g]
   ---------------------------------------------------------------------------
   total:   31   1144    797
   ---------------------------------------------------------------------------

   total number of primitive shells          :   80
   total number of contracted shells         :  275
   total number of cartesian basis functions :  960
   total number of SCF-basis functions       :  797


 symmetry group of the molecule :   c1 

 the group has the following generators :
   c1(z)

    1 symmetry operations found

 there are 1 real representations :   a   

 maximum number of shells which are related by symmetry :  1


    mo occupation :
   irrep   mo's   occupied
    a     1230       47
 
 number of basis functions   :         1230
 number of occupied orbitals :           47
 
  
           ------------------
           density functional
           ------------------
 PBE functional
 exchange:    LDA + PBE
 correlation: LDA (PW) + PBE
 iterations will be done with small grid
  
 spherical integration : Lebedev's spherical grid
 spherical gridsize    :           5
    i.e. gridpoints    :         590
 value for diffuse not defined
 radial integration    : Chebyshev 2nd kind (scaling 3)
 radial gridsize       :           8
 integration cells     :          31
 partition function    : becke
 partition sharpness   :           3
  

 biggest AO integral is expected to be     4.785886462
  
           ------------------------
               RI-J - INFORMATION
           ------------------------
 Contributions to RI integral batches: 
  neglected integral batches:       15917
  direct contribution:                  0
  memory contribution:       52718
 Memory core needed for (P|Q) and Cholesky      5 MByte
 Memory core minimum needed except of (P|Q)     8 MByte
 Total minimum memory core needed (sum)        12 MByte
  
 ****************************************
 Memory allocated for RI-J  6235 MByte
 ****************************************
                                            

          ------------------------
          nuclear repulsion energy  :   817.030188913    
          ------------------------

 
          -----------------
          -S,T+V- integrals
          -----------------

 1e-integrals will be neglected if expon. factor < 0.222057E-14
 
   Difference densities algorithm switched on.
   The maximal number of linear combinations of
   difference densities is          20 .

 automatic virtual orbital shift switched on 
      shift if e(lumo)-e(homo) < 0.10000000    


 DIIS switched on: error vector is FDS-SDF
 Max. Iterations for DIIS is     :   4
 DIIS matrix (see manual) 
    Scaling factor of diagonals  :  1.200
    threshold for scaling factor :  0.000

 scf convergence criterion : increment of total energy < .1000000D-08
                  and increment of one-electron energy < .1000000D-05

  MOs are in ASCII format !


 reading orbital data $scfmo  from file mos . 

 orbital characterization : scfconv=9
 

 DSCF restart information will be dumped onto file mos


 Starting SCF iterations

          Overall gridpoints after grid construction =        136233

 ITERATION  ENERGY          1e-ENERGY        2e-ENERGY     RMS[dD(SAO)]   TOL
   1  -522.01470757151    -2328.9541918     989.90929527    0.000D+00 0.221D-13
                            Exc = -76.4037212169     Coul =  1066.31301648    
                              N = 93.999971541    
                            current damping = 0.700
 
          max. resid. norm for Fia-block=  2.562D-05 for orbital      9a         
          max. resid. fock norm         =  6.120D-04 for orbital   1228a         

 ITERATION  ENERGY          1e-ENERGY        2e-ENERGY     RMS[dD(SAO)]   TOL
   2  -522.01470757411    -2328.9542998     989.90940329    0.783D-07 0.140D-13
                            Exc = -76.4037304839     Coul =  1066.31313377    
                              N = 93.999971541    
                            current damping = 0.650
 
          Norm of current diis error: 0.16926E-03
          max. resid. norm for Fia-block=  1.058D-05 for orbital      9a         
          max. resid. fock norm         =  2.520D-04 for orbital   1228a         

 DENSITY CONVERGED !


 ITERATION  ENERGY          1e-ENERGY        2e-ENERGY     RMS[dD(SAO)]   TOL
   3  -522.01470757453    -2328.9541903     989.90929381    0.355D-07 0.108D-13
                            Exc = -76.4037243591     Coul =  1066.31301817    
                              N = 93.999971541    
                            current damping = 0.700
 
          Norm of current diis error: 0.70798E-04
          max. resid. norm for Fia-block=  4.158D-06 for orbital      9a         
          max. resid. fock norm         =  9.929D-05 for orbital   1228a         

 DENSITY CONVERGED !


 ITERATION  ENERGY          1e-ENERGY        2e-ENERGY     RMS[dD(SAO)]   TOL
   4  -522.01470757467    -2328.9543271     989.90943057    0.169D-07 0.103D-13
                            Exc = -76.4037325676     Coul =  1066.31316314    
                              N = 93.999971541    
                            current damping = 0.750
 
          Norm of current diis error: 0.34225E-04
          max. resid. norm for Fia-block=  1.711D-06 for orbital      9a         
          max. resid. fock norm         =  4.088D-05 for orbital   1228a         

 DENSITY CONVERGED !


 ITERATION  ENERGY          1e-ENERGY        2e-ENERGY     RMS[dD(SAO)]   TOL
   5  -522.01470757464    -2328.9542533     989.90935683    0.934D-08 0.983D-14
                            Exc = -76.4037284872     Coul =  1066.31308532    
                              N = 93.999971541    
                            current damping = 0.800
 
          Norm of current diis error: 0.12705E-04
          max. resid. norm for Fia-block=  7.330D-07 for orbital      9a         
          max. resid. fock norm         =  1.752D-05 for orbital   1228a         
          mo-orthogonalization: Cholesky decomposition

 ENERGY & DENSITY CONVERGED !

          Overall gridpoints after grid construction =        447707

 ITERATION  ENERGY          1e-ENERGY        2e-ENERGY     RMS[dD(SAO)]   TOL
   6  -522.01473756758    -2328.9542616     989.90933511    0.265D-08 0.965D-14
                            Exc = -76.4037589137     Coul =  1066.31309403    
                              N = 93.999999679    
                            current damping = 0.850
 
          Norm of current diis error: 0.57677E-05
          max. resid. norm for Fia-block=  3.264D-07 for orbital      9a         
          max. resid. fock norm         =  7.787D-06 for orbital   1228a         

 End of SCF iterations

   convergence criteria satisfied after    6 iterations


                  ------------------------------------------ 
                 |  total energy      =   -522.01473756758  |
                  ------------------------------------------ 
                 :  kinetic energy    =    519.71333845416  :
                 :  potential energy  =  -1041.72807602174  :
                 :  virial theorem    =      1.99559131391  :
                 :  wavefunction norm =      1.00000000000  :
                  .......................................... 


 orbitals $scfmo  will be written to file mos

    irrep                 43a         44a         45a         46a         47a   
 eigenvalues H         -0.27049    -0.26666    -0.25875    -0.20419    -0.19734
            eV          -7.3605     -7.2562     -7.0409     -5.5563     -5.3700
 occupation              2.0000      2.0000      2.0000      2.0000      2.0000 

    irrep                 48a         49a         50a         51a         52a   
 eigenvalues H         -0.00289     0.01099     0.01525     0.01900     0.04083
            eV          -0.0786      0.2990      0.4151      0.5169      1.1111
 
 
 
 
 ==============================================================================
                           electrostatic moments
 ==============================================================================

 reference point for electrostatic moments:    0.00000   0.00000   0.00000

 
              nuc           elec       ->  total
 ------------------------------------------------------------------------------
                          charge      
 ------------------------------------------------------------------------------
          94.000000     -94.000000      -0.000000
 
 ------------------------------------------------------------------------------
                       dipole moment  
 ------------------------------------------------------------------------------
   x      -3.552335       3.713719       0.161384
   y      -0.679825       0.616928      -0.062896
   z      23.952674     -24.981101      -1.028428
 
   | dipole moment | =     1.0429 a.u. =     2.6508 debye 
 
 ------------------------------------------------------------------------------
                     quadrupole moment
 ------------------------------------------------------------------------------
  xx     649.201806    -703.402119     -54.200313
  yy     773.662181    -829.020678     -55.358498
  zz     408.735725    -472.217628     -63.481903
  xy     200.699316    -200.480631       0.218685
  xz    -245.335835     246.106527       0.770691
  yz    -187.726540     186.677810      -1.048730
 
     1/3  trace=     -57.680238
     anisotropy=       9.053418
 
 ==============================================================================
 
 


    ------------------------------------------------------------------------
         total  cpu-time :  3 minutes and 28 seconds
         total wall-time :  3 minutes and 35 seconds
    ------------------------------------------------------------------------


   ****  ridft : all done  ****


    2016-02-13 20:27:56.346 

fine, there is no data group "$actual step"
next step = rirpa
 
 
    *************************************************************************
    *************************** PROGRAM RIRPA *******************************
    ******                                                             ******
    ******              H. Eshuis, J. E. Bates and F. Furche           ******
    ******                                                             ******
    ****** Nov 2011                                                    ******
    ****** Copyright TURBOMOLE GmbH                                    ******
    *************************************************************************
    
    
                                References:                                  
    
                   RIRPA:                                                    
                     H. Eshuis, J. Yarkony and F. Furche                     
                     Fast computation of molecular random phase              
                     approximation correlation energies using resolution     
                     of the identity imaginary frequency integration         
                     J. Chem. Phys. 132: 234114 (2010)                       
    
                     H. Eshuis, J. E. Bates and F. Furche                    
                     Electron correlation methods based on                   
                     the random phase approximation                          
                     Theor. Chem. Acc.  131: 1084 (2012)                     
    
                   TWO-COMPONENT RIRPA:                                      
                     M. Kuehn                                                
                     Correlation energies from the                           
                     two-component random-phase approximation                
                     J. Chem. Theory Comput. 10: 623 (2014)                  
    
                   RIRPA GRADIENTS:                                          
                     Asbjoern M. Burow, Jefferson E. Bates, Filipp Furche*,  
                     and Henk Eshuis                                         
                     Analytical First-Order Molecular Properties and Forces  
                     within the Adiabatic Connection Random Phase            
                     Approximation                                           
                     J. Chem. Theory Comput. (2013, ASAP),                   
                     DOI: 10.1021/ct4008553                                  
    
    
    
 hostname is         c-9-412.local

 rirpa (c-9-412.local) : TURBOMOLE V7.0( ) 18 Nov 2015 at 09:57:41
 Copyright (C) 2015 TURBOMOLE GmbH, Karlsruhe


    2016-02-13 20:27:56.470 

 number of mkl threads =          10
 
                FOUND RI-J FLAG
 
  HF exact exchange energy will be computed using RI-J.


              +--------------------------------------------------+
              | Atomic coordinate, charge and isotop information |
              +--------------------------------------------------+

                    atomic coordinates            atom    charge  isotop
         -0.78173446    0.41131841   -1.03735307    c      6.000     0
          3.81225276    0.42372193   -1.15381043    c      6.000     0
          3.91067049    3.29450870   -1.14074645    c      6.000     0
          1.54539585    4.35907747   -2.39514692    c      6.000     0
         -0.77286002    3.29881835   -1.05423456    c      6.000     0
         -3.10727290   -0.65028807    0.34613158    c      6.000     0
         -3.05318244   -3.54289760    0.31789951    c      6.000     0
         -0.56468177   -4.56854635    1.35380871    c      6.000     0
          1.64280609   -3.33819605   -0.01506852    c      6.000     0
         -2.51353274    3.95239229   -1.95130651    h      1.000     0
         -0.78025913    3.98754391    0.89102148    h      1.000     0
          1.51664878    3.81090786   -4.38884155    h      1.000     0
          1.53773866    6.41944248   -2.32515892    h      1.000     0
          5.61635924    3.91669683   -2.11900752    h      1.000     0
          4.02604440    3.96324865    0.80939585    h      1.000     0
          3.84684550   -0.24939829   -3.12701233    h      1.000     0
          5.46553862   -0.36256151   -0.20597418    h      1.000     0
          3.43296657   -3.95426867    0.80130892    h      1.000     0
          1.63294480   -3.92973816   -2.01466357    h      1.000     0
         -0.46187637   -6.61102046    1.08209542    h      1.000     0
         -0.42660751   -4.18851962    3.37161343    h      1.000     0
         -3.27825896   -4.18469153   -1.63619568    h      1.000     0
         -4.65244426   -4.28567366    1.38895748    h      1.000     0
         -4.76280392   -0.03484814   -0.73326129    h      1.000     0
         -0.86471120   -0.24739133   -3.01931954    h      1.000     0
          1.56211910   -0.56440833    0.13343760    n      7.000     0
         -3.44217733    0.46053018    3.00209374    c      6.000     0
         -4.02824221    2.43878234    2.84097994    h      1.000     0
         -4.97257296   -0.54669734    3.95435237    h      1.000     0
         -1.26730445    0.28091296    4.57631142    o      8.000     0
          0.18219178    0.24124278    3.44769358    h      1.000     0
 
       center of nuclear mass  :   -0.04498366   -0.00883988    0.30007635
       center of nuclear charge:   -0.03779080   -0.00723218    0.25481568
              +-------------------------------------------------+
              |        Rotational Constants Section             |
              +-------------------------------------------------+
                                   Center of Mass [a.u]:
              -0.04498366228897        -0.00883987657218         0.30007634748837
                     Principal Moments of Inertia [a.u.]
            1266.72542365534355      2209.59146901536178      2671.90469860680105
                       Rotational constants A,B,C [a.u.]
               0.00039471853226         0.00022628617417         0.00018713242290
                     Rotational constants A,B,C [cm**-1]
               0.04752386382046         0.02724471350287         0.02253062639663
                        Rotational constants A,B,C [MHz]
            1424.72959483940781       816.77596285320726       675.45118677260177

   * BASIS SET information:

              +--------------------------------------------------+
              |               basis set information              |
              +--------------------------------------------------+

              we will work with the 1s 3p 5d 7f 9g ... basis set
              ...i.e. with spherical basis functions...

   type   atoms  prim   cont   basis
   ---------------------------------------------------------------------------
    c       10     77     55   cc-pVQZ   [5s4p3d2f1g|21s6p3d2f1g]
    h       19     32     30   cc-pVQZ   [4s3p2d1f|6s3p2d1f]
    n        1     77     55   cc-pVQZ   [5s4p3d2f1g|21s6p3d2f1g]
    o        1     77     55   cc-pVQZ   [5s4p3d2f1g|21s6p3d2f1g]
   ---------------------------------------------------------------------------
   total:   31   1532   1230
   ---------------------------------------------------------------------------

   total number of primitive shells          :  111
   total number of contracted shells         :  370
   total number of cartesian basis functions : 1505
   total number of SCF-basis functions       : 1230


   * AUXILIARY BASIS SET information:

              +--------------------------------------------------+
              |               basis set information              |
              +--------------------------------------------------+

              we will work with the 1s 3p 5d 7f 9g ... basis set
              ...i.e. with spherical basis functions...

   type   atoms  prim   cont   basis
   ---------------------------------------------------------------------------
    c       10    132    132   cc-pVQZ   [8s7p6d5f3g1h|8s7p6d5f3g1h]
    h       19     55     55   cc-pVQZ   [5s4p3d2f1g|5s4p3d2f1g]
    n        1    132    132   cc-pVQZ   [8s7p6d5f3g1h|8s7p6d5f3g1h]
    o        1    132    132   cc-pVQZ   [8s7p6d5f3g1h|8s7p6d5f3g1h]
   ---------------------------------------------------------------------------
   total:   31   2629   2629
   ---------------------------------------------------------------------------

   total number of primitive shells          :  105
   total number of contracted shells         :  645
   total number of cartesian basis functions : 3502
   total number of SCF-basis functions       : 2629


   * RIJ AUXILIARY BASIS SET information:

              +--------------------------------------------------+
              |               basis set information              |
              +--------------------------------------------------+

              we will work with the 1s 3p 5d 7f 9g ... basis set
              ...i.e. with spherical basis functions...

   type   atoms  prim   cont   basis
   ---------------------------------------------------------------------------
    c       10     70     49   cc-pVQZ   [6s4p3d1f1g|12s5p4d2f1g]
    h       19     16     11   cc-pVQZ   [3s1p1d|5s2p1d]
    n        1     70     49   cc-pVQZ   [6s4p3d1f1g|12s5p4d2f1g]
    o        1     70     49   cc-pVQZ   [6s4p3d1f1g|12s5p4d2f1g]
   ---------------------------------------------------------------------------
   total:   31   1144    797
   ---------------------------------------------------------------------------

   total number of primitive shells          :   80
   total number of contracted shells         :  275
   total number of cartesian basis functions :  960
   total number of SCF-basis functions       :  797


 reading orbital data $scfmo  from file mos . 

 orbital characterization : scfconv=9
 

 integral neglect threshold       :  0.32E+02

 scfconv           9

 MAXIMUM CORE MEMORY WHICH CAN BE ALLOCATED DYNAMICALLY = 20000 MiB
              ( or 2621440000 double words )


 there are 1 real representations :   a   

 maximum number of shells which are related by symmetry :  1


         --------------------------------------------------------------
                   checking mo's by calculating trace(D*S)

              number of electrons : 
                 from trace(D*S)         :   93.999999999981
                 from occupation numbers :   94.000000000000

              molecular charge           :    0.000000000000
         --------------------------------------------------------------

 time elapsed for calculating density matrices :   0.660 sec
 all orbitals will be active in the correlation treatment

     total memory allocated for calculation of (Q|P)**(-1/2) : 80 MiB


     calculation of (P|Q) ...
     time in lp2sym        cpu:  0.37 sec    wall:  0.17 sec    ratio:  2.1


     calculation of the Cholesky decomposition of (P|Q)**(-1) ...
     time in invmetri      cpu: 11.27 sec    wall:  1.40 sec    ratio:  8.0

   threshold for RMS(d[D]) in SCF was     :  0.10E-06
   integral neglect threshold             :  0.95E-14
   derivative integral neglect threshold  :  0.10E-06


 setting up bound for integral derivative estimation

 increment for numerical differentiation : 0.00050000
 total memory allocated for calculation of (Q|P)**(-1/2) : 80 MiB
 Dividing biap into          420  block chunks,
 using                    23 MB per block
 Reserved                   9965 MB for BLAS routines
 Estimated total memory usage:                  19986 MB
 number of passes:            1
 
 Number of eigenvalues < 6e-3:            0
 
 
            -----------------------------
            Complex frequency integration
            -----------------------------
 
 Number of Clenshaw-Curtis nodes:          200
 Optimized scaling parameter    :    1.98516836099464     
 Sensitivity measure            :  -6.175376876527139E-011
 
 Allocatable memory for RI due to $ricore (MB):       15000

 there are 1 real representations :   a   

 maximum number of shells which are related by symmetry :  1

  
           ------------------------
               RI-J - INFORMATION
           ------------------------
 Contributions to RI integral batches: 
  neglected integral batches:        9701
  direct contribution:                  0
  memory contribution:       58934
 
          -----------------
          -S,T+V- integrals
          -----------------

 1e-integrals will be neglected if expon. factor < 0.951837E-14

          ------------------------
          nuclear repulsion energy  :   817.030188913    
          ------------------------


                  -------------------------------------------- 
                 |  HXX+RIRPA total energy     =   -523.52879076748  |
                  --------------------------------------------- 
                 :  RIRPA correlation energy   =     -4.39590952465  :
                 :  HXX total energy           =   -519.13288124283  :
                 :  Hartree energy             =   1066.31309402570  :
                 :  Exact Exchange energy      =    -73.52190258936  :
                  ............................................. 


    ------------------------------------------------------------------------
    Rirpa Energy profiling         cpu                    wall         ratio
    ------------------------------------------------------------------------
    module                         sec     %               sec     %
    ------------------------------------------------------------------------
    RIRPA_energy              14149.3  100.00         5115.4  100.00   2.8
    riccbound                    10.9    0.08            8.6    0.17   1.3
    ccmkbaoi                   1184.5    8.37          123.6    2.42   9.6
    ecrpa                      9188.5   64.94         1248.9   24.41   7.4
    tread                       625.6    4.42          150.7    2.95   4.2
    tqbuild                    7860.2   55.55          969.6   18.95   8.1
    trpaln                      597.9    4.23           66.0    1.29   9.1
    ehxx                       3739.0   26.43         3729.7   72.91   1.0
    ------------------------------------------------------------------------
    sum                       37382.1  264.20        11417.2  223.19   3.3
    ------------------------------------------------------------------------

 residuum convergence criterium   :  0.10E-04


 integral neglect threshold       :  0.22E-11
 integral storage threshold THIZE :  0.10E-04
 integral storage threshold THIME :         5


 WARNING : cannot change filename for statistics 
  
           ------------------
           density functional
           ------------------
 PBE functional
 exchange:    LDA + PBE
 correlation: LDA (PW) + PBE
 iterations will be done with small grid
  
 spherical integration : Lebedev's spherical grid
 spherical gridsize    :           5
    i.e. gridpoints    :         590
 value for diffuse not defined
 radial integration    : Chebyshev 2nd kind (scaling 3)
 radial gridsize       :           8
 integration cells     :          31
 partition function    : becke
 partition sharpness   :           3
  
 preparing numerical integration ....
          Overall gridpoints after grid construction =        136233

 Calculating ground state density on molecular grid

 Integral of ground state density: N =   93.99997154070689    



          IRREP   tensor space dimension   number of roots

           a             55601                   1
 number of passes:    1
 
 Number of eigenvalues < 6e-3:            0
 
 
            -----------------------------
            Complex frequency integration
            -----------------------------
 
 Number of Clenshaw-Curtis nodes:          200
 Optimized scaling parameter    :    1.98516836099464     
 Sensitivity measure            :  -6.175376876527139E-011
 
 Contributions to RI integral batches: 
  neglected integral batches:       10634
  direct contribution:              58001
  memory contribution:           0

 maximum number of Davidson iterations set to   25


 logfile dipl_a    exists already

 found      1 converged vectors on dipl_a   
 read       1 vectors from logfile dipl_a   


                    ------------------

                     CPKS equations   

                    ------------------


                       Block Davidson iteration


 total number of roots to be determined:   1


 maximum core memory set to 20000 MB,
 corresponding to     1151 vectors in CAO basis


 maximum number of simultaneously treated vectors (including degeneracy):        1


 Iteration IRREP Converged      Max. Euclidean
                 roots          residual norm

    1       a        0        2.817544536560501D-02
 
    2       a        0        1.959468637060296D-04
 
    3       a        0        7.675704399483091D-05
 
    4       a        0        1.369098407410539D-05
 
    5       a        1        4.116692298362113D-06
 

 converged!


 Switching to fine grid

 preparing numerical integration ....
          Overall gridpoints after grid construction =        447707

 Calculating ground state density on molecular grid

 Integral of ground state density: N =   93.99999967864122    



 Iteration IRREP Converged      Max. Euclidean
                 roots          residual norm

    6       a        0        8.999509716752069D-05
 

 NOTE: Residual norms are larger than 1.00D-05 due to mgrid option!

 Eigenpairs written on logfile dipl_a   



 IRREP   Vector     Frequency            Euclidean residual norm

  a         1    0.000000000000000D+00    8.999509716752069D-05
 

                    -------------------

                     relaxed densities 

                    -------------------

    ----------------------------------------
     S+T+V CONTRIBUTIONS TO ENERGY GRADIENT 
    ----------------------------------------

 1e-integral 1st. derivatives will be neglected if expon. factor < 0.100000E-10


    -----------------------------------------------
     TWO ELECTRON CONTRIBUTIONS TO ENERGY GRADIENT 
    -----------------------------------------------

 setting up bound for integral derivative estimation

 increment for numerical differentiation : 0.00050000

 biggest AO integral is expected to be     4.785886462
 biggest cartesian 1st derivative AO integral is expected to be    11.801349162

 biggest 1-particle AO density matrix element is expected to be    2.0555993113

 core memory to be involved in 2e-gradient :
   symmetry shell pair data              :         1
   two particle density+dens. estimates  :    263116
   derivative integrals                  :   1194671
   ij-primitive data                     :       729
   derivative integral bound             :    205905
   totally                               :   1401303


 setting up bound for integral derivative estimation

 increment for numerical differentiation : 0.00050000

 biggest AO integral is expected to be     4.785886462
 biggest cartesian 1st derivative AO integral is expected to be    11.801349162

 2e-integral 1st. derivatives will be neglected if expon. factor < 0.935762E-20
 outer boundary for 2e-integral derivative neglection is 0.369094E-21

 Integrated ground state density     :   93.99999967864120    


          ------------------------------------------------
           cartesian gradient of the energy (hartree/bohr)
          ------------------------------------------------

  ATOM      1 c           2 c           3 c           4 c           5 c 
dE/dx  0.1820604D-05 -0.2907860D-05 -0.4840494D-06  0.4107274D-05 -0.6502342D-05
dE/dy  0.7252568D-05  0.1084252D-05 -0.3181845D-05  0.1800065D-05 -0.3951156D-05
dE/dz -0.1096381D-05  0.1375190D-06  0.8917997D-06 -0.4332621D-06  0.8246604D-06

  ATOM      6 c           7 c           8 c           9 c          10 h 
dE/dx -0.5703755D-05  0.3055383D-05  0.4685959D-05 -0.4278346D-05  0.4144237D-06
dE/dy -0.3924725D-05 -0.4676588D-05  0.7951813D-05 -0.1639619D-06 -0.1497754D-06
dE/dz  0.5096507D-05  0.1439472D-05  0.8345606D-06 -0.1469094D-05  0.4166429D-06

  ATOM     11 h          12 h          13 h          14 h          15 h 
dE/dx  0.2098029D-05  0.1389632D-05 -0.1833294D-05 -0.9484116D-06  0.1051554D-05
dE/dy  0.1690900D-05 -0.2660847D-06  0.5186360D-06  0.2006232D-05 -0.1113129D-05
dE/dz  0.6897852D-06 -0.5748916D-06 -0.3566488D-06 -0.6541205D-06  0.1272876D-05

  ATOM     16 h          17 h          18 h          19 h          20 h 
dE/dx -0.6708110D-07  0.1998861D-05  0.2419145D-05  0.9591943D-06 -0.3053467D-05
dE/dy -0.1575568D-05  0.8973337D-06  0.1354474D-05 -0.1150895D-05 -0.1502280D-05
dE/dz -0.4054033D-06  0.8140310D-08 -0.6029101D-06 -0.5227229D-06 -0.3912514D-06

  ATOM     21 h          22 h          23 h          24 h          25 h 
dE/dx  0.1355655D-05  0.1253135D-05 -0.3441428D-05  0.9198731D-06  0.8670104D-06
dE/dy -0.3144432D-05 -0.1161421D-05  0.3729306D-05  0.1099392D-05 -0.1167792D-05
dE/dz -0.1970994D-06 -0.3241835D-06 -0.1740298D-05 -0.1749778D-05 -0.6718079D-06

  ATOM     26 n          27 c          28 h          29 h          30 o 
dE/dx  0.6343966D-06 -0.2777479D-05 -0.1514751D-06  0.1086051D-05  0.1595339D-05
dE/dy -0.2864493D-05  0.4681642D-05 -0.5920382D-06 -0.1673062D-06 -0.3188914D-05
dE/dz  0.6281526D-06 -0.9194364D-05  0.2097931D-05  0.3907117D-05  0.4909877D-06

  ATOM     31 h 
dE/dx  0.4377308D-06
dE/dy  0.6489329D-06
dE/dz  0.1952643D-05
 
 resulting FORCE  (fx,fy,fz) = (0.262D-09,0.773D-06,0.305D-06)
 resulting MOMENT (mx,my,mz) = (0.105D-04,0.462D-05,0.679D-06)


 **********************************************************************
  |maximum component of gradient| : 0.91943639E-05  (atom 27 c )       
   gradient norm                  : 0.25232327E-04
 **********************************************************************

 exx =       0.000023 eyy =      -0.000004 ezz =       0.000014
 eyz =       0.000009 exz =      -0.000000 exy =      -0.000008

   ***  cartesian gradients written onto <gradient>  ***
 
 
 
 ==============================================================================
                           electrostatic moments
 ==============================================================================

 reference point for electrostatic moments:    0.00000   0.00000   0.00000

 
              nuc           gs,e       ->  gs,tot          rpa       ->  total
 ------------------------------------------------------------------------------
                          charge      
 ------------------------------------------------------------------------------
          94.000000     -94.000000      -0.000000      -0.000000      -0.000000
 
 ------------------------------------------------------------------------------
                       dipole moment  
 ------------------------------------------------------------------------------
   x      -3.552335       3.713719       0.161384      -0.023135       0.138249
   y      -0.679825       0.616928      -0.062896      -0.013466      -0.076362
   z      23.952674     -24.981101      -1.028428      -0.059742      -1.088169
 
   | dipole moment | =     1.0996 a.u. =     2.7948 debye 
 
 ------------------------------------------------------------------------------
                     quadrupole moment
 ------------------------------------------------------------------------------
  xx     649.201806    -703.402119     -54.200313       0.326123     -53.874190
  yy     773.662181    -829.020678     -55.358498       0.234001     -55.124496
  zz     408.735725    -472.217628     -63.481903       0.239466     -63.242437
  xy     200.699316    -200.480631       0.218685      -0.092664       0.126020
  xz    -245.335835     246.106527       0.770691      -0.142621       0.628070
  yz    -187.726540     186.677810      -1.048730       0.108149      -0.940581
 
     1/3  trace=     -57.413708
     anisotropy=       9.027695
 
 ==============================================================================
 

    ------------------------------------------------------------------------
    Rirpa profiling                cpu                    wall         ratio
    ------------------------------------------------------------------------
    module                         sec     %               sec     %
    ------------------------------------------------------------------------
    RIRPA                    104808.6  100.00        42818.3  100.00   2.4
    RIRPA_energy              14149.3   13.50         5115.4   11.95   2.8
    ccmkbaoi                   1184.5    1.13          123.6    0.29   9.6
    ecrpa                      9188.5    8.77         1248.9    2.92   7.4
    tread                       625.6    0.60          150.7    0.35   4.2
    tqbuild                    7860.2    7.50          969.6    2.26   8.1
    trpaln                      597.9    0.57           66.0    0.15   9.1
    ehxx                       3739.0    3.57         3729.7    8.71   1.0
    RIRPA_grad                90659.2   86.50        37702.9   88.05   2.4
    SETUP_grad                  168.2    0.16           18.0    0.04   9.4
    rirhs                     53588.1   51.13         6858.3   16.02   7.8
    respon                     3158.3    3.01          457.0    1.07   6.9
    rparelax                   1157.7    1.10          140.4    0.33   8.2
    egdfin                    32010.4   30.54        30163.8   70.45   1.1
    ------------------------------------------------------------------------
    sum                      322932.7  308.12       129575.8  302.62   2.5
    ------------------------------------------------------------------------


    ------------------------------------------------------------------------
         total  cpu-time :   1 days  5 hours  6 minutes and 49 seconds
         total wall-time : 11 hours 53 minutes and 39 seconds
    ------------------------------------------------------------------------


   ****  rirpa : all done  ****


    2016-02-14 08:21:35.018 

                                 ****   rirpa : all done  ****
fine, there is no data group "$actual step"
script actual: unknown actual step rirpa
next step = unknown
 energy change  : actual value =   0.9900E-08 threshold =   0.1000E-06
 geom. gradient : actual value =   0.8397E-05 threshold =   0.1000E-03

CONVERGENCY CRITERIA FULFILLED IN CYCLE 20

