           Doing BLAS/Lapack in the master proc. with  8 CPUs.
           SMPCPUS    set: Shared-memory Parallelization with   8 CPUs.

           SMP Parallelization Reference:
           C. van Wullen, J. Comput. Chem. 32 (2011) 1195--1201
 operating system is UNIX !

 ridft (c-13-16.gp.local) : TURBOMOLE V7.2 ( 21454 ) 4 Oct 2017 at 12:48:15
 Copyright (C) 2017 TURBOMOLE GmbH, Karlsruhe


    2018-04-29 16:24:13.991 



                                  r i d f t

                        DFT program with RI approximation 
                                for coulomb part 




                                                 
                                 References:     
                                                 
          TURBOMOLE:                             
              R. Ahlrichs, M. Baer, M. Haeser, H. Horn, and
              C. Koelmel
              Electronic structure calculations on workstation
              computers: the program system TURBOMOLE
              Chem. Phys. Lett. 162: 165 (1989)
          Density Functional:                              
              O. Treutler and R. Ahlrichs                      
              Efficient Molecular Numerical Integration Schemes
              J. Chem. Phys. 102: 346 (1995)                   
          Parallel Version:                                
              Performance of parallel TURBOMOLE for Density    
              Functional Calculations                          
              M. v. Arnim and R. Ahlrichs                      
              J. Comp. Chem. 19: 1746 (1998)                   
          RI-J Method:                                     
              Auxiliary Basis Sets to approximate Coulomb      
              Potentials                                       
              Chem. Phys. Lett. 240: 283 (1995)                
              K. Eichkorn, O. Treutler, H. Oehm, M. Haeser     
              and R. Ahlrichs                                  
              Chem. Phys. Lett. 242: 652 (1995)                
                                                           
              Auxiliary Basis Sets for Main Row Atoms and their
              Use to approximate Coulomb Potentials            
              K. Eichkorn, F. Weigend, O. Treutler and         
              R. Ahlrichs                                      
              Theo. Chem. Acc. 97: 119 (1997)                   
                                                           
              Accurate Coulomb-fitting basis sets for H to Rn 
              F. Weigend                                        
              Phys. Chem. Chem. Phys. 8: 1057 (2006)            
                                                           
          Multipole accelerated RI-J (MARI-J):             
              Fast evaluation of the Coulomb potential for     
              electron densities using multipole accelerated   
              resolution of identity approximation             
              M. Sierka, A. Hogekamp and R. Ahlrichs           
              J. Chem. Phys. 118: 9136 (2003)                  
          RI-JK Method:                                     
              A fully direct RI-HF algorithm: Implementation,
              optimised auxiliary basis sets, demonstration of
              accuracy and efficiency                         
              F. Weigend                                      
              Phys. Chem. Chem. Phys. 4: 4285 (2002)           
          Two-component HF and DFT with spin-orbit coupling:  
              Self-consistent treatment of spin-orbit         
              interactions with efficient Hartree-Fock and    
              density functional methods                      
              M. K. Armbruster, F. Weigend, C. van Wüllen and 
              W. Klopper                                      
              Phys. Chem. Chem. Phys. 10: 1748 (2008)         
          Relativistic all-electron 2c calculations           
              An efficient implementation of two-component    
              relativistic exact-decoupling methods for large 
              molecules                                       
              D. Peng, N. Middendorf, F. Weigend, M. Reiher   
              J. Chem. Phys. 138, 184105 (2013)               
                                         




              +--------------------------------------------------+
              |      general information about current run       |
              +--------------------------------------------------+

 

 DENSITY CONVERGENCE CHECK SWITCHED ON !
 SCF CONVERGENCE IF RMS(delta[D]) <     0.1000000000E-06

 PBE functional
 exchange:    LDA + PBE
 correlation: LDA (PW) + PBE
 A DFT calculation using the RI-J approximation will be carried out.
 Allocatable memory for RI due to $ricore (MB):                  5000


              +--------------------------------------------------+
              | Atomic coordinate, charge and isotop information |
              +--------------------------------------------------+

                    atomic coordinates            atom    charge  isotop
         -4.78177039   -0.65659669    7.97183645    c      6.000     0
         -4.79758103   -1.90750758    6.33455772    h      1.000     0
         -4.87988181   -1.84007399    9.65480911    h      1.000     0
         -6.48708688    0.49406522    7.90992595    h      1.000     0
         -2.39970989    0.95836462    7.99275434    c      6.000     0
         -2.43117698    2.23014884    9.61869194    h      1.000     0
         -2.35196220    2.15685919    6.31317310    h      1.000     0
          0.00008851   -0.62585138    8.06920384    c      6.000     0
          0.00009368   -1.79330462    9.77574256    h      1.000     0
          0.00021530   -1.92654828    6.46437057    h      1.000     0
          2.39984900    0.95844979    7.99291851    c      6.000     0
          2.43127104    2.23017333    9.61887913    h      1.000     0
          2.35233200    2.15686179    6.31332767    h      1.000     0
          4.78189130   -0.65657929    7.97223278    c      6.000     0
          4.79772676   -1.90754540    6.33501360    h      1.000     0
          6.48714004    0.49413418    7.91038892    h      1.000     0
          4.87981167   -1.83995364    9.65528627    h      1.000     0
 
       center of nuclear mass  :    0.00007062   -0.02399222    7.99848571
       center of nuclear charge:    0.00007126   -0.03776116    7.99756767

              +--------------------------------------------------+
              |               basis set information              |
              +--------------------------------------------------+

              we will work with the 1s 3p 5d 7f 9g ... basis set
              ...i.e. with spherical basis functions...

   type   atoms  prim   cont   basis
   ---------------------------------------------------------------------------
    c        5     77     55   cc-pVQZ   [5s4p3d2f1g|21s6p3d2f1g]
    h       12     32     30   cc-pVQZ   [4s3p2d1f|6s3p2d1f]
   ---------------------------------------------------------------------------
   total:   17    769    635
   ---------------------------------------------------------------------------

   total number of primitive shells          :   45
   total number of contracted shells         :  195
   total number of cartesian basis functions :  770
   total number of SCF-basis functions       :  635


 integral neglect threshold       :  0.43E-13
 integral storage threshold THIZE :  0.10E-04
 integral storage threshold THIME :         5

 RI-J AUXILIARY BASIS SET information:

              we will work with the 1s 3p 5d 7f 9g ... basis set
              ...i.e. with spherical basis functions...

   type   atoms  prim   cont   basis
   ---------------------------------------------------------------------------
    c        5     70     49   cc-pVQZ   [6s4p3d1f1g|12s5p4d2f1g]
    h       12     16     11   cc-pVQZ   [3s1p1d|5s2p1d]
   ---------------------------------------------------------------------------
   total:   17    542    377
   ---------------------------------------------------------------------------

   total number of primitive shells          :   32
   total number of contracted shells         :  135
   total number of cartesian basis functions :  449
   total number of SCF-basis functions       :  377


 symmetry group of the molecule :   c1 

 the group has the following generators :
   c1(z)

    1 symmetry operations found

 there are 1 real representations :   a   

 maximum number of shells which are related by symmetry :  1


    mo occupation :
   irrep   mo's   occupied
    a      635       21
 
 number of basis functions   :                    635
 number of occupied orbitals :                     21
 
  
           ------------------
           density functional
           ------------------
 PBE functional
 exchange:    LDA + PBE
 correlation: LDA (PW) + PBE

 iterations will be done with small grid
  
 spherical integration : Lebedev's spherical grid
 spherical gridsize    :                     5
    i.e. gridpoints    :                   590
 value for diffuse not defined
 radial integration    : Chebyshev 2nd kind (scaling 3)
 radial gridsize       :                     8
 integration cells     :                    17
 partition function    : becke
 partition sharpness   :                     3
  

 biggest AO integral is expected to be     3.537514283
  
           ------------------------
               RI-J - INFORMATION
           ------------------------
 Contributions to RI integral batches: 
  neglected integral batches:                  2996
  direct contribution:                            0
  memory contribution:                 16114
 Memory core needed for (P|Q) and Cholesky      2 MByte
 Memory core minimum needed except of (P|Q)     3 MByte
 Total minimum memory core needed (sum)         4 MByte
  
 ****************************************
 Memory allocated for RI-J   848 MByte
 ****************************************
                                            

          ------------------------
          nuclear repulsion energy  :   185.731971443    
          ------------------------


         -----------------
         -S,T+V- integrals
         -----------------

 1e-integrals will be neglected if expon. factor < 0.434021E-14
 Difference densities >>NOT<< switched on in parallel ridft!

 DIIS switched on: error vector is FDS-SDF
 Max. Iterations for DIIS is     :   4
 DIIS matrix (see manual) 
    Scaling factor of diagonals  :  1.200
    threshold for scaling factor :  0.000

 scf convergence criterion : increment of total energy < .1000000D-08
                  and increment of one-electron energy < .1000000D-05

  MOs are in ASCII format !


 automatic virtual orbital shift switched on 
      shift if e(lumo)-e(homo) < 0.10000000    


 reading orbital data $scfmo  from file mos
 orbital characterization : expanded
 mo provided and orthogonalized by Cholesky decomposition

 DSCF restart information will be dumped onto file mos


 Starting SCF iterations

          Overall gridpoints after grid construction =         73076

 ITERATION  ENERGY          1e-ENERGY        2e-ENERGY     RMS[dD(SAO)]   TOL
   1  -196.87135215843    -623.55777413     240.95445053    0.000D+00 0.433D-13
                            Exc = -30.2941165007     Coul =  271.248567033    
                              N = 42.000282808    
                            current damping = 0.700
 
          max. resid. norm for Fia-block=  2.464D-01 for orbital      8a         
          max. resid. fock norm         =  7.262D+00 for orbital    588a         

 ITERATION  ENERGY          1e-ENERGY        2e-ENERGY     RMS[dD(SAO)]   TOL
   2  -197.41356212471    -629.28329920     246.13776563    0.283D-02 0.433D-13
                            Exc = -30.9586530447     Coul =  277.096418672    
                              N = 42.000231671    
                            current damping = 0.650
 
          Norm of current diis error:  2.4492    
          max. resid. norm for Fia-block=  1.009D-01 for orbital      3a         
          max. resid. fock norm         =  1.175D-01 for orbital      6a         

 ITERATION  ENERGY          1e-ENERGY        2e-ENERGY     RMS[dD(SAO)]   TOL
   3  -197.52008274148    -630.38530233     247.13324815    0.130D-02 0.433D-13
                            Exc = -31.1571032759     Coul =  278.290351425    
                              N = 42.000203501    
                            current damping = 0.550
 
          Norm of current diis error:  1.1422    
          max. resid. norm for Fia-block=  4.445D-02 for orbital     10a         
          max. resid. fock norm         =  4.981D-02 for orbital      6a         

 ITERATION  ENERGY          1e-ENERGY        2e-ENERGY     RMS[dD(SAO)]   TOL
   4  -197.54992830755    -631.58549342     248.30359366    0.669D-03 0.433D-13
                            Exc = -31.3127569712     Coul =  279.616350636    
                              N = 42.000185608    
                            current damping = 0.450
 
          Norm of current diis error: 0.40528    
          max. resid. norm for Fia-block=  1.679D-02 for orbital      6a         
          max. resid. fock norm         =  1.925D-02 for orbital      6a         

 ITERATION  ENERGY          1e-ENERGY        2e-ENERGY     RMS[dD(SAO)]   TOL
   5  -197.55431044320    -631.68859591     248.40231402    0.328D-03 0.433D-13
                            Exc = -31.3501480753     Coul =  279.752462100    
                              N = 42.000177688    
                            current damping = 0.300
 
          Norm of current diis error: 0.15425    
          max. resid. norm for Fia-block=  6.673D-03 for orbital     10a         
          max. resid. fock norm         =  6.817D-03 for orbital     10a         
          mo-orthogonalization: Cholesky decomposition

 ITERATION  ENERGY          1e-ENERGY        2e-ENERGY     RMS[dD(SAO)]   TOL
   6  -197.55495622542    -631.99044170     248.70351403    0.123D-03 0.433D-13
                            Exc = -31.3818346880     Coul =  280.085348718    
                              N = 42.000174321    
                            current damping = 0.150
 
          Norm of current diis error: 0.51371E-01
          max. resid. norm for Fia-block=  1.749D-03 for orbital     20a         
          max. resid. fock norm         =  2.670D-03 for orbital     63a         

 ITERATION  ENERGY          1e-ENERGY        2e-ENERGY     RMS[dD(SAO)]   TOL
   7  -197.55500574268    -631.89043693     248.60345974    0.544D-04 0.433D-13
                            Exc = -31.3779917912     Coul =  279.981451536    
                              N = 42.000173478    
                            current damping = 0.200
 
          Norm of current diis error: 0.25868E-01
          max. resid. norm for Fia-block=  5.746D-04 for orbital     14a         
          max. resid. fock norm         =  1.263D-03 for orbital    633a         

 ITERATION  ENERGY          1e-ENERGY        2e-ENERGY     RMS[dD(SAO)]   TOL
   8  -197.55501780735    -631.92424815     248.63725890    0.765D-05 0.433D-13
                            Exc = -31.3802409112     Coul =  280.017499809    
                              N = 42.000173353    
                            current damping = 0.250
 
          Norm of current diis error: 0.60445E-02
          max. resid. norm for Fia-block=  1.920D-04 for orbital     15a         
          max. resid. fock norm         =  3.949D-04 for orbital    633a         

 ITERATION  ENERGY          1e-ENERGY        2e-ENERGY     RMS[dD(SAO)]   TOL
   9  -197.55501837026    -631.93485933     248.64786951    0.213D-05 0.433D-13
                            Exc = -31.3812540429     Coul =  280.029123555    
                              N = 42.000173313    
                            current damping = 0.100
 
          Norm of current diis error: 0.27692E-02
          max. resid. norm for Fia-block=  5.539D-05 for orbital     15a         
          max. resid. fock norm         =  1.133D-04 for orbital    633a         

 ITERATION  ENERGY          1e-ENERGY        2e-ENERGY     RMS[dD(SAO)]   TOL
  10  -197.55501851596    -631.93132672     248.64433676    0.803D-06 0.433D-13
                            Exc = -31.3809357732     Coul =  280.025272537    
                              N = 42.000173313    
                            current damping = 0.150
 
          Norm of current diis error: 0.11239E-03
          max. resid. norm for Fia-block=  3.042D-06 for orbital     21a         
          max. resid. fock norm         =  6.653D-06 for orbital    633a         
          mo-orthogonalization: Cholesky decomposition

 DENSITY CONVERGED !


 ITERATION  ENERGY          1e-ENERGY        2e-ENERGY     RMS[dD(SAO)]   TOL
  11  -197.55501851618    -631.93144181     248.64445185    0.488D-07 0.433D-13
                            Exc = -31.3809495171     Coul =  280.025401364    
                              N = 42.000173312    
                            current damping = 0.200
 
          Norm of current diis error: 0.47212E-04
          max. resid. norm for Fia-block=  1.469D-06 for orbital     21a         
          max. resid. fock norm         =  2.841D-06 for orbital    631a         

 ENERGY & DENSITY CONVERGED !

          Overall gridpoints after grid construction =        245995

 ITERATION  ENERGY          1e-ENERGY        2e-ENERGY     RMS[dD(SAO)]   TOL
  12  -197.55499076362    -631.93142892     248.64446672    0.194D-07 0.433D-13
                            Exc = -31.3809205247     Coul =  280.025387242    
                              N = 41.999997552    
                            current damping = 0.250
 
          Norm of current diis error: 0.14965E-04
          max. resid. norm for Fia-block=  3.832D-07 for orbital     14a         
          max. resid. fock norm         =  7.782D-07 for orbital    635a         

 End of SCF iterations

   convergence criteria satisfied after    12 iterations


                  ------------------------------------------ 
                 |  total energy      =   -197.55499076362  |
                  ------------------------------------------ 
                 :  kinetic energy    =    196.62487857405  :
                 :  potential energy  =   -394.17986933767  :
                 :  virial theorem    =      1.99529188209  :
                 :  wavefunction norm =      1.00000000000  :
                  .......................................... 


 <geterg> : there is no data group $energy 


 <skperg> : $end is missing 


 orbitals $scfmo  will be written to file mos

    irrep                 17a         18a         19a         20a         21a   
 eigenvalues H         -0.31059    -0.29101    -0.28598    -0.27834    -0.27542
            eV          -8.4517     -7.9188     -7.7821     -7.5742     -7.4948
 occupation              2.0000      2.0000      2.0000      2.0000      2.0000 

    irrep                 22a         23a         24a         25a         26a   
 eigenvalues H          0.00697     0.02164     0.03595     0.03792     0.05484
            eV           0.1896      0.5889      0.9783      1.0319      1.4924
 
 
 
 
 ==============================================================================
                           electrostatic moments
 ==============================================================================

 reference point for electrostatic moments:    0.00000   0.00000   0.00000

 
              nuc           elec       ->  total
 ------------------------------------------------------------------------------
                          charge      
 ------------------------------------------------------------------------------
          42.000000     -42.000000      -0.000000
 
 ------------------------------------------------------------------------------
                       dipole moment  
 ------------------------------------------------------------------------------
   x       0.002993      -0.002988       0.000005
   y      -1.585969       1.621612       0.035643
   z     335.897842    -335.897008       0.000834
 
   | dipole moment | =     0.0357 a.u. =     0.0906 debye 
 
 ------------------------------------------------------------------------------
                     quadrupole moment
 ------------------------------------------------------------------------------
  xx     544.211121    -571.308794     -27.097673
  yy      59.261712     -85.943170     -26.681458
  zz    2713.887196   -2739.678550     -25.791354
  xy       0.002937      -0.002761       0.000177
  xz       0.045026      -0.045045      -0.000019
  yz     -12.918032      13.221461       0.303429
 
     1/3  trace=     -26.523495
     anisotropy=       1.269725
 
 ==============================================================================
 


    ------------------------------------------------------------------------
         total  cpu-time :  5 minutes and 46 seconds
         total wall-time :  53.29 seconds
    ------------------------------------------------------------------------

   ****  ridft : all done  ****


    2018-04-29 16:25:07.263 

