 operating system is UNIX !

 ridft (c-17-6.gp.local) : TURBOMOLE V7.2 ( 21454 ) 4 Oct 2017 at 12:48:15
 Copyright (C) 2017 TURBOMOLE GmbH, Karlsruhe


    2018-04-28 11:07:54.114 



                                  r i d f t

                        DFT program with RI approximation 
                                for coulomb part 




                                                 
                                 References:     
                                                 
          TURBOMOLE:                             
              R. Ahlrichs, M. Baer, M. Haeser, H. Horn, and
              C. Koelmel
              Electronic structure calculations on workstation
              computers: the program system TURBOMOLE
              Chem. Phys. Lett. 162: 165 (1989)
          Density Functional:                              
              O. Treutler and R. Ahlrichs                      
              Efficient Molecular Numerical Integration Schemes
              J. Chem. Phys. 102: 346 (1995)                   
          Parallel Version:                                
              Performance of parallel TURBOMOLE for Density    
              Functional Calculations                          
              M. v. Arnim and R. Ahlrichs                      
              J. Comp. Chem. 19: 1746 (1998)                   
          RI-J Method:                                     
              Auxiliary Basis Sets to approximate Coulomb      
              Potentials                                       
              Chem. Phys. Lett. 240: 283 (1995)                
              K. Eichkorn, O. Treutler, H. Oehm, M. Haeser     
              and R. Ahlrichs                                  
              Chem. Phys. Lett. 242: 652 (1995)                
                                                           
              Auxiliary Basis Sets for Main Row Atoms and their
              Use to approximate Coulomb Potentials            
              K. Eichkorn, F. Weigend, O. Treutler and         
              R. Ahlrichs                                      
              Theo. Chem. Acc. 97: 119 (1997)                   
                                                           
              Accurate Coulomb-fitting basis sets for H to Rn 
              F. Weigend                                        
              Phys. Chem. Chem. Phys. 8: 1057 (2006)            
                                                           
          Multipole accelerated RI-J (MARI-J):             
              Fast evaluation of the Coulomb potential for     
              electron densities using multipole accelerated   
              resolution of identity approximation             
              M. Sierka, A. Hogekamp and R. Ahlrichs           
              J. Chem. Phys. 118: 9136 (2003)                  
          RI-JK Method:                                     
              A fully direct RI-HF algorithm: Implementation,
              optimised auxiliary basis sets, demonstration of
              accuracy and efficiency                         
              F. Weigend                                      
              Phys. Chem. Chem. Phys. 4: 4285 (2002)           
          Two-component HF and DFT with spin-orbit coupling:  
              Self-consistent treatment of spin-orbit         
              interactions with efficient Hartree-Fock and    
              density functional methods                      
              M. K. Armbruster, F. Weigend, C. van Wüllen and 
              W. Klopper                                      
              Phys. Chem. Chem. Phys. 10: 1748 (2008)         
          Relativistic all-electron 2c calculations           
              An efficient implementation of two-component    
              relativistic exact-decoupling methods for large 
              molecules                                       
              D. Peng, N. Middendorf, F. Weigend, M. Reiher   
              J. Chem. Phys. 138, 184105 (2013)               
                                         




              +--------------------------------------------------+
              |      general information about current run       |
              +--------------------------------------------------+

 

 DENSITY CONVERGENCE CHECK SWITCHED ON !
 SCF CONVERGENCE IF RMS(delta[D]) <     0.1000000000E-06

 A HF calculation using the RI-JK approximation will be carried out.
 Allocatable memory for RI due to $ricore (MB):                   500


              +--------------------------------------------------+
              | Atomic coordinate, charge and isotop information |
              +--------------------------------------------------+

                    atomic coordinates            atom    charge  isotop
         -2.32951643    2.28966581   -0.26763069    c      6.000     0
         -1.07955646    4.23679572    0.04840871    o      8.000     0
         -1.26721351    0.00734873   -0.59390591    n      7.000     0
          0.64977656   -0.17113380   -0.58265296    h      1.000     0
         -2.35122321   -1.52373097   -0.84410799    h      1.000     0
         -5.17453305    2.39382506   -0.29458293    c      6.000     0
         -5.81653043    3.11163270    1.52028768    h      1.000     0
         -6.05112046    0.57233283   -0.65424419    h      1.000     0
         -5.76364103    3.73313601   -1.73589745    h      1.000     0
          7.92780344    2.11163411   -0.22590150    n      7.000     0
          8.85382489    0.45631493   -0.44877291    h      1.000     0
          9.44643651    4.27129806    0.05846769    c      6.000     0
         11.74351584    4.09059805    0.02977262    o      8.000     0
          7.98644889    6.56791337    0.36676505    c      6.000     0
          8.97243805    8.33139231    0.59926774    h      1.000     0
          5.43690463    6.45136351    0.35603754    c      6.000     0
          4.26451088    8.10744464    0.57841465    h      1.000     0
          4.14228707    4.23607251    0.06395057    n      7.000     0
          2.19059592    4.21894958    0.06236827    h      1.000     0
          5.33449633    1.95995503   -0.24267646    c      6.000     0
          4.20597318   -0.05055477   -0.51065378    o      8.000     0
 
       center of nuclear mass  :    3.75587701    3.13141367   -0.11280522
       center of nuclear charge:    3.59699613    3.12378403   -0.11553148

              +--------------------------------------------------+
              |               basis set information              |
              +--------------------------------------------------+

              we will work with the 1s 3p 5d 7f 9g ... basis set
              ...i.e. with spherical basis functions...

   type   atoms  prim   cont   basis
   ---------------------------------------------------------------------------
    c        6     77     57   def2-QZVP   [7s4p3d2f1g|15s8p3d2f1g]
    o        3     77     57   def2-QZVP   [7s4p3d2f1g|15s8p3d2f1g]
    n        3     77     57   def2-QZVP   [7s4p3d2f1g|15s8p3d2f1g]
    h        9     33     30   def2-QZVP   [4s3p2d1f|7s3p2d1f]
   ---------------------------------------------------------------------------
   total:   21   1221    954
   ---------------------------------------------------------------------------

   total number of primitive shells          :  100
   total number of contracted shells         :  294
   total number of cartesian basis functions : 1179
   total number of SCF-basis functions       :  954


 integral neglect threshold       :  0.28E-13
 integral storage threshold THIZE :  0.10E-04
 integral storage threshold THIME :         5

 RI-JK AUXILIARY BASIS SET information:

              we will work with the 1s 3p 5d 7f 9g ... basis set
              ...i.e. with spherical basis functions...

   type   atoms  prim   cont   basis
   ---------------------------------------------------------------------------
    c        6     97     75   def2-QZVP   [10s8p5d1f1g|14s10p6d2f1g]
    o        3     97     77   def2-QZVP   [10s8p4d2f1g|14s10p6d2f1g]
    n        3     97     77   def2-QZVP   [10s8p4d2f1g|14s10p6d2f1g]
    h        9     20     18   def2-QZVP   [2s2p2d|4s2p2d]
   ---------------------------------------------------------------------------
   total:   21   1344   1074
   ---------------------------------------------------------------------------

   total number of primitive shells          :  107
   total number of contracted shells         :  354
   total number of cartesian basis functions : 1272
   total number of SCF-basis functions       : 1074


 symmetry group of the molecule :   c1 

 the group has the following generators :
   c1(z)

    1 symmetry operations found

 there are 1 real representations :   a   

 maximum number of shells which are related by symmetry :  1


    mo occupation :
   irrep   mo's   occupied
    a      954       45
 
 number of basis functions   :                    954
 number of occupied orbitals :                     45
 

 biggest AO integral is expected to be     6.990327543
  
           ------------------------
               RI-JK - INFORMATION
           ------------------------
 Contributions to RI integral batches: 
  neglected integral batches:                 15049
  direct contribution:                        28316
  memory contribution:                     0
 Memory core needed for (P|Q) and Cholesky      9 MByte
 Memory core minimum needed except of (P|Q)     1 MByte
 Total minimum memory core needed (sum)        10 MByte
  
 ****************************************
 Memory allocated for RI-J    10 MByte
 ****************************************
                                            
 total memory allocated for calculation of  (Q|P)**(-1/2) :   14 MiB

  forming (P|Q)**(-1/2) 
 eigenvalues of original matrix 
 smallest =0.8623798173754E-07  largest = 40.88096452718    
  The symmetry information takes                      1  MB

          ------------------------
          nuclear repulsion energy  :   682.464506840    
          ------------------------


         -----------------
         -S,T+V- integrals
         -----------------

 1e-integrals will be neglected if expon. factor < 0.283457E-14
 
   Difference densities algorithm switched on.
   The maximal number of linear combinations of
   difference densities is                    20 .

 DIIS switched on: error vector is FDS-SDF
 Max. Iterations for DIIS is     :   5
 DIIS matrix (see manual) 
    Scaling factor of diagonals  :  1.200
    threshold for scaling factor :  0.000

 scf convergence criterion : increment of total energy < .1000000D-08
                  and increment of one-electron energy < .1000000D-05

  MOs are in ASCII format !


 automatic virtual orbital shift switched on 
      shift if e(lumo)-e(homo) < 0.10000000    


 reading orbital data $scfmo  from file mos
 orbital characterization : scfconv=9

 DSCF restart information will be dumped onto file mos


 Starting SCF iterations

 
 BLOCKING OF MOS FOR RI-K
 
 
 occupied MOs partitioned into blocks of maximum length 45
 this requires 436 MiB core memory.
 
            MULTIPLE PASS Statistics 
 ----------------------------------------------------
  pass       irrep     lambda      batch : MO  to  MO
 ----------------------------------------------------
   1       1  ->  1    1  -> 45             1  ->  45



 ENERGY & DENSITY CONVERGED !


 ITERATION  ENERGY          1e-ENERGY        2e-ENERGY     RMS[dD(SAO)]   TOL
   1  -620.63361393088    -2204.2498122     901.15169138    0.000D+00 0.283D-13
                           RI-K = -78.9099341294     Coul =  980.061625512    
                            current damping = 0.700
 
          max. resid. norm for Fia-block=  1.172D-01 for orbital      1a         
          max. resid. fock norm         =  6.811D-01 for orbital    942a         

 End of SCF iterations

   convergence criteria satisfied after     1 iterations


                  ------------------------------------------ 
                 |  total energy      =   -620.63361393088  |
                  ------------------------------------------ 
                 :  kinetic energy    =    622.12842874400  :
                 :  potential energy  =  -1242.76204267487  :
                 :  virial theorem    =      2.00240853022  :
                 :  wavefunction norm =      1.00000000000  :
                  .......................................... 


 orbitals $scfmo  will be written to file mos

    irrep                 41a         42a         43a         44a         45a   
 eigenvalues H         -0.42217    -0.41954    -0.44397    -0.43532    -0.33668
            eV         -11.4878    -11.4164    -12.0812    -11.8457     -9.1616
 occupation              2.0000      2.0000      2.0000      2.0000      2.0000 

    irrep                 46a         47a         48a         49a         50a   
 eigenvalues H          0.11229     0.16705     0.18146     0.10259     0.12734
            eV           3.0556      4.5456      4.9379      2.7916      3.4651
 
 
 
 
 ==============================================================================
                           electrostatic moments
 ==============================================================================

 reference point for electrostatic moments:    0.00000   0.00000   0.00000

 
              nuc           elec       ->  total
 ------------------------------------------------------------------------------
                          charge      
 ------------------------------------------------------------------------------
          90.000000     -90.000000      -0.000000
 
 ------------------------------------------------------------------------------
                       dipole moment  
 ------------------------------------------------------------------------------
   x     323.729652    -325.896363      -2.166711
   y     281.140563    -281.424527      -0.283965
   z     -10.397833      10.329454      -0.068380
 
   | dipole moment | =     2.1863 a.u. =     5.5570 debye 
 
 ------------------------------------------------------------------------------
                     quadrupole moment
 ------------------------------------------------------------------------------
  xx    3576.351842   -3648.495082     -72.143240
  yy    1320.654852   -1369.414561     -48.759709
  zz      15.562489     -68.094379     -52.531889
  xy    1392.640171   -1396.425223      -3.785051
  xz      28.139532     -27.405278       0.734254
  yz      29.322100     -28.634546       0.687554
 
     1/3  trace=     -57.811613
     anisotropy=      22.777783
 
 ==============================================================================
 


    ------------------------------------------------------------------------
         total  cpu-time :  1 minutes and 13 seconds
         total wall-time :  1 minutes and 17 seconds
    ------------------------------------------------------------------------

   ****  ridft : all done  ****


    2018-04-28 11:09:11.524 

