 operating system is UNIX !

 ridft (c-9-414.gp.local) : TURBOMOLE V7.2 ( 21454 ) 4 Oct 2017 at 12:48:15
 Copyright (C) 2017 TURBOMOLE GmbH, Karlsruhe


    2018-05-18 15:41:43.620 



                                  r i d f t

                        DFT program with RI approximation 
                                for coulomb part 




                                                 
                                 References:     
                                                 
          TURBOMOLE:                             
              R. Ahlrichs, M. Baer, M. Haeser, H. Horn, and
              C. Koelmel
              Electronic structure calculations on workstation
              computers: the program system TURBOMOLE
              Chem. Phys. Lett. 162: 165 (1989)
          Density Functional:                              
              O. Treutler and R. Ahlrichs                      
              Efficient Molecular Numerical Integration Schemes
              J. Chem. Phys. 102: 346 (1995)                   
          Parallel Version:                                
              Performance of parallel TURBOMOLE for Density    
              Functional Calculations                          
              M. v. Arnim and R. Ahlrichs                      
              J. Comp. Chem. 19: 1746 (1998)                   
          RI-J Method:                                     
              Auxiliary Basis Sets to approximate Coulomb      
              Potentials                                       
              Chem. Phys. Lett. 240: 283 (1995)                
              K. Eichkorn, O. Treutler, H. Oehm, M. Haeser     
              and R. Ahlrichs                                  
              Chem. Phys. Lett. 242: 652 (1995)                
                                                           
              Auxiliary Basis Sets for Main Row Atoms and their
              Use to approximate Coulomb Potentials            
              K. Eichkorn, F. Weigend, O. Treutler and         
              R. Ahlrichs                                      
              Theo. Chem. Acc. 97: 119 (1997)                   
                                                           
              Accurate Coulomb-fitting basis sets for H to Rn 
              F. Weigend                                        
              Phys. Chem. Chem. Phys. 8: 1057 (2006)            
                                                           
          Multipole accelerated RI-J (MARI-J):             
              Fast evaluation of the Coulomb potential for     
              electron densities using multipole accelerated   
              resolution of identity approximation             
              M. Sierka, A. Hogekamp and R. Ahlrichs           
              J. Chem. Phys. 118: 9136 (2003)                  
          RI-JK Method:                                     
              A fully direct RI-HF algorithm: Implementation,
              optimised auxiliary basis sets, demonstration of
              accuracy and efficiency                         
              F. Weigend                                      
              Phys. Chem. Chem. Phys. 4: 4285 (2002)           
          Two-component HF and DFT with spin-orbit coupling:  
              Self-consistent treatment of spin-orbit         
              interactions with efficient Hartree-Fock and    
              density functional methods                      
              M. K. Armbruster, F. Weigend, C. van Wüllen and 
              W. Klopper                                      
              Phys. Chem. Chem. Phys. 10: 1748 (2008)         
          Relativistic all-electron 2c calculations           
              An efficient implementation of two-component    
              relativistic exact-decoupling methods for large 
              molecules                                       
              D. Peng, N. Middendorf, F. Weigend, M. Reiher   
              J. Chem. Phys. 138, 184105 (2013)               
                                         




              +--------------------------------------------------+
              |      general information about current run       |
              +--------------------------------------------------+

 
 TPSS meta-GGA functional
 exchange:    LDA + TPSS
 correlation: LDA (PW) + TPSS
 A DFT calculation using the RI-J approximation will be carried out.
 Allocatable memory for RI due to $ricore (MB):                   500


              +--------------------------------------------------+
              | Atomic coordinate, charge and isotop information |
              +--------------------------------------------------+

                    atomic coordinates            atom    charge  isotop
          3.72935655    3.59657218    0.81693084    c      6.000     0
          4.68630182    5.41344764    0.75103541    h      1.000     0
          2.95354059    3.32041540    2.70264440    h      1.000     0
          2.16154942    3.57859470   -0.50872250    h      1.000     0
          5.45964721    1.41405412    0.21993572    c      6.000     0
          4.65803523   -0.70227058   -0.31879031    o      8.000     0
          7.96568280    1.90864132    0.33180630    n      7.000     0
          8.52884471    3.62910116    0.89435356    h      1.000     0
          9.82216115   -0.05688419   -0.08911852    c      6.000     0
          9.14836572   -1.28697746   -1.58611602    h      1.000     0
         11.59920148    0.80015165   -0.65322766    h      1.000     0
         10.12359158   -1.19927448    1.59665994    h      1.000     0
 
       center of nuclear mass  :    6.34839624    1.22260971    0.19361981
       center of nuclear charge:    6.40731116    1.29300590    0.21638592

              +--------------------------------------------------+
              |               basis set information              |
              +--------------------------------------------------+

              we will work with the 1s 3p 5d 7f 9g ... basis set
              ...i.e. with spherical basis functions...

   type   atoms  prim   cont   basis
   ---------------------------------------------------------------------------
    c        3     77     57   def2-QZVP   [7s4p3d2f1g|15s8p3d2f1g]
    h        7     33     30   def2-QZVP   [4s3p2d1f|7s3p2d1f]
    o        1     77     57   def2-QZVP   [7s4p3d2f1g|15s8p3d2f1g]
    n        1     77     57   def2-QZVP   [7s4p3d2f1g|15s8p3d2f1g]
   ---------------------------------------------------------------------------
   total:   12    616    495
   ---------------------------------------------------------------------------

   total number of primitive shells          :  100
   total number of contracted shells         :  155
   total number of cartesian basis functions :  605
   total number of SCF-basis functions       :  495


 integral neglect threshold       :  0.55E-13
 integral storage threshold THIZE :  0.10E-04
 integral storage threshold THIME :         5

 RI-J AUXILIARY BASIS SET information:

              we will work with the 1s 3p 5d 7f 9g ... basis set
              ...i.e. with spherical basis functions...

   type   atoms  prim   cont   basis
   ---------------------------------------------------------------------------
    c        3     70     49   def2-QZVP   [6s4p3d1f1g|12s5p4d2f1g]
    h        7     16     11   def2-QZVP   [3s1p1d|5s2p1d]
    o        1     70     49   def2-QZVP   [6s4p3d1f1g|12s5p4d2f1g]
    n        1     70     49   def2-QZVP   [6s4p3d1f1g|12s5p4d2f1g]
   ---------------------------------------------------------------------------
   total:   12    462    322
   ---------------------------------------------------------------------------

   total number of primitive shells          :   80
   total number of contracted shells         :  110
   total number of cartesian basis functions :  389
   total number of SCF-basis functions       :  322


 symmetry group of the molecule :   c1 

 the group has the following generators :
   c1(z)

    1 symmetry operations found

 there are 1 real representations :   a   

 maximum number of shells which are related by symmetry :  1


    mo occupation :
   irrep   mo's   occupied
    a      495       20
 
 number of basis functions   :                    495
 number of occupied orbitals :                     20
 
  
           ------------------
           density functional
           ------------------
 TPSS meta-GGA functional
 exchange:    LDA + TPSS
 correlation: LDA (PW) + TPSS

 iterations will be done with small grid
  
 spherical integration : Lebedev's spherical grid
 spherical gridsize    :                     5
    i.e. gridpoints    :                   590
 value for diffuse not defined
 radial integration    : Chebyshev 2nd kind (scaling 3)
 radial gridsize       :                     8
 integration cells     :                    12
 partition function    : becke
 partition sharpness   :                     3
  

 biggest AO integral is expected to be     6.990327543
  
           ------------------------
               RI-J - INFORMATION
           ------------------------
 Contributions to RI integral batches: 
  neglected integral batches:                  1538
  direct contribution:                            0
  memory contribution:                 10552
 Memory core needed for (P|Q) and Cholesky      1 MByte
 Memory core minimum needed except of (P|Q)     2 MByte
 Total minimum memory core needed (sum)         3 MByte
  
 ****************************************
 Memory allocated for RI-J   483 MByte
 ****************************************
                                            

          ------------------------
          nuclear repulsion energy  :   180.738736894    
          ------------------------


         -----------------
         -S,T+V- integrals
         -----------------

 1e-integrals will be neglected if expon. factor < 0.552390E-14
 
   Difference densities algorithm switched on.
   The maximal number of linear combinations of
   difference densities is                    20 .

 DIIS switched on: error vector is FDS-SDF
 Max. Iterations for DIIS is     :   4
 DIIS matrix (see manual) 
    Scaling factor of diagonals  :  1.200
    threshold for scaling factor :  0.000

 scf convergence criterion : increment of total energy < .1000000D-08
                  and increment of one-electron energy < .1000000D-05

  MOs are in ASCII format !


 automatic virtual orbital shift switched on 
      shift if e(lumo)-e(homo) < 0.10000000    


 reading orbital data $scfmo  from file mos
 orbital characterization : expanded
 mo provided and orthogonalized by Cholesky decomposition

 DSCF restart information will be dumped onto file mos


 Starting SCF iterations

          Overall gridpoints after grid construction =         56046

 ITERATION  ENERGY          1e-ENERGY        2e-ENERGY     NORM[dD(SAO)]  TOL
   1  -247.53429196459    -688.87920691     260.60617805    0.000D+00 0.551D-13
                            Exc = -34.0289246888     Coul =  294.635102741    
                              N = 39.999980274    
                            current damping = 0.700
 
          max. resid. norm for Fia-block=  8.290D-01 for orbital      6a         
          max. resid. fock norm         =  6.765D+01 for orbital    455a         

 ITERATION  ENERGY          1e-ENERGY        2e-ENERGY     NORM[dD(SAO)]  TOL
   2  -248.48012316688    -692.60547297     263.38661291    0.117D+01 0.422D-13
                            Exc = -34.2052824986     Coul =  297.591895408    
                              N = 39.999980111    
                            current damping = 0.650
 
          Norm of current diis error:  2.7863    
          max. resid. norm for Fia-block=  1.614D-01 for orbital      1a         
          max. resid. fock norm         =  3.183D-01 for orbital    276a         

 ITERATION  ENERGY          1e-ENERGY        2e-ENERGY     NORM[dD(SAO)]  TOL
   3  -248.62279930820    -694.12207136     264.76053516    0.504D+00 0.296D-13
                            Exc = -34.4334158227     Coul =  299.193950983    
                              N = 39.999980784    
                            current damping = 0.550
 
          Norm of current diis error:  1.3299    
          max. resid. norm for Fia-block=  6.246D-02 for orbital      1a         
          max. resid. fock norm         =  6.612D-02 for orbital    256a         

 ITERATION  ENERGY          1e-ENERGY        2e-ENERGY     NORM[dD(SAO)]  TOL
   4  -248.66794585704    -694.11455458     264.70787183    0.279D+00 0.238D-13
                            Exc = -34.4262475415     Coul =  299.134119374    
                              N = 39.999980972    
                            current damping = 0.600
 
          Norm of current diis error: 0.56504    
          max. resid. norm for Fia-block=  3.294D-02 for orbital      6a         
          max. resid. fock norm         =  7.284D-02 for orbital    465a         

 ITERATION  ENERGY          1e-ENERGY        2e-ENERGY     NORM[dD(SAO)]  TOL
   5  -248.67442027518    -694.64138794     265.22823077    0.118D+00 0.219D-13
                            Exc = -34.5151956377     Coul =  299.743426407    
                              N = 39.999981935    
                            current damping = 0.650
 
          Norm of current diis error: 0.33069    
          max. resid. norm for Fia-block=  1.081D-02 for orbital     20a         
          max. resid. fock norm         =  1.400D-02 for orbital    471a         
          mo-orthogonalization: Cholesky decomposition

 ITERATION  ENERGY          1e-ENERGY        2e-ENERGY     NORM[dD(SAO)]  TOL
   6  -248.67768524839    -694.67187246     265.25545032    0.378D-01 0.206D-13
                            Exc = -34.5142117185     Coul =  299.769662036    
                              N = 39.999981837    
                            current damping = 0.500
 
          Norm of current diis error: 0.84102E-01
          max. resid. norm for Fia-block=  4.316D-03 for orbital     19a         
          max. resid. fock norm         =  7.014D-03 for orbital    478a         

 ITERATION  ENERGY          1e-ENERGY        2e-ENERGY     NORM[dD(SAO)]  TOL
   7  -248.67790506010    -694.59072770     265.17408574    0.145D-01 0.197D-13
                            Exc = -34.5069466460     Coul =  299.681032388    
                              N = 39.999981971    
                            current damping = 0.550
 
          Norm of current diis error: 0.44415E-01
          max. resid. norm for Fia-block=  1.741D-03 for orbital      6a         
          max. resid. fock norm         =  4.287D-03 for orbital    478a         

 ITERATION  ENERGY          1e-ENERGY        2e-ENERGY     NORM[dD(SAO)]  TOL
   8  -248.67795124862    -694.63282417     265.21613602    0.294D-02 0.194D-13
                            Exc = -34.5124448613     Coul =  299.728580886    
                              N = 39.999981978    
                            current damping = 0.600
 
          Norm of current diis error: 0.94619E-02
          max. resid. norm for Fia-block=  6.014D-04 for orbital      6a         
          max. resid. fock norm         =  1.743D-03 for orbital    478a         

 ITERATION  ENERGY          1e-ENERGY        2e-ENERGY     NORM[dD(SAO)]  TOL
   9  -248.67795392630    -694.64691052     265.23021970    0.893D-03 0.190D-13
                            Exc = -34.5141388848     Coul =  299.744358583    
                              N = 39.999982000    
                            current damping = 0.450
 
          Norm of current diis error: 0.43462E-02
          max. resid. norm for Fia-block=  2.503D-04 for orbital     20a         
          max. resid. fock norm         =  4.552D-04 for orbital    471a         

 ITERATION  ENERGY          1e-ENERGY        2e-ENERGY     NORM[dD(SAO)]  TOL
  10  -248.67795437560    -694.64305461     265.22636334    0.301D-03 0.188D-13
                            Exc = -34.5137254325     Coul =  299.740088776    
                              N = 39.999981995    
                            current damping = 0.500
 
          Norm of current diis error: 0.31444E-02
          max. resid. norm for Fia-block=  1.280D-04 for orbital     19a         
          max. resid. fock norm         =  2.822D-04 for orbital    478a         
          mo-orthogonalization: Cholesky decomposition

 ITERATION  ENERGY          1e-ENERGY        2e-ENERGY     NORM[dD(SAO)]  TOL
  11  -248.67795464112    -694.64228342     265.22559188    0.943D-04 0.186D-13
                            Exc = -34.5138207500     Coul =  299.739412631    
                              N = 39.999982000    
                            current damping = 0.350
 
          Norm of current diis error: 0.10171E-02
          max. resid. norm for Fia-block=  4.001D-05 for orbital     10a         
          max. resid. fock norm         =  1.127D-04 for orbital    478a         

 ITERATION  ENERGY          1e-ENERGY        2e-ENERGY     NORM[dD(SAO)]  TOL
  12  -248.67795466292    -694.64473281     265.22804125    0.599D-04 0.185D-13
                            Exc = -34.5140358633     Coul =  299.742077118    
                              N = 39.999982002    
                            current damping = 0.400
 
          Norm of current diis error: 0.29975E-03
          max. resid. norm for Fia-block=  1.337D-05 for orbital     19a         
          max. resid. fock norm         =  1.962D-05 for orbital    481a         

 ITERATION  ENERGY          1e-ENERGY        2e-ENERGY     NORM[dD(SAO)]  TOL
  13  -248.67795466498    -694.64444063     265.22774907    0.143D-04 0.184D-13
                            Exc = -34.5140027467     Coul =  299.741751815    
                              N = 39.999982002    
                            current damping = 0.450
 
          Norm of current diis error: 0.15719E-03
          max. resid. norm for Fia-block=  4.630D-06 for orbital     10a         
          max. resid. fock norm         =  9.204D-06 for orbital    471a         

 ITERATION  ENERGY          1e-ENERGY        2e-ENERGY     NORM[dD(SAO)]  TOL
  14  -248.67795466543    -694.64427925     265.22758769    0.349D-05 0.183D-13
                            Exc = -34.5139953225     Coul =  299.741583012    
                              N = 39.999982002    
                            current damping = 0.300
 
          Norm of current diis error: 0.58249E-04
          max. resid. norm for Fia-block=  2.718D-06 for orbital     19a         
          max. resid. fock norm         =  6.092D-06 for orbital    478a         

 ITERATION  ENERGY          1e-ENERGY        2e-ENERGY     NORM[dD(SAO)]  TOL
  15  -248.67795466547    -694.64432640     265.22763484    0.915D-06 0.182D-13
                            Exc = -34.5140009861     Coul =  299.741635825    
                              N = 39.999982002    
                            current damping = 0.350
 
          Norm of current diis error: 0.41715E-04
          max. resid. norm for Fia-block=  1.358D-06 for orbital     19a         
          max. resid. fock norm         =  2.082D-06 for orbital    470a         
          mo-orthogonalization: Cholesky decomposition

 ITERATION  ENERGY          1e-ENERGY        2e-ENERGY     NORM[dD(SAO)]  TOL
  16  -248.67795466550    -694.64434367     265.22765211    0.229D-06 0.180D-13
                            Exc = -34.5140006250     Coul =  299.741652732    
                              N = 39.999982002    
                            current damping = 0.200
 
          Norm of current diis error: 0.11174E-04
          max. resid. norm for Fia-block=  3.867D-07 for orbital     17a         
          max. resid. fock norm         =  9.766D-07 for orbital    478a         

 ENERGY CONVERGED !

          Overall gridpoints after grid construction =        184349

 ITERATION  ENERGY          1e-ENERGY        2e-ENERGY     NORM[dD(SAO)]  TOL
  17  -248.67788341498    -694.64434621     265.22772590    0.996D-07 0.179D-13
                            Exc = -34.5139305336     Coul =  299.741656436    
                              N = 39.999997718    
                            current damping = 0.050
 
          Norm of current diis error: 0.61228E-05
          max. resid. norm for Fia-block=  1.425D-07 for orbital     20a         
          max. resid. fock norm         =  1.626D-07 for orbital    260a         

 End of SCF iterations

   convergence criteria satisfied after    17 iterations


                  ------------------------------------------ 
                 |  total energy      =   -248.67788341498  |
                  ------------------------------------------ 
                 :  kinetic energy    =    247.69617208351  :
                 :  potential energy  =   -496.37405549850  :
                 :  virial theorem    =      1.99605227728  :
                 :  wavefunction norm =      1.00000000000  :
                  .......................................... 


 <geterg> : there is no data group $energy 


 <skperg> : $end is missing 


 orbitals $scfmo  will be written to file mos

    irrep                 16a         17a         18a         19a         20a   
 eigenvalues H         -0.35790    -0.34597    -0.31401    -0.22473    -0.20674
            eV          -9.7390     -9.4144     -8.5446     -6.1154     -5.6258
 occupation              2.0000      2.0000      2.0000      2.0000      2.0000 

    irrep                 21a         22a         23a         24a         25a   
 eigenvalues H         -0.00627    -0.00561     0.02750     0.03934     0.06814
            eV          -0.1706     -0.1526      0.7484      1.0704      1.8541
 
 
 
 
 ==============================================================================
                           electrostatic moments
 ==============================================================================

 reference point for electrostatic moments:    0.00000   0.00000   0.00000

 
              nuc           elec       ->  total
 ------------------------------------------------------------------------------
                          charge      
 ------------------------------------------------------------------------------
          40.000000     -40.000000      -0.000000
 
 ------------------------------------------------------------------------------
                       dipole moment  
 ------------------------------------------------------------------------------
   x     256.292446    -255.393697       0.898750
   y      51.720236     -50.560088       1.160148
   z       8.655437      -8.308645       0.346792
 
   | dipole moment | =     1.5080 a.u. =     3.8329 debye 
 
 ------------------------------------------------------------------------------
                     quadrupole moment
 ------------------------------------------------------------------------------
  xx    1887.706732   -1897.685167      -9.978435
  yy     189.116654    -209.756282     -20.639628
  zz      20.344626     -43.295903     -22.951277
  xy     262.932072    -256.523785       6.408287
  xz      38.961089     -37.092497       1.868592
  yz      39.818000     -39.078123       0.739877
 
     1/3  trace=     -17.856447
     anisotropy=      16.702254
 
 ==============================================================================
 


    ------------------------------------------------------------------------
         total  cpu-time :  3 minutes and  1 seconds
         total wall-time :  3 minutes and 54 seconds
    ------------------------------------------------------------------------

   ****  ridft : all done  ****


    2018-05-18 15:45:37.129 

