 operating system is UNIX !

 ridft (c-9-372.gp.local) : TURBOMOLE V7.2 ( 21454 ) 4 Oct 2017 at 12:48:15
 Copyright (C) 2017 TURBOMOLE GmbH, Karlsruhe


    2018-05-18 15:36:46.567 



                                  r i d f t

                        DFT program with RI approximation 
                                for coulomb part 




                                                 
                                 References:     
                                                 
          TURBOMOLE:                             
              R. Ahlrichs, M. Baer, M. Haeser, H. Horn, and
              C. Koelmel
              Electronic structure calculations on workstation
              computers: the program system TURBOMOLE
              Chem. Phys. Lett. 162: 165 (1989)
          Density Functional:                              
              O. Treutler and R. Ahlrichs                      
              Efficient Molecular Numerical Integration Schemes
              J. Chem. Phys. 102: 346 (1995)                   
          Parallel Version:                                
              Performance of parallel TURBOMOLE for Density    
              Functional Calculations                          
              M. v. Arnim and R. Ahlrichs                      
              J. Comp. Chem. 19: 1746 (1998)                   
          RI-J Method:                                     
              Auxiliary Basis Sets to approximate Coulomb      
              Potentials                                       
              Chem. Phys. Lett. 240: 283 (1995)                
              K. Eichkorn, O. Treutler, H. Oehm, M. Haeser     
              and R. Ahlrichs                                  
              Chem. Phys. Lett. 242: 652 (1995)                
                                                           
              Auxiliary Basis Sets for Main Row Atoms and their
              Use to approximate Coulomb Potentials            
              K. Eichkorn, F. Weigend, O. Treutler and         
              R. Ahlrichs                                      
              Theo. Chem. Acc. 97: 119 (1997)                   
                                                           
              Accurate Coulomb-fitting basis sets for H to Rn 
              F. Weigend                                        
              Phys. Chem. Chem. Phys. 8: 1057 (2006)            
                                                           
          Multipole accelerated RI-J (MARI-J):             
              Fast evaluation of the Coulomb potential for     
              electron densities using multipole accelerated   
              resolution of identity approximation             
              M. Sierka, A. Hogekamp and R. Ahlrichs           
              J. Chem. Phys. 118: 9136 (2003)                  
          RI-JK Method:                                     
              A fully direct RI-HF algorithm: Implementation,
              optimised auxiliary basis sets, demonstration of
              accuracy and efficiency                         
              F. Weigend                                      
              Phys. Chem. Chem. Phys. 4: 4285 (2002)           
          Two-component HF and DFT with spin-orbit coupling:  
              Self-consistent treatment of spin-orbit         
              interactions with efficient Hartree-Fock and    
              density functional methods                      
              M. K. Armbruster, F. Weigend, C. van Wüllen and 
              W. Klopper                                      
              Phys. Chem. Chem. Phys. 10: 1748 (2008)         
          Relativistic all-electron 2c calculations           
              An efficient implementation of two-component    
              relativistic exact-decoupling methods for large 
              molecules                                       
              D. Peng, N. Middendorf, F. Weigend, M. Reiher   
              J. Chem. Phys. 138, 184105 (2013)               
                                         




              +--------------------------------------------------+
              |      general information about current run       |
              +--------------------------------------------------+

 
 PBE functional
 exchange:    LDA + PBE
 correlation: LDA (PW) + PBE
 A DFT calculation using the RI-J approximation will be carried out.
 Allocatable memory for RI due to $ricore (MB):                   500


              +--------------------------------------------------+
              | Atomic coordinate, charge and isotop information |
              +--------------------------------------------------+

                    atomic coordinates            atom    charge  isotop
          2.59306506    1.91330493    1.83459277    c      6.000     0
          1.79935231    3.80600206    1.95230866    h      1.000     0
          3.68009367    1.75086073    0.09584267    h      1.000     0
          3.87715505    1.60971628    3.40708639    h      1.000     0
          0.61744356   -0.14673208    1.86742503    c      6.000     0
          1.16940274   -2.36684665    2.21340080    o      8.000     0
         -1.79529433    0.65174159    1.46248724    n      7.000     0
         -2.08752672    2.49826613    1.14538599    h      1.000     0
         -3.89256069   -1.09106919    1.28530382    c      6.000     0
         -3.15462569   -2.96081536    1.69543253    h      1.000     0
         -5.35660212   -0.62621806    2.65253562    h      1.000     0
         -4.70725206   -1.09400938   -0.60459758    h      1.000     0
 
       center of nuclear mass  :   -0.28217201   -0.21345107    1.72688996
       center of nuclear charge:   -0.33133891   -0.13339394    1.70531353

              +--------------------------------------------------+
              |               basis set information              |
              +--------------------------------------------------+

              we will work with the 1s 3p 5d 7f 9g ... basis set
              ...i.e. with spherical basis functions...

   type   atoms  prim   cont   basis
   ---------------------------------------------------------------------------
    c        3     77     57   def2-QZVP   [7s4p3d2f1g|15s8p3d2f1g]
    h        7     33     30   def2-QZVP   [4s3p2d1f|7s3p2d1f]
    o        1     77     57   def2-QZVP   [7s4p3d2f1g|15s8p3d2f1g]
    n        1     77     57   def2-QZVP   [7s4p3d2f1g|15s8p3d2f1g]
   ---------------------------------------------------------------------------
   total:   12    616    495
   ---------------------------------------------------------------------------

   total number of primitive shells          :  100
   total number of contracted shells         :  155
   total number of cartesian basis functions :  605
   total number of SCF-basis functions       :  495


 integral neglect threshold       :  0.55E-13
 integral storage threshold THIZE :  0.10E-04
 integral storage threshold THIME :         5

 RI-J AUXILIARY BASIS SET information:

              we will work with the 1s 3p 5d 7f 9g ... basis set
              ...i.e. with spherical basis functions...

   type   atoms  prim   cont   basis
   ---------------------------------------------------------------------------
    c        3     70     49   def2-QZVP   [6s4p3d1f1g|12s5p4d2f1g]
    h        7     16     11   def2-QZVP   [3s1p1d|5s2p1d]
    o        1     70     49   def2-QZVP   [6s4p3d1f1g|12s5p4d2f1g]
    n        1     70     49   def2-QZVP   [6s4p3d1f1g|12s5p4d2f1g]
   ---------------------------------------------------------------------------
   total:   12    462    322
   ---------------------------------------------------------------------------

   total number of primitive shells          :   80
   total number of contracted shells         :  110
   total number of cartesian basis functions :  389
   total number of SCF-basis functions       :  322


 symmetry group of the molecule :   c1 

 the group has the following generators :
   c1(z)

    1 symmetry operations found

 there are 1 real representations :   a   

 maximum number of shells which are related by symmetry :  1


    mo occupation :
   irrep   mo's   occupied
    a      495       20
 
 number of basis functions   :                    495
 number of occupied orbitals :                     20
 
  
           ------------------
           density functional
           ------------------
 PBE functional
 exchange:    LDA + PBE
 correlation: LDA (PW) + PBE

 iterations will be done with small grid
  
 spherical integration : Lebedev's spherical grid
 spherical gridsize    :                     5
    i.e. gridpoints    :                   590
 value for diffuse not defined
 radial integration    : Chebyshev 2nd kind (scaling 3)
 radial gridsize       :                     8
 integration cells     :                    12
 partition function    : becke
 partition sharpness   :                     3
  

 biggest AO integral is expected to be     6.990327543
  
           ------------------------
               RI-J - INFORMATION
           ------------------------
 Contributions to RI integral batches: 
  neglected integral batches:                  1555
  direct contribution:                            0
  memory contribution:                 10535
 Memory core needed for (P|Q) and Cholesky      1 MByte
 Memory core minimum needed except of (P|Q)     2 MByte
 Total minimum memory core needed (sum)         3 MByte
  
 ****************************************
 Memory allocated for RI-J   482 MByte
 ****************************************
                                            

          ------------------------
          nuclear repulsion energy  :   180.490449900    
          ------------------------


         -----------------
         -S,T+V- integrals
         -----------------

 1e-integrals will be neglected if expon. factor < 0.552390E-14
 
   Difference densities algorithm switched on.
   The maximal number of linear combinations of
   difference densities is                    20 .

 DIIS switched on: error vector is FDS-SDF
 Max. Iterations for DIIS is     :   4
 DIIS matrix (see manual) 
    Scaling factor of diagonals  :  1.200
    threshold for scaling factor :  0.000

 scf convergence criterion : increment of total energy < .1000000D-08
                  and increment of one-electron energy < .1000000D-05

  MOs are in ASCII format !


 automatic virtual orbital shift switched on 
      shift if e(lumo)-e(homo) < 0.10000000    


 reading orbital data $scfmo  from file mos
 orbital characterization : expanded
 mo provided and orthogonalized by Cholesky decomposition

 DSCF restart information will be dumped onto file mos


 Starting SCF iterations

          Overall gridpoints after grid construction =         56057

 ITERATION  ENERGY          1e-ENERGY        2e-ENERGY     NORM[dD(SAO)]  TOL
   1  -247.19991952077    -688.35694253     260.66657311    0.000D+00 0.551D-13
                            Exc = -33.6831407741     Coul =  294.349713888    
                              N = 39.999965854    
                            current damping = 0.700
 
          max. resid. norm for Fia-block=  8.025D-01 for orbital      6a         
          max. resid. fock norm         =  6.213D+01 for orbital    445a         

 ITERATION  ENERGY          1e-ENERGY        2e-ENERGY     NORM[dD(SAO)]  TOL
   2  -248.15271281370    -692.12068259     263.47751988    0.119D+01 0.414D-13
                            Exc = -33.8525495198     Coul =  297.330069400    
                              N = 39.999971316    
                            current damping = 0.650
 
          Norm of current diis error:  2.6841    
          max. resid. norm for Fia-block=  1.621D-01 for orbital      1a         
          max. resid. fock norm         =  3.053D-01 for orbital    255a         

 ITERATION  ENERGY          1e-ENERGY        2e-ENERGY     NORM[dD(SAO)]  TOL
   3  -248.28733924659    -693.61738775     264.83959861    0.518D+00 0.299D-13
                            Exc = -34.0653305404     Coul =  298.904929148    
                              N = 39.999973511    
                            current damping = 0.550
 
          Norm of current diis error:  1.2823    
          max. resid. norm for Fia-block=  6.514D-02 for orbital      1a         
          max. resid. fock norm         =  6.902D-02 for orbital      1a         

 ITERATION  ENERGY          1e-ENERGY        2e-ENERGY     NORM[dD(SAO)]  TOL
   4  -248.32900628838    -693.53827439     264.71881821    0.281D+00 0.241D-13
                            Exc = -34.0394447032     Coul =  298.758262909    
                              N = 39.999972757    
                            current damping = 0.600
 
          Norm of current diis error: 0.56933    
          max. resid. norm for Fia-block=  3.357D-02 for orbital      6a         
          max. resid. fock norm         =  6.981D-02 for orbital    465a         

 ITERATION  ENERGY          1e-ENERGY        2e-ENERGY     NORM[dD(SAO)]  TOL
   5  -248.33564285753    -694.07369854     265.24760578    0.119D+00 0.221D-13
                            Exc = -34.1240065968     Coul =  299.371612375    
                              N = 39.999973543    
                            current damping = 0.650
 
          Norm of current diis error: 0.32362    
          max. resid. norm for Fia-block=  1.046D-02 for orbital     20a         
          max. resid. fock norm         =  1.189D-02 for orbital    431a         
          mo-orthogonalization: Cholesky decomposition

 ITERATION  ENERGY          1e-ENERGY        2e-ENERGY     NORM[dD(SAO)]  TOL
   6  -248.33868901701    -694.11020566     265.28106674    0.405D-01 0.207D-13
                            Exc = -34.1232629085     Coul =  299.404329652    
                              N = 39.999973129    
                            current damping = 0.500
 
          Norm of current diis error: 0.90401E-01
          max. resid. norm for Fia-block=  4.501D-03 for orbital     19a         
          max. resid. fock norm         =  6.033D-03 for orbital    472a         

 ITERATION  ENERGY          1e-ENERGY        2e-ENERGY     NORM[dD(SAO)]  TOL
   7  -248.33892048907    -694.01250146     265.18313107    0.164D-01 0.199D-13
                            Exc = -34.1131249877     Coul =  299.296256055    
                              N = 39.999973063    
                            current damping = 0.550
 
          Norm of current diis error: 0.47675E-01
          max. resid. norm for Fia-block=  1.702D-03 for orbital      6a         
          max. resid. fock norm         =  2.695D-03 for orbital    482a         

 ITERATION  ENERGY          1e-ENERGY        2e-ENERGY     NORM[dD(SAO)]  TOL
   8  -248.33897130934    -694.05485448     265.22543327    0.241D-02 0.195D-13
                            Exc = -34.1183915350     Coul =  299.343824803    
                              N = 39.999973023    
                            current damping = 0.600
 
          Norm of current diis error: 0.10133E-01
          max. resid. norm for Fia-block=  6.517D-04 for orbital      6a         
          max. resid. fock norm         =  1.048D-03 for orbital    482a         

 ITERATION  ENERGY          1e-ENERGY        2e-ENERGY     NORM[dD(SAO)]  TOL
   9  -248.33897385447    -694.07034597     265.24092222    0.880D-03 0.192D-13
                            Exc = -34.1202981864     Coul =  299.361220402    
                              N = 39.999973032    
                            current damping = 0.450
 
          Norm of current diis error: 0.47892E-02
          max. resid. norm for Fia-block=  2.817D-04 for orbital     20a         
          max. resid. fock norm         =  2.894D-04 for orbital     20a         

 ITERATION  ENERGY          1e-ENERGY        2e-ENERGY     NORM[dD(SAO)]  TOL
  10  -248.33897417345    -694.06697291     265.23754884    0.281D-03 0.190D-13
                            Exc = -34.1198119141     Coul =  299.357360755    
                              N = 39.999973015    
                            current damping = 0.500
 
          Norm of current diis error: 0.41838E-02
          max. resid. norm for Fia-block=  1.473D-04 for orbital     19a         
          max. resid. fock norm         =  2.582D-04 for orbital    472a         
          mo-orthogonalization: Cholesky decomposition

 ITERATION  ENERGY          1e-ENERGY        2e-ENERGY     NORM[dD(SAO)]  TOL
  11  -248.33897462926    -694.06605622     265.23663169    0.989D-04 0.189D-13
                            Exc = -34.1198742540     Coul =  299.356505948    
                              N = 39.999973017    
                            current damping = 0.350
 
          Norm of current diis error: 0.12069E-02
          max. resid. norm for Fia-block=  4.121D-05 for orbital     11a         
          max. resid. fock norm         =  7.193D-05 for orbital    470a         

 ITERATION  ENERGY          1e-ENERGY        2e-ENERGY     NORM[dD(SAO)]  TOL
  12  -248.33897466063    -694.06816962     265.23874506    0.741D-04 0.188D-13
                            Exc = -34.1200859219     Coul =  299.358830977    
                              N = 39.999973017    
                            current damping = 0.400
 
          Norm of current diis error: 0.33057E-03
          max. resid. norm for Fia-block=  1.186D-05 for orbital     11a         
          max. resid. fock norm         =  1.684D-05 for orbital    487a         

 ITERATION  ENERGY          1e-ENERGY        2e-ENERGY     NORM[dD(SAO)]  TOL
  13  -248.33897466283    -694.06829627     265.23887171    0.171D-04 0.187D-13
                            Exc = -34.1200959868     Coul =  299.358967693    
                              N = 39.999973017    
                            current damping = 0.250
 
          Norm of current diis error: 0.12961E-03
          max. resid. norm for Fia-block=  4.407D-06 for orbital     20a         
          max. resid. fock norm         =  5.202D-06 for orbital     63a         

 ITERATION  ENERGY          1e-ENERGY        2e-ENERGY     NORM[dD(SAO)]  TOL
  14  -248.33897466316    -694.06799096     265.23856640    0.306D-05 0.186D-13
                            Exc = -34.1200691498     Coul =  299.358635551    
                              N = 39.999973017    
                            current damping = 0.300
 
          Norm of current diis error: 0.46518E-04
          max. resid. norm for Fia-block=  1.893D-06 for orbital     19a         
          max. resid. fock norm         =  3.170D-06 for orbital    470a         

 ITERATION  ENERGY          1e-ENERGY        2e-ENERGY     NORM[dD(SAO)]  TOL
  15  -248.33897466320    -694.06805755     265.23863299    0.147D-05 0.186D-13
                            Exc = -34.1200760035     Coul =  299.358708989    
                              N = 39.999973017    
                            current damping = 0.350
 
          Norm of current diis error: 0.32036E-04
          max. resid. norm for Fia-block=  1.097D-06 for orbital     19a         
          max. resid. fock norm         =  1.608D-06 for orbital    472a         
          mo-orthogonalization: Cholesky decomposition

 ITERATION  ENERGY          1e-ENERGY        2e-ENERGY     NORM[dD(SAO)]  TOL
  16  -248.33897466321    -694.06808031     265.23865575    0.152D-06 0.184D-13
                            Exc = -34.1200769380     Coul =  299.358732687    
                              N = 39.999973017    
                            current damping = 0.200
 
          Norm of current diis error: 0.98855E-05
          max. resid. norm for Fia-block=  3.111D-07 for orbital     20a         
          max. resid. fock norm         =  4.074D-07 for orbital    472a         

 ITERATION  ENERGY          1e-ENERGY        2e-ENERGY     NORM[dD(SAO)]  TOL
  17  -248.33897466322    -694.06807119     265.23864663    0.707D-07 0.180D-13
                            Exc = -34.1200768459     Coul =  299.358723476    
                              N = 39.999973017    
                            current damping = 0.250
 
          Norm of current diis error: 0.55847E-05
          max. resid. norm for Fia-block=  1.827D-07 for orbital     20a         
          max. resid. fock norm         =  2.233D-07 for orbital    482a         

 ENERGY CONVERGED !

          Overall gridpoints after grid construction =        184346

 ITERATION  ENERGY          1e-ENERGY        2e-ENERGY     NORM[dD(SAO)]  TOL
  18  -248.33898553309    -694.06806738     265.23863195    0.545D-07 0.180D-13
                            Exc = -34.1200870053     Coul =  299.358718953    
                              N = 39.999999343    
                            current damping = 0.100
 
          Norm of current diis error: 0.17238E-05
          max. resid. norm for Fia-block=  5.111D-08 for orbital     10a         
          max. resid. fock norm         =  6.598D-08 for orbital     11a         

 End of SCF iterations

   convergence criteria satisfied after    18 iterations


                  ------------------------------------------ 
                 |  total energy      =   -248.33898553309  |
                  ------------------------------------------ 
                 :  kinetic energy    =    247.38994866935  :
                 :  potential energy  =   -495.72893420244  :
                 :  virial theorem    =      1.99617846203  :
                 :  wavefunction norm =      1.00000000000  :
                  .......................................... 


 <geterg> : there is no data group $energy 


 <skperg> : $end is missing 


 orbitals $scfmo  will be written to file mos

    irrep                 16a         17a         18a         19a         20a   
 eigenvalues H         -0.35228    -0.34169    -0.31320    -0.22273    -0.20733
            eV          -9.5861     -9.2980     -8.5227     -6.0608     -5.6417
 occupation              2.0000      2.0000      2.0000      2.0000      2.0000 

    irrep                 21a         22a         23a         24a         25a   
 eigenvalues H         -0.01337    -0.01136     0.02043     0.03525     0.06038
            eV          -0.3637     -0.3091      0.5560      0.9591      1.6429
 
 
 
 
 ==============================================================================
                           electrostatic moments
 ==============================================================================

 reference point for electrostatic moments:    0.00000   0.00000   0.00000

 
              nuc           elec       ->  total
 ------------------------------------------------------------------------------
                          charge      
 ------------------------------------------------------------------------------
          40.000000     -40.000000      -0.000000
 
 ------------------------------------------------------------------------------
                       dipole moment  
 ------------------------------------------------------------------------------
   x     -13.253556      12.543222      -0.710334
   y      -5.335758       6.585828       1.250071
   z      68.212541     -68.510364      -0.297823
 
   | dipole moment | =     1.4683 a.u. =     3.7321 debye 
 
 ------------------------------------------------------------------------------
                     quadrupole moment
 ------------------------------------------------------------------------------
  xx     264.019033    -284.917873     -20.898840
  yy     113.764381    -138.194113     -24.429732
  zz     132.212121    -156.538671     -24.326550
  xy      56.535855     -54.904169       1.631686
  xz       5.743779      -6.813285      -1.069506
  yz     -14.310756      16.815458       2.504702
 
     1/3  trace=     -23.218374
     anisotropy=       6.507905
 
 ==============================================================================
 


    ------------------------------------------------------------------------
         total  cpu-time :  1 minutes and 24 seconds
         total wall-time :  6 minutes and 24 seconds
    ------------------------------------------------------------------------

   ****  ridft : all done  ****


    2018-05-18 15:43:10.624 

