
   OpenMP run-time library returned nthreads = 28
 operating system is UNIX !

 dscf (c-15-42) : TURBOMOLE V7.3 ( 22142 ) 4 Jul 2018 at 18:12:42
 Copyright (C) 2018 TURBOMOLE GmbH, Karlsruhe


    2019-04-01 22:07:52.769 



                             d s c f - program

                   idea & directorship : reinhart ahlrichs
                   program development : marco haeser
                                         michael baer
                           dft version : oliver treutler


                          quantum chemistry group
                          universitaet  karlsruhe
                                  germany




                          References             
                                                 
          TURBOMOLE:                             
              R. Ahlrichs, M. Baer, M. Haeser, H. Horn, and
              C. Koelmel
              Electronic structure calculations on workstation
              computers: the program system TURBOMOLE
              Chem. Phys. Lett. 162: 165 (1989)
          Density Functional:                              
              O. Treutler and R. Ahlrichs                      
              Efficient Molecular Numerical Integration Schemes
              J. Chem. Phys. 102: 346 (1995)                   
          Parallel Version:                                
              Performance of parallel TURBOMOLE for Density    
              Functional Calculations                          
              M. v. Arnim and R. Ahlrichs                      
              J. Comp. Chem. 19: 1746 (1998)                   
                                         




              +--------------------------------------------------+
              | Atomic coordinate, charge and isotop information |
              +--------------------------------------------------+

                    atomic coordinates            atom    charge  isotop
         -4.53237960    0.30640185    6.65261336    n      7.000     0
         -3.37041359    2.49407696    7.18185798    c      6.000     0
         -4.59420790    4.10633735    7.48896132    h      1.000     0
         -0.75840598    2.76024061    7.35225612    c      6.000     0
          0.05766991    4.58127542    7.78919160    h      1.000     0
          0.75517280    0.64945563    6.94745050    c      6.000     0
          2.79148341    0.78246264    7.05107270    h      1.000     0
         -0.41750035   -1.63457138    6.39251432    c      6.000     0
          0.67055579   -3.32705146    6.04466310    h      1.000     0
         -3.04519152   -1.70645256    6.26883284    c      6.000     0
         -4.00678419   -3.46097517    5.83638286    h      1.000     0
 
       center of nuclear mass  :   -1.90535232    0.47756727    6.79828174
       center of nuclear charge:   -1.85299933    0.48103232    6.80085799

              +--------------------------------------------------+
              |               basis set information              |
              +--------------------------------------------------+

              we will work with the 1s 3p 5d 7f 9g ... basis set
              ...i.e. with spherical basis functions...

   type   atoms  prim   cont   basis
   ---------------------------------------------------------------------------
    n        1     77     55   cc-pVQZ   [5s4p3d2f1g|21s6p3d2f1g]
    c        5     77     55   cc-pVQZ   [5s4p3d2f1g|21s6p3d2f1g]
    h        5     32     30   cc-pVQZ   [4s3p2d1f|6s3p2d1f]
   ---------------------------------------------------------------------------
   total:   11    622    480
   ---------------------------------------------------------------------------

   total number of primitive shells          :   78
   total number of contracted shells         :  140
   total number of cartesian basis functions :  595
   total number of SCF-basis functions       :  480


 integral neglect threshold       :  0.56E-13
 integral storage threshold THIZE :  0.10E-04
 integral storage threshold THIME :         5


 DENSITY CONVERGENCE CHECK SWITCHED ON !
 SCF CONVERGENCE IF RMS(delta[D]) <     0.1000000000E-06


 symmetry group of the molecule :   c1 

 the group has the following generators :
   c1(z)

    1 symmetry operations found

 there are 1 real representations :   a   

 maximum number of shells which are related by symmetry :  1


    mo occupation :
   irrep   mo's   occupied
    a      480       21
 
 number of basis functions   :                    480
 number of occupied orbitals :                     21
 

 automatic virtual orbital shift switched on 
      shift if e(lumo)-e(homo) < 0.10000000    


          ------------------------
          nuclear repulsion energy  :   206.259557451    
          ------------------------


         -----------------
         -S,T+V- integrals
         -----------------

 1e-integrals will be neglected if expon. factor < 0.561674E-14
 
   Difference densities algorithm switched on.
   The maximal number of linear combinations of
   difference densities is                    20 .

 DIIS switched on: error vector is FDS-SDF
 Max. Iterations for DIIS is     :   5
 DIIS matrix (see manual) 
    Scaling factor of diagonals  :  1.200
    threshold for scaling factor :  0.000

 scf convergence criterion : increment of total energy < .1000000D-08
                  and increment of one-electron energy < .1000000D-05

  MOs are in ASCII format !


 reading orbital data $scfmo  from file mos
 orbital characterization : scfconv=9

 DSCF restart information will be dumped onto file mos

 
                                              current damping :  0.700
 ITERATION  ENERGY          1e-ENERGY        2e-ENERGY     RMS[dD(SAO)]   TOL
   1  -246.73747847594    -742.26251050     289.26547457    0.000D+00 0.560D-13
          max. resid. norm for Fia-block=  1.077D-01 for orbital      1a         
          max. resid. fock norm         =  2.299D-01 for orbital    479a         
          Delta Eig. =    25.7814850053 eV 
 
                                              current damping :  0.650
 ITERATION  ENERGY          1e-ENERGY        2e-ENERGY     RMS[dD(SAO)]   TOL
   2  -246.78110572123    -741.38869248     288.34802931    0.117D-02 0.364D-13
          Norm of current diis error: 0.59407    
          max. resid. norm for Fia-block=  5.024D-02 for orbital      1a         
          max. resid. fock norm         =  8.442D-02 for orbital    480a         
          Delta Eig. =    11.1499797418 eV 
 
                                              current damping :  0.600
 ITERATION  ENERGY          1e-ENERGY        2e-ENERGY     RMS[dD(SAO)]   TOL
   3  -246.78982708222    -741.46826864     288.41888410    0.567D-03 0.272D-13
          Norm of current diis error: 0.26194    
          max. resid. norm for Fia-block=  2.115D-02 for orbital      1a         
          max. resid. fock norm         =  3.419D-02 for orbital    478a         
          Delta Eig. =     4.5357134264 eV 
 
                                              current damping :  0.650
 ITERATION  ENERGY          1e-ENERGY        2e-ENERGY     RMS[dD(SAO)]   TOL
   4  -246.79166385750    -741.39768800     288.34646670    0.247D-03 0.235D-13
          Norm of current diis error: 0.10675    
          max. resid. norm for Fia-block=  7.792D-03 for orbital      1a         
          max. resid. fock norm         =  1.284D-02 for orbital    480a         
          Delta Eig. =     1.6235306876 eV 
 
                                              current damping :  0.500
 ITERATION  ENERGY          1e-ENERGY        2e-ENERGY     RMS[dD(SAO)]   TOL
   5  -246.79198289303    -741.38114236     288.32960202    0.953D-04 0.216D-13
          Norm of current diis error: 0.45973E-01
          max. resid. norm for Fia-block=  3.098D-03 for orbital      1a         
          max. resid. fock norm         =  5.026D-03 for orbital    479a         
 mo-orthogonalization: Cholesky decomposition
          Delta Eig. =     0.7035933523 eV 
 
                                              current damping :  0.350
 ITERATION  ENERGY          1e-ENERGY        2e-ENERGY     RMS[dD(SAO)]   TOL
   6  -246.79205247438    -741.37449947     288.32288955    0.460D-04 0.201D-13
          Norm of current diis error: 0.18255E-01
          max. resid. norm for Fia-block=  1.255D-03 for orbital     21a         
          max. resid. fock norm         =  1.749D-03 for orbital    480a         
          Delta Eig. =     0.2660625295 eV 
 
                                              current damping :  0.200
 ITERATION  ENERGY          1e-ENERGY        2e-ENERGY     RMS[dD(SAO)]   TOL
   7  -246.79206704074    -741.37126048     288.31963599    0.195D-04 0.189D-13
          Norm of current diis error: 0.73978E-02
          max. resid. norm for Fia-block=  6.005D-04 for orbital     21a         
          max. resid. fock norm         =  6.005D-04 for orbital     21a         
          Delta Eig. =     0.0749106359 eV 
 
                                              current damping :  0.050
 ITERATION  ENERGY          1e-ENERGY        2e-ENERGY     RMS[dD(SAO)]   TOL
   8  -246.79207080890    -741.37081386     288.31918560    0.803D-05 0.176D-13
          Norm of current diis error: 0.37026E-02
          max. resid. norm for Fia-block=  3.956D-04 for orbital     21a         
          max. resid. fock norm         =  3.956D-04 for orbital     21a         
          Delta Eig. =     0.0205773374 eV 
 
                                              current damping :  0.050
 ITERATION  ENERGY          1e-ENERGY        2e-ENERGY     RMS[dD(SAO)]   TOL
   9  -246.79207223457    -741.37054690     288.31891722    0.384D-05 0.160D-13
          Norm of current diis error: 0.18913E-02
          max. resid. norm for Fia-block=  2.615D-04 for orbital     20a         
          max. resid. fock norm         =  2.654D-04 for orbital     20a         
          Delta Eig. =     0.0033278222 eV 
 
                                              current damping :  0.100
 ITERATION  ENERGY          1e-ENERGY        2e-ENERGY     RMS[dD(SAO)]   TOL
  10  -246.79207268854    -741.37085144     288.31922130    0.242D-05 0.147D-13
          Norm of current diis error: 0.82318E-03
          max. resid. norm for Fia-block=  1.198D-04 for orbital     21a         
          max. resid. fock norm         =  1.198D-04 for orbital     21a         
 mo-orthogonalization: Cholesky decomposition
          Delta Eig. =     0.0052225749 eV 
 
                                              current damping :  0.150
 ITERATION  ENERGY          1e-ENERGY        2e-ENERGY     RMS[dD(SAO)]   TOL
  11  -246.79207276024    -741.37069893     288.31906872    0.120D-05 0.140D-13
          Norm of current diis error: 0.36069E-03
          max. resid. norm for Fia-block=  5.036D-05 for orbital     20a         
          max. resid. fock norm         =  5.454D-05 for orbital     20a         
          Delta Eig. =     0.0017677445 eV 
 
                                              current damping :  0.200
 ITERATION  ENERGY          1e-ENERGY        2e-ENERGY     RMS[dD(SAO)]   TOL
  12  -246.79207277039    -741.37081320     288.31918297    0.389D-06 0.137D-13
          Norm of current diis error: 0.12338E-03
          max. resid. norm for Fia-block=  1.516D-05 for orbital     20a         
          max. resid. fock norm         =  1.525D-05 for orbital     20a         
          Delta Eig. =     0.0004921238 eV 
 
                                              current damping :  0.250
 ITERATION  ENERGY          1e-ENERGY        2e-ENERGY     RMS[dD(SAO)]   TOL
  13  -246.79207277176    -741.37080617     288.31917594    0.213D-06 0.134D-13
          Norm of current diis error: 0.44201E-04
          max. resid. norm for Fia-block=  6.442D-06 for orbital     20a         
          max. resid. fock norm         =  6.483D-06 for orbital     20a         
          Delta Eig. =     0.0000695569 eV 

 DENSITY CONVERGED !

 
                                              current damping :  0.300
 ITERATION  ENERGY          1e-ENERGY        2e-ENERGY     RMS[dD(SAO)]   TOL
  14  -246.79207277195    -741.37080812     288.31917790    0.839D-07 0.160D-13
          Norm of current diis error: 0.19090E-04
          max. resid. norm for Fia-block=  2.631D-06 for orbital     19a         
          max. resid. fock norm         =  2.783D-06 for orbital     19a         
          Delta Eig. =     0.0000304635 eV 

 ENERGY & DENSITY CONVERGED !

 
                                              current damping :  0.150
 ITERATION  ENERGY          1e-ENERGY        2e-ENERGY     RMS[dD(SAO)]   TOL
  15  -246.79207277199    -741.37080890     288.31917868    0.349D-07 0.160D-13
          max. resid. norm for Fia-block=  6.176D-07 for orbital     19a         
          max. resid. fock norm         =  6.711D-07 for orbital     19a         

 convergence criteria satisfied after    15 iterations


                  ------------------------------------------ 
                 |  total energy      =   -246.79207277199  |
                  ------------------------------------------ 
                 :  kinetic energy    =    246.45109388030  :
                 :  potential energy  =   -493.24316665228  :
                 :  virial theorem    =      1.99861835557  :
                 :  wavefunction norm =      1.00000000000  :
                  .......................................... 


 orbitals $scfmo  will be written to file mos

    irrep                 17a         18a         19a         20a         21a   
 eigenvalues H         -0.54106    -0.51963    -0.41968    -0.38392    -0.34768
            eV         -14.7232    -14.1401    -11.4202    -10.4471     -9.4609
 occupation              2.0000      2.0000      2.0000      2.0000      2.0000 

    irrep                 22a         23a         24a         25a         26a   
 eigenvalues H          0.10190     0.11740     0.11853     0.13430     0.14502
            eV           2.7729      3.1945      3.2253      3.6544      3.9462
 
 
 
 
 ==============================================================================
                           electrostatic moments
 ==============================================================================

 reference point for electrostatic moments:    0.00000   0.00000   0.00000

 
              nuc           elec       ->  total
 ------------------------------------------------------------------------------
                          charge      
 ------------------------------------------------------------------------------
          42.000000     -42.000000       0.000000
 
 ------------------------------------------------------------------------------
                       dipole moment  
 ------------------------------------------------------------------------------
   x     -77.825972      78.734895       0.908923
   y      20.203357     -20.143682       0.059675
   z     285.636036    -285.590063       0.045973
 
   | dipole moment | =     0.9120 a.u. =     2.3182 debye 
 
 ------------------------------------------------------------------------------
                     quadrupole moment
 ------------------------------------------------------------------------------
  xx     320.919578    -351.351626     -30.432048
  yy     181.236802    -203.293663     -22.056861
  zz    1951.261804   -1979.090473     -27.828669
  xy     -39.282196      39.196560      -0.085636
  xz    -522.434565     528.496351       6.061786
  yz     175.342024    -173.439304       1.902719
 
     1/3  trace=     -26.772526
     anisotropy=      13.275403
 
 ==============================================================================
 


    ------------------------------------------------------------------------
         total  cpu-time :  1 hours 20 minutes and 52 seconds
         total wall-time :  7 minutes and  3 seconds
    ------------------------------------------------------------------------

   ****  dscf : all done  ****


    2019-04-01 22:14:55.331 

