 this is node-proc. number 0 running on node c-3-37.gp.local
 the total number of node-proc. spawned is  33

 dscfserver (c-3-37.gp.local) : TURBOMOLE V7.2 ( 21471 ) 7 Nov 2017 at 16:15:16
 Copyright (C) 2017 TURBOMOLE GmbH, Karlsruhe


    2018-02-20 00:51:43.805 

 
    0:02:10 ---- Start global counter...
    1:11:52 ---- ... finished.
 
    1:13:46 ---- Start global counter...
    2:18:02 ---- ... finished.
 
    2:19:55 ---- Start global counter...
    3:21:55 ---- ... finished.
 
    3:23:48 ---- Start global counter...
    4:20:46 ---- ... finished.
 
    4:22:40 ---- Start global counter...
    5:15:28 ---- ... finished.
 
    5:18:00 ---- Start global counter...
    6:04:35 ---- ... finished.
 
    6:06:32 ---- Start global counter...
    6:47:54 ---- ... finished.
 
    6:49:50 ---- Start global counter...
    7:27:40 ---- ... finished.
 
    7:29:39 ---- Start global counter...
    8:03:46 ---- ... finished.
 
    8:05:45 ---- Start global counter...
    8:36:27 ---- ... finished.
 
    8:39:02 ---- Start global counter...
    9:06:28 ---- ... finished.
 
    9:08:28 ---- Start global counter...
    9:32:10 ---- ... finished.
 
    9:34:08 ---- Start global counter...
    9:54:25 ---- ... finished.
 
    9:56:22 ---- Start global counter...
   10:13:47 ---- ... finished.
 
   10:15:49 ---- Start global counter...
   10:30:41 ---- ... finished.
 
   10:33:18 ---- Start global counter...
   10:53:10 ---- ... finished.
 
   10:55:12 ---- Start global counter...
   11:13:41 ---- ... finished.
 
   11:15:16 ---- ByeBye Tag received


 ! Total wall-clock time in seconds  :    40516.4
 ! Time (sec) spent in global counter:    38303.8
 ! So-called SERIAL wall-clock time  :     2212.7

  *** Regular termination of server ***
 total turnaround time of dscfserver 40517.63 sec
 cpu elapsed by dscfserver process   38297.26 sec 

   ***  dscf server : all done  ***


    2018-02-20 12:07:01.431 

