STARTING ridft ON 32 PROCESSORS!
RUNNING PROGRAM /sopt/TURBOMOLE/7.3-official/bin/em64t-unknown-linux-gnu_smp/ridft_mpi.
           SMPCPUS    set: Shared-memory Parallelization with  32 CPUs.

           SMP Parallelization Reference:
           C. van Wullen, J. Comput. Chem. 32 (2011) 1195--1201
 operating system is UNIX !

 ridft (c-15-34) : TURBOMOLE V7.3 ( 22118 ) 1 Jul 2018 at 20:38:15
 Copyright (C) 2018 TURBOMOLE GmbH, Karlsruhe


    2019-03-12 12:39:47.606 



                                  r i d f t

                        DFT program with RI approximation 
                                for coulomb part 




                                                 
                                 References:     
                                                 
          TURBOMOLE:                             
              R. Ahlrichs, M. Baer, M. Haeser, H. Horn, and
              C. Koelmel
              Electronic structure calculations on workstation
              computers: the program system TURBOMOLE
              Chem. Phys. Lett. 162: 165 (1989)
          Density Functional:                              
              O. Treutler and R. Ahlrichs                      
              Efficient Molecular Numerical Integration Schemes
              J. Chem. Phys. 102: 346 (1995)                   
          Parallel Version:                                
              Performance of parallel TURBOMOLE for Density    
              Functional Calculations                          
              M. v. Arnim and R. Ahlrichs                      
              J. Comp. Chem. 19: 1746 (1998)                   
          RI-J Method:                                     
              Auxiliary Basis Sets to approximate Coulomb      
              Potentials                                       
              Chem. Phys. Lett. 240: 283 (1995)                
              K. Eichkorn, O. Treutler, H. Oehm, M. Haeser     
              and R. Ahlrichs                                  
              Chem. Phys. Lett. 242: 652 (1995)                
                                                           
              Auxiliary Basis Sets for Main Row Atoms and their
              Use to approximate Coulomb Potentials            
              K. Eichkorn, F. Weigend, O. Treutler and         
              R. Ahlrichs                                      
              Theo. Chem. Acc. 97: 119 (1997)                   
                                                           
              Accurate Coulomb-fitting basis sets for H to Rn 
              F. Weigend                                        
              Phys. Chem. Chem. Phys. 8: 1057 (2006)            
                                                           
          Multipole accelerated RI-J (MARI-J):             
              Fast evaluation of the Coulomb potential for     
              electron densities using multipole accelerated   
              resolution of identity approximation             
              M. Sierka, A. Hogekamp and R. Ahlrichs           
              J. Chem. Phys. 118: 9136 (2003)                  
          RI-JK Method:                                     
              A fully direct RI-HF algorithm: Implementation,
              optimised auxiliary basis sets, demonstration of
              accuracy and efficiency                         
              F. Weigend                                      
              Phys. Chem. Chem. Phys. 4: 4285 (2002)           
          Two-component HF and DFT with spin-orbit coupling:  
              Self-consistent treatment of spin-orbit         
              interactions with efficient Hartree-Fock and    
              density functional methods                      
              M. K. Armbruster, F. Weigend, C. van Wüllen and 
              W. Klopper                                      
              Phys. Chem. Chem. Phys. 10: 1748 (2008)         
          Two-component difference density and DIIS algorithm 
              Efficient two-component self-consistent field   
              procedures and gradients: implementation in     
              TURBOMOLE and application to Au20-              
              A. Baldes, F. Weigend                           
              Mol. Phys. 111: 2617 (2013)                     
          Relativistic all-electron 2c calculations           
              An efficient implementation of two-component    
              relativistic exact-decoupling methods for large 
              molecules                                       
              D. Peng, N. Middendorf, F. Weigend, M. Reiher   
              J. Chem. Phys. 138: 184105 (2013)               
          Finite nucleus model and SNSO approximation         
              Efficient implementation of one- and two-       
              component analytical energy gradients in exact  
              two-component theory                            
              Y. J. Franzke, N. Middendorf, F. Weigend        
              J. Chem. Phys. 148: 104110 (2018)               
                                         




              +--------------------------------------------------+
              |      general information about current run       |
              +--------------------------------------------------+

 
 PBE functional
 exchange:    LDA + PBE
 correlation: LDA (PW) + PBE
 A DFT calculation using the RI-J approximation will be carried out.
 Allocatable memory for RI due to $ricore (MB):                  8000


              +--------------------------------------------------+
              | Atomic coordinate, charge and isotop information |
              +--------------------------------------------------+

                    atomic coordinates            atom    charge  isotop
         -1.32564843   -0.54920676    4.54835234    c      6.000     0
         -2.23610529    0.74766593    5.85602360    h      1.000     0
          0.66057564   -0.05729947    4.36117240    h      1.000     0
         -1.50054999   -2.44078057    5.33666085    h      1.000     0
         -2.73735570   -0.46274978    2.06323190    c      6.000     0
         -5.02752190   -0.80970813    1.95463023    o      8.000     0
         -1.26622340    0.01118067    0.01847569    n      7.000     0
          0.61732689    0.23161231    0.26757169    h      1.000     0
         -2.31879709    0.16968557   -2.49437716    c      6.000     0
         -4.33129813   -0.20125807   -2.34491876    h      1.000     0
         -2.03675002    2.04079141   -3.30426842    h      1.000     0
         -1.46761515   -1.22454100   -3.74803129    h      1.000     0
          3.85839541   -4.44406511    1.29710351    c      6.000     0
          4.91328741   -6.16372200    0.90799378    h      1.000     0
          2.10342214   -4.45640398    0.23068302    h      1.000     0
          3.36854263   -4.39975727    3.29443254    h      1.000     0
          5.30901711   -2.07356990    0.66170816    c      6.000     0
          4.27876367    0.00784402    0.55404594    o      8.000     0
          7.81622678   -2.39258168    0.25778303    n      7.000     0
          8.52737097   -4.14482211    0.40283336    h      1.000     0
          9.49286396   -0.30166402   -0.28825056    c      6.000     0
          8.33220857    1.38172250   -0.43909552    h      1.000     0
         10.86747825   -0.03811198    1.21862330    h      1.000     0
         10.48495184   -0.60398567   -2.06297238    h      1.000     0
 
       center of nuclear mass  :    1.81852207   -1.07867425    0.84533953
       center of nuclear charge:    1.89792069   -1.10478787    0.83383172

              +--------------------------------------------------+
              |               basis set information              |
              +--------------------------------------------------+

              we will work with the 1s 3p 5d 7f 9g ... basis set
              ...i.e. with spherical basis functions...

   type   atoms  prim   cont   basis
   ---------------------------------------------------------------------------
    c        6     77     57   def2-QZVP   [7s4p3d2f1g|15s8p3d2f1g]
    h       14     33     30   def2-QZVP   [4s3p2d1f|7s3p2d1f]
    o        2     77     57   def2-QZVP   [7s4p3d2f1g|15s8p3d2f1g]
    n        2     77     57   def2-QZVP   [7s4p3d2f1g|15s8p3d2f1g]
   ---------------------------------------------------------------------------
   total:   24   1232    990
   ---------------------------------------------------------------------------

   total number of primitive shells          :  100
   total number of contracted shells         :  310
   total number of cartesian basis functions : 1210
   total number of SCF-basis functions       :  990


 integral neglect threshold       :  0.28E-11
 integral storage threshold THIZE :  0.10E-04
 integral storage threshold THIME :         5

 RI-J AUXILIARY BASIS SET information:

              we will work with the 1s 3p 5d 7f 9g ... basis set
              ...i.e. with spherical basis functions...

   type   atoms  prim   cont   basis
   ---------------------------------------------------------------------------
    c        6     70     49   def2-QZVP   [6s4p3d1f1g|12s5p4d2f1g]
    h       14     16     11   def2-QZVP   [3s1p1d|5s2p1d]
    o        2     70     49   def2-QZVP   [6s4p3d1f1g|12s5p4d2f1g]
    n        2     70     49   def2-QZVP   [6s4p3d1f1g|12s5p4d2f1g]
   ---------------------------------------------------------------------------
   total:   24    924    644
   ---------------------------------------------------------------------------

   total number of primitive shells          :   80
   total number of contracted shells         :  220
   total number of cartesian basis functions :  778
   total number of SCF-basis functions       :  644


 symmetry group of the molecule :   c1 

 the group has the following generators :
   c1(z)

    1 symmetry operations found

 there are 1 real representations :   a   

 maximum number of shells which are related by symmetry :  1


    mo occupation :
   irrep   mo's   occupied
    a      990       40
 
 number of basis functions   :                    990
 number of occupied orbitals :                     40
 
  
           ------------------
           density functional
           ------------------
 PBE functional
 exchange:    LDA + PBE
 correlation: LDA (PW) + PBE

 iterations will be done with small grid
  
 spherical integration : Lebedev's spherical grid
 spherical gridsize    :                     4
    i.e. gridpoints    :                   434
 value for diffuse not defined
 radial integration    : Chebyshev 2nd kind (scaling 3)
 radial gridsize       :                     6
 integration cells     :                    24
 partition function    : becke
 partition sharpness   :                     3
  

 biggest AO integral is expected to be     6.990327543
  
           ------------------------
               RI-J - INFORMATION
           ------------------------
 Contributions to RI integral batches: 
  neglected integral batches:                 15641
  direct contribution:                            0
  memory contribution:                 32564
 Memory core needed for (P|Q) and Cholesky      4 MByte
 Memory core minimum needed except of (P|Q)     4 MByte
 Total minimum memory core needed (sum)         8 MByte
  
 ****************************************
 Memory allocated for RI-J  2797 MByte
 ****************************************
                                            

          ------------------------
          nuclear repulsion energy  :   540.422436869    
          ------------------------

   .------------------------------.
   |            DFT-D4            |
   |          ==========          |
   |  E. Caldeweyher,  S. Grimme  |
   |   University of Bonn, MCTC   |
   |     02/2018, Version 1.0     |
   '------------------------------'
  This code comes without any warranty

 Cite this work as:
   E. Caldeweyher, C. Bannwarth, and S. Grimme,
   J. Chem. Phys., 2017, 147, 034112.
   E. Caldeweyher, S. Ehlert, and S. Grimme,
   J. Chem. Phys., in preparation.

 Contributions:
   P. Shushkov - GBSA(H2O)
   S. Ehlert   - MBD, DFA fit

number of atoms            :    24
number of electrons        :    60
charge                     :  0
spin                       : 0.0
 Found param_gfn2.xtb file !
========================================================================
    G F N  parametrization, version 3
   Geometries Frequencies Non-covalent interactions
 /sopt/TURBOMOLE/7.3-official/parameter/param_gfn2.xtb
========================================================================
 method parameters:
------------------------------------------------------------------------
k(s)        :               1.8500
k(p)        :               2.2300
k(d)        :               2.2300
k(f)        :               2.0000
kEN (H0ij)  :              -2.0000
D3 a1       :               0.5200
D3 a2       :               5.0000
D3 s8       :               2.7000
D3atm       :               5.0000
alphaj      :               2.0000
AESdamp     :               4.0000
AESrad      :               3.0000
expscalexp  :               5.0000
------------------------------------------------------------------------
------------------------------------------------------------------------
 xTB basis
------------------------------------------------------------------------
  Z AO/shell   Hii/eV     exponent
  1     Wed Apr 25 08:07:45 CEST 2018   EN: 2.200 GM2: 0.406  GM3: 0.0800  RAES: 1.40
     1s    -10.707211    1.230000
  6     Wed Apr 25 08:07:45 CEST 2018   EN: 2.550 GM2: 0.538  GM3: 0.1500  RAES: 3.00
     2s    -13.970922    2.096432
     2p    -10.063292    1.800000
  7     Wed Apr 25 08:07:45 CEST 2018   EN: 3.040 GM2: 0.461  GM3:-0.0640  RAES: 1.90
     2s    -16.686243    2.339881
     2p    -12.523956    2.014332
  8     Wed Apr 25 08:07:45 CEST 2018   EN: 3.440 GM2: 0.452  GM3:-0.0517  RAES: 1.80
     2s    -20.229985    2.439742
     2p    -15.503117    2.137023
------------------------------------------------------------------------
 DFT-D4 reference setup
------------------------------------------------------------------------
 C      q(ref)        CN(ref)   cov. CN(ref)  alpha(AIM,ref)
     0.0000000      0.0000000      0.0000000     12.3555336
    -0.1299310      0.9367838      0.9179641     12.6203061
    -0.0788263      1.9884028      1.9096951      9.3103249
    -0.0767301      2.9881158      2.8401678      8.8356702
    -0.0945886      3.9165802      3.7567914      6.6924619
    -0.0285648      3.3673832      3.0308559      8.9184424
     0.0506204      0.9979550      0.8555886      7.7402501
 H      q(ref)        CN(ref)   cov. CN(ref)  alpha(AIM,ref)
     0.0000000      0.0000000      0.0000000      5.0540161
     0.0000000      0.8115055      0.8943405      2.7207580
 O      q(ref)        CN(ref)   cov. CN(ref)  alpha(AIM,ref)
     0.0000000      0.0000000      0.0000000      5.1967092
    -0.3306800      0.9547795      0.8033980      6.0646315
    -0.5637321      1.9239773      1.6098510      6.6505011
     0.0000000      0.9835639      0.9794547      5.1987934
 N      q(ref)        CN(ref)   cov. CN(ref)  alpha(AIM,ref)
     0.0000000      0.0000000      0.0000000      7.5385089
    -0.1797353      0.9622367      0.8575417      8.1244983
    -0.1525504      2.0397432      1.8555113      7.4399298
    -0.4289141      2.9186070      2.5786982      8.2914891
     0.0000000      0.9992288      0.9808497      5.8062716
 no old-style atom pair restraing (fixing) potential
------------------------------------------------------------------------
 SCC calculation
------------------------------------------------------------------------

------------------------------------------------------------------------
 Dispersion Energy Calculation
 * damping parameters for pbe-D4
 s6       :    1.0000
 s8       :    0.9516
 a1       :    0.4044
 a2       :    4.6501
========================================================================
 Edisp  /kcal,au:   -12.1369  -0.01934130
------------------------------------------------------------------------
 E(2)   /kcal,au:   -12.2032  -0.01944697
 Emany  /kcal,au:     0.0663   0.00010567
 Eresp  /kcal,au:     0.0000   0.00000000
========================================================================
 nuclear repulsion energy                  =     540.422436869
 empirical dispersive energy correction    =      -0.019341302
 nuclear repulsion + dispersion correction =     540.403095567


         -----------------
         -S,T+V- integrals
         -----------------

 1e-integrals will be neglected if expon. factor < 0.276195E-12
 Difference densities >>NOT<< switched on in parallel ridft!

 DIIS switched on: error vector is FDS-SDF
 Max. Iterations for DIIS is     :   4
 DIIS matrix (see manual) 
    Scaling factor of diagonals  :  1.200
    threshold for scaling factor :  0.000

 scf convergence criterion : increment of total energy < .1000000D-06
                  and increment of one-electron energy < .1000000D-03

  MOs are in ASCII format !


 automatic virtual orbital shift switched on 
      shift if e(lumo)-e(homo) < 0.10000000    


 reading orbital data $scfmo  from file mos
 orbital characterization : expanded
 mo provided and orthogonalized by Cholesky decomposition

 DSCF restart information will be dumped onto file mos


 Starting SCF iterations

          Overall gridpoints after grid construction =         60339

 ITERATION  ENERGY          1e-ENERGY        2e-ENERGY     NORM[dD(SAO)]  TOL
   1  -494.46804250188    -1735.5557666     700.68462853    0.000D+00 0.275D-11
                            Exc = -67.3932578291     Coul =  768.077886355    
                              N = 80.000072833    
                            current damping = 0.700
 
          max. resid. norm for Fia-block=  8.015D-01 for orbital     11a         
          max. resid. fock norm         =  5.663D+01 for orbital    825a         

 ITERATION  ENERGY          1e-ENERGY        2e-ENERGY     NORM[dD(SAO)]  TOL
   2  -496.34189506336    -1743.0806983     706.33570770    0.000D+00 0.275D-11
                            Exc = -67.7244463955     Coul =  774.060154093    
                              N = 80.000031893    
                            current damping = 0.650
 
          Norm of current diis error:  3.8010    
          max. resid. norm for Fia-block=  1.613D-01 for orbital      2a         
          max. resid. fock norm         =  2.976D-01 for orbital    511a         

 ITERATION  ENERGY          1e-ENERGY        2e-ENERGY     NORM[dD(SAO)]  TOL
   3  -496.60537015421    -1746.1050391     709.09657343    0.000D+00 0.275D-11
                            Exc = -68.1482833264     Coul =  777.244856753    
                              N = 80.000039281    
                            current damping = 0.550
 
          Norm of current diis error:  1.8248    
          max. resid. norm for Fia-block=  6.476D-02 for orbital      2a         
          max. resid. fock norm         =  6.860D-02 for orbital      2a         

 ITERATION  ENERGY          1e-ENERGY        2e-ENERGY     NORM[dD(SAO)]  TOL
   4  -496.68800706797    -1745.9648276     708.87372497    0.000D+00 0.275D-11
                            Exc = -68.0965892367     Coul =  776.970314203    
                              N = 80.000013430    
                            current damping = 0.600
 
          Norm of current diis error: 0.80645    
          max. resid. norm for Fia-block=  3.406D-02 for orbital     11a         
          max. resid. fock norm         =  7.599D-02 for orbital    950a         

 ITERATION  ENERGY          1e-ENERGY        2e-ENERGY     NORM[dD(SAO)]  TOL
   5  -496.70135215644    -1747.0384156     709.93396789    0.000D+00 0.275D-11
                            Exc = -68.2630307578     Coul =  778.196998649    
                              N = 80.000031018    
                            current damping = 0.650
 
          Norm of current diis error: 0.45082    
          max. resid. norm for Fia-block=  1.048D-02 for orbital     40a         
          max. resid. fock norm         =  1.371D-02 for orbital    914a         
          mo-orthogonalization: Cholesky decomposition

 ITERATION  ENERGY          1e-ENERGY        2e-ENERGY     NORM[dD(SAO)]  TOL
   6  -496.70710713691    -1747.1259784     710.01577570    0.000D+00 0.275D-11
                            Exc = -68.2634377117     Coul =  778.279213410    
                              N = 80.000024789    
                            current damping = 0.500
 
          Norm of current diis error: 0.13098    
          max. resid. norm for Fia-block=  4.627D-03 for orbital     39a         
          max. resid. fock norm         =  6.118D-03 for orbital     39a         

 ITERATION  ENERGY          1e-ENERGY        2e-ENERGY     NORM[dD(SAO)]  TOL
   7  -496.70758085012    -1746.9321165     709.82144011    0.000D+00 0.275D-11
                            Exc = -68.2437499768     Coul =  778.065190084    
                              N = 80.000024956    
                            current damping = 0.550
 
          Norm of current diis error: 0.67097E-01
          max. resid. norm for Fia-block=  1.840D-03 for orbital     11a         
          max. resid. fock norm         =  3.060D-03 for orbital    934a         

 ITERATION  ENERGY          1e-ENERGY        2e-ENERGY     NORM[dD(SAO)]  TOL
   8  -496.70767989919    -1747.0164612     709.90568569    0.000D+00 0.275D-11
                            Exc = -68.2536337163     Coul =  778.159319402    
                              N = 80.000025117    
                            current damping = 0.600
 
          Norm of current diis error: 0.16409E-01
          max. resid. norm for Fia-block=  1.019D-03 for orbital     12a         
          max. resid. fock norm         =  1.828D-03 for orbital    942a         

 ITERATION  ENERGY          1e-ENERGY        2e-ENERGY     NORM[dD(SAO)]  TOL
   9  -496.70767840123    -1747.0446530     709.93387903    0.000D+00 0.275D-11
                            Exc = -68.2581203976     Coul =  778.191999424    
                              N = 80.000024937    
                            current damping = 0.650
 
          Norm of current diis error: 0.18330E-01
          max. resid. norm for Fia-block=  4.032D-04 for orbital     40a         
          max. resid. fock norm         =  6.202D-04 for orbital    979a         

 ITERATION  ENERGY          1e-ENERGY        2e-ENERGY     NORM[dD(SAO)]  TOL
  10  -496.70768689790    -1747.0486894     709.93790698    0.000D+00 0.275D-11
                            Exc = -68.2579164197     Coul =  778.195823397    
                              N = 80.000025017    
                            current damping = 0.500
 
          Norm of current diis error: 0.66438E-02
          max. resid. norm for Fia-block=  2.011D-04 for orbital     40a         
          max. resid. fock norm         =  3.494D-04 for orbital    979a         
          mo-orthogonalization: Cholesky decomposition

 ITERATION  ENERGY          1e-ENERGY        2e-ENERGY     NORM[dD(SAO)]  TOL
  11  -496.70768803859    -1747.0407315     709.92994789    0.000D+00 0.275D-11
                            Exc = -68.2570503016     Coul =  778.186998193    
                              N = 80.000025142    
                            current damping = 0.550
 
          Norm of current diis error: 0.23239E-02
          max. resid. norm for Fia-block=  9.047D-05 for orbital     37a         
          max. resid. fock norm         =  1.173D-04 for orbital     37a         

 ENERGY CONVERGED !

          Overall gridpoints after grid construction =        223992

 ITERATION  ENERGY          1e-ENERGY        2e-ENERGY     NORM[dD(SAO)]  TOL
  12  -496.70752523785    -1747.0406874     709.93006662    0.000D+00 0.275D-11
                            Exc = -68.2567646786     Coul =  778.186831303    
                              N = 80.000019158    
                            current damping = 0.600
 
          Norm of current diis error: 0.17617E-02
          max. resid. norm for Fia-block=  3.686D-05 for orbital     40a         
          max. resid. fock norm         =  6.190D-05 for orbital    942a         

 End of SCF iterations

   convergence criteria satisfied after    12 iterations


                  ------------------------------------------ 
                 |  total energy      =   -496.70752523785  |
                  ------------------------------------------ 
                 :  kinetic energy    =    494.80236611287  :
                 :  potential energy  =   -991.50989135072  :
                 :  virial theorem    =      1.99616442468  :
                 :  wavefunction norm =      1.00000000000  :
                  .......................................... 


 <geterg> : there is no data group $energy 


 <skperg> : $end is missing 


 orbitals $scfmo  will be written to file mos

    irrep                 36a         37a         38a         39a         40a   
 eigenvalues H         -0.29381    -0.24523    -0.23537    -0.20020    -0.18757
            eV          -7.9949     -6.6731     -6.4047     -5.4478     -5.1040
 occupation              2.0000      2.0000      2.0000      2.0000      2.0000 

    irrep                 41a         42a         43a         44a         45a   
 eigenvalues H         -0.03458    -0.02651     0.00440     0.00896     0.01209
            eV          -0.9410     -0.7213      0.1196      0.2437      0.3290
 
 
 
 
 ==============================================================================
                           electrostatic moments
 ==============================================================================

 reference point for electrostatic moments:    0.00000   0.00000   0.00000

 
              nuc           elec       ->  total
 ------------------------------------------------------------------------------
                          charge      
 ------------------------------------------------------------------------------
          80.000000     -80.000000      -0.000000
 
 ------------------------------------------------------------------------------
                       dipole moment  
 ------------------------------------------------------------------------------
   x     151.833655    -148.875836       2.957819
   y     -88.383030      87.482045      -0.900985
   z      66.706538     -67.075518      -0.368980
 
   | dipole moment | =     3.1139 a.u. =     7.9148 debye 
 
 ------------------------------------------------------------------------------
                     quadrupole moment
 ------------------------------------------------------------------------------
  xx    2117.656732   -2157.496610     -39.839878
  yy     302.369319    -344.314513     -41.945194
  zz     363.862463    -409.183716     -45.321253
  xy    -359.127449     350.223893      -8.903556
  xz     -34.617407      38.269453       3.652047
  yz    -115.209084     114.473112      -0.735972
 
     1/3  trace=     -42.368775
     anisotropy=      17.389510
 
 ==============================================================================
 


    ------------------------------------------------------------------------
         total  cpu-time :  6 minutes and 28 seconds
         total wall-time :  1 minutes and 46 seconds
    ------------------------------------------------------------------------

   ****  ridft : all done  ****


    2019-03-12 12:41:33.417 

