           Doing BLAS/Lapack in the master proc. with  8 CPUs.
           SMPCPUS    set: Shared-memory Parallelization with   8 CPUs.

           SMP Parallelization Reference:
           C. van Wullen, J. Comput. Chem. 32 (2011) 1195--1201
 operating system is UNIX !

 ridft (c-18-311.gp.local) : TURBOMOLE V7.2 ( 21454 ) 4 Oct 2017 at 12:48:15
 Copyright (C) 2017 TURBOMOLE GmbH, Karlsruhe


    2018-04-28 20:56:44.691 



                                  r i d f t

                        DFT program with RI approximation 
                                for coulomb part 




                                                 
                                 References:     
                                                 
          TURBOMOLE:                             
              R. Ahlrichs, M. Baer, M. Haeser, H. Horn, and
              C. Koelmel
              Electronic structure calculations on workstation
              computers: the program system TURBOMOLE
              Chem. Phys. Lett. 162: 165 (1989)
          Density Functional:                              
              O. Treutler and R. Ahlrichs                      
              Efficient Molecular Numerical Integration Schemes
              J. Chem. Phys. 102: 346 (1995)                   
          Parallel Version:                                
              Performance of parallel TURBOMOLE for Density    
              Functional Calculations                          
              M. v. Arnim and R. Ahlrichs                      
              J. Comp. Chem. 19: 1746 (1998)                   
          RI-J Method:                                     
              Auxiliary Basis Sets to approximate Coulomb      
              Potentials                                       
              Chem. Phys. Lett. 240: 283 (1995)                
              K. Eichkorn, O. Treutler, H. Oehm, M. Haeser     
              and R. Ahlrichs                                  
              Chem. Phys. Lett. 242: 652 (1995)                
                                                           
              Auxiliary Basis Sets for Main Row Atoms and their
              Use to approximate Coulomb Potentials            
              K. Eichkorn, F. Weigend, O. Treutler and         
              R. Ahlrichs                                      
              Theo. Chem. Acc. 97: 119 (1997)                   
                                                           
              Accurate Coulomb-fitting basis sets for H to Rn 
              F. Weigend                                        
              Phys. Chem. Chem. Phys. 8: 1057 (2006)            
                                                           
          Multipole accelerated RI-J (MARI-J):             
              Fast evaluation of the Coulomb potential for     
              electron densities using multipole accelerated   
              resolution of identity approximation             
              M. Sierka, A. Hogekamp and R. Ahlrichs           
              J. Chem. Phys. 118: 9136 (2003)                  
          RI-JK Method:                                     
              A fully direct RI-HF algorithm: Implementation,
              optimised auxiliary basis sets, demonstration of
              accuracy and efficiency                         
              F. Weigend                                      
              Phys. Chem. Chem. Phys. 4: 4285 (2002)           
          Two-component HF and DFT with spin-orbit coupling:  
              Self-consistent treatment of spin-orbit         
              interactions with efficient Hartree-Fock and    
              density functional methods                      
              M. K. Armbruster, F. Weigend, C. van Wüllen and 
              W. Klopper                                      
              Phys. Chem. Chem. Phys. 10: 1748 (2008)         
          Relativistic all-electron 2c calculations           
              An efficient implementation of two-component    
              relativistic exact-decoupling methods for large 
              molecules                                       
              D. Peng, N. Middendorf, F. Weigend, M. Reiher   
              J. Chem. Phys. 138, 184105 (2013)               
                                         




              +--------------------------------------------------+
              |      general information about current run       |
              +--------------------------------------------------+

 

 DENSITY CONVERGENCE CHECK SWITCHED ON !
 SCF CONVERGENCE IF RMS(delta[D]) <     0.1000000000E-06

 PBE functional
 exchange:    LDA + PBE
 correlation: LDA (PW) + PBE
 A DFT calculation using the RI-J approximation will be carried out.
 Allocatable memory for RI due to $ricore (MB):                  5000


              +--------------------------------------------------+
              | Atomic coordinate, charge and isotop information |
              +--------------------------------------------------+

                    atomic coordinates            atom    charge  isotop
          1.25931421    0.34735203    0.79318765    c      6.000     0
          2.32225010   -0.62338855    2.24170598    h      1.000     0
          2.32065089    1.31753242   -0.65688750    h      1.000     0
         -1.25850767    0.34576967    0.79295159    c      6.000     0
         -2.32043575   -0.62644213    2.24141049    h      1.000     0
         -2.32093191    1.31457995   -0.65714864    h      1.000     0
 
       center of nuclear mass  :    0.00040040    0.34641851    0.79295471
       center of nuclear charge:    0.00039829    0.34631324    0.79286974

              +--------------------------------------------------+
              |               basis set information              |
              +--------------------------------------------------+

              we will work with the 1s 3p 5d 7f 9g ... basis set
              ...i.e. with spherical basis functions...

   type   atoms  prim   cont   basis
   ---------------------------------------------------------------------------
    c        2     50     30   cc-pVTZ   [4s3p2d1f|18s5p2d1f]
    h        4     16     14   cc-pVTZ   [3s2p1d|5s2p1d]
   ---------------------------------------------------------------------------
   total:    6    164    116
   ---------------------------------------------------------------------------

   total number of primitive shells          :   34
   total number of contracted shells         :   44
   total number of cartesian basis functions :  130
   total number of SCF-basis functions       :  116


 integral neglect threshold       :  0.26E-12
 integral storage threshold THIZE :  0.10E-04
 integral storage threshold THIME :         5

 RI-J AUXILIARY BASIS SET information:

              we will work with the 1s 3p 5d 7f 9g ... basis set
              ...i.e. with spherical basis functions...

   type   atoms  prim   cont   basis
   ---------------------------------------------------------------------------
    c        2     70     49   cc-pVTZ   [6s4p3d1f1g|12s5p4d2f1g]
    h        4     16     11   cc-pVTZ   [3s1p1d|5s2p1d]
   ---------------------------------------------------------------------------
   total:    6    204    142
   ---------------------------------------------------------------------------

   total number of primitive shells          :   32
   total number of contracted shells         :   50
   total number of cartesian basis functions :  170
   total number of SCF-basis functions       :  142


 symmetry group of the molecule :   c1 

 the group has the following generators :
   c1(z)

    1 symmetry operations found

 there are 1 real representations :   a   

 maximum number of shells which are related by symmetry :  1


    mo occupation :
   irrep   mo's   occupied
    a      116        8
 
 number of basis functions   :                    116
 number of occupied orbitals :                      8
 
  
           ------------------
           density functional
           ------------------
 PBE functional
 exchange:    LDA + PBE
 correlation: LDA (PW) + PBE

 iterations will be done with small grid
  
 spherical integration : Lebedev's spherical grid
 spherical gridsize    :                     5
    i.e. gridpoints    :                   590
 value for diffuse not defined
 radial integration    : Chebyshev 2nd kind (scaling 3)
 radial gridsize       :                     8
 integration cells     :                     6
 partition function    : becke
 partition sharpness   :                     3
  

 biggest AO integral is expected to be     3.593180334
  
           ------------------------
               RI-J - INFORMATION
           ------------------------
 Contributions to RI integral batches: 
  neglected integral batches:                     0
  direct contribution:                            0
  memory contribution:                   990
 Memory core needed for (P|Q) and Cholesky      1 MByte
 Memory core minimum needed except of (P|Q)     1 MByte
 Total minimum memory core needed (sum)         1 MByte
  
 ****************************************
 Memory allocated for RI-J    12 MByte
 ****************************************
                                            

          ------------------------
          nuclear repulsion energy  :   33.4255656549    
          ------------------------


         -----------------
         -S,T+V- integrals
         -----------------

 1e-integrals will be neglected if expon. factor < 0.257074E-13
 Difference densities >>NOT<< switched on in parallel ridft!

 DIIS switched on: error vector is FDS-SDF
 Max. Iterations for DIIS is     :   4
 DIIS matrix (see manual) 
    Scaling factor of diagonals  :  1.200
    threshold for scaling factor :  0.000

 scf convergence criterion : increment of total energy < .1000000D-08
                  and increment of one-electron energy < .1000000D-05

  MOs are in ASCII format !


 automatic virtual orbital shift switched on 
      shift if e(lumo)-e(homo) < 0.10000000    


 reading orbital data $scfmo  from file mos
 orbital characterization : expanded
 mo provided and orthogonalized by Cholesky decomposition

 DSCF restart information will be dumped onto file mos


 Starting SCF iterations

          Overall gridpoints after grid construction =         27124

 ITERATION  ENERGY          1e-ENERGY        2e-ENERGY     RMS[dD(SAO)]   TOL
   1  -78.198027490479    -167.14342853     55.519835387    0.000D+00 0.256D-12
                            Exc = -11.7279507857     Coul =  67.2477861730    
                              N = 15.999994062    
                            current damping = 0.700
 
          max. resid. norm for Fia-block=  2.401D-01 for orbital      3a         
          max. resid. fock norm         =  4.413D+00 for orbital    109a         

 ITERATION  ENERGY          1e-ENERGY        2e-ENERGY     RMS[dD(SAO)]   TOL
   2  -78.436089955870    -169.37376052     57.512104906    0.349D-02 0.256D-12
                            Exc = -12.0013356706     Coul =  69.5134405771    
                              N = 15.999993907    
                            current damping = 0.650
 
          Norm of current diis error:  1.1402    
          max. resid. norm for Fia-block=  1.066D-01 for orbital      1a         
          max. resid. fock norm         =  1.179D-01 for orbital      3a         

 ITERATION  ENERGY          1e-ENERGY        2e-ENERGY     RMS[dD(SAO)]   TOL
   3  -78.483271140345    -169.87274783     57.963911036    0.207D-02 0.256D-12
                            Exc = -12.0867652145     Coul =  70.0506762509    
                              N = 15.999993987    
                            current damping = 0.500
 
          Norm of current diis error: 0.53952    
          max. resid. norm for Fia-block=  4.410D-02 for orbital      3a         
          max. resid. fock norm         =  5.082D-02 for orbital      3a         

 ITERATION  ENERGY          1e-ENERGY        2e-ENERGY     RMS[dD(SAO)]   TOL
   4  -78.497153532649    -170.30285140     58.380132212    0.128D-02 0.256D-12
                            Exc = -12.1510074711     Coul =  70.5311396831    
                              N = 15.999994226    
                            current damping = 0.350
 
          Norm of current diis error: 0.18383    
          max. resid. norm for Fia-block=  1.575D-02 for orbital      3a         
          max. resid. fock norm         =  1.792D-02 for orbital      3a         

 ITERATION  ENERGY          1e-ENERGY        2e-ENERGY     RMS[dD(SAO)]   TOL
   5  -78.499174601267    -170.40635426     58.481614004    0.608D-03 0.256D-12
                            Exc = -12.1705723635     Coul =  70.6521863677    
                              N = 15.999994370    
                            current damping = 0.200
 
          Norm of current diis error: 0.53803E-01
          max. resid. norm for Fia-block=  4.191D-03 for orbital      3a         
          max. resid. fock norm         =  4.782D-03 for orbital      3a         
          mo-orthogonalization: Cholesky decomposition

 ITERATION  ENERGY          1e-ENERGY        2e-ENERGY     RMS[dD(SAO)]   TOL
   6  -78.499360892930    -170.47642264     58.551496094    0.215D-03 0.256D-12
                            Exc = -12.1801920027     Coul =  70.7316880963    
                              N = 15.999994431    
                            current damping = 0.050
 
          Norm of current diis error: 0.11047E-01
          max. resid. norm for Fia-block=  9.578D-04 for orbital      8a         
          max. resid. fock norm         =  1.389D-03 for orbital     26a         

 ITERATION  ENERGY          1e-ENERGY        2e-ENERGY     RMS[dD(SAO)]   TOL
   7  -78.499365066482    -170.45553485     58.530604129    0.487D-04 0.256D-12
                            Exc = -12.1786408584     Coul =  70.7092449873    
                              N = 15.999994439    
                            current damping = 0.100
 
          Norm of current diis error: 0.81599E-02
          max. resid. norm for Fia-block=  3.478D-04 for orbital      5a         
          max. resid. fock norm         =  4.439D-04 for orbital      6a         

 ITERATION  ENERGY          1e-ENERGY        2e-ENERGY     RMS[dD(SAO)]   TOL
   8  -78.499367629189    -170.46831615     58.543382868    0.170D-04 0.256D-12
                            Exc = -12.1799181170     Coul =  70.7233009853    
                              N = 15.999994442    
                            current damping = 0.150
 
          Norm of current diis error: 0.15502E-03
          max. resid. norm for Fia-block=  9.989D-06 for orbital      8a         
          max. resid. fock norm         =  1.144D-05 for orbital     17a         

 ITERATION  ENERGY          1e-ENERGY        2e-ENERGY     RMS[dD(SAO)]   TOL
   9  -78.499367630118    -170.46805990     58.543126619    0.393D-06 0.256D-12
                            Exc = -12.1798894337     Coul =  70.7230160524    
                              N = 15.999994442    
                            current damping = 0.200
 
          Norm of current diis error: 0.53145E-04
          max. resid. norm for Fia-block=  4.294D-06 for orbital      8a         
          max. resid. fock norm         =  9.021D-06 for orbital      2a         

 ITERATION  ENERGY          1e-ENERGY        2e-ENERGY     RMS[dD(SAO)]   TOL
  10  -78.499367630077    -170.46806368     58.543130397    0.204D-06 0.256D-12
                            Exc = -12.1798903530     Coul =  70.7230207495    
                              N = 15.999994442    
                            current damping = 0.250
 
          Norm of current diis error: 0.62687E-04
          max. resid. norm for Fia-block=  1.795D-06 for orbital      8a         
          max. resid. fock norm         =  3.755D-06 for orbital      2a         
          mo-orthogonalization: Cholesky decomposition

 DENSITY CONVERGED !


 ITERATION  ENERGY          1e-ENERGY        2e-ENERGY     RMS[dD(SAO)]   TOL
  11  -78.499367630224    -170.46807585     58.543142560    0.825D-07 0.256D-12
                            Exc = -12.1798919533     Coul =  70.7230345135    
                              N = 15.999994442    
                            current damping = 0.100
 
          Norm of current diis error: 0.17105E-04
          max. resid. norm for Fia-block=  6.599D-07 for orbital      8a         
          max. resid. fock norm         =  1.376D-06 for orbital      1a         

 ENERGY & DENSITY CONVERGED !

          Overall gridpoints after grid construction =         91151

 ITERATION  ENERGY          1e-ENERGY        2e-ENERGY     RMS[dD(SAO)]   TOL
  12  -78.499369366220    -170.46807641     58.543141393    0.336D-07 0.256D-12
                            Exc = -12.1798936606     Coul =  70.7230350540    
                              N = 15.999999969    
                            current damping = 0.150
 
          Norm of current diis error: 0.20732E-05
          max. resid. norm for Fia-block=  8.769D-08 for orbital      8a         
          max. resid. fock norm         =  1.539D-07 for orbital      1a         

 End of SCF iterations

   convergence criteria satisfied after    12 iterations


                  ------------------------------------------ 
                 |  total energy      =    -78.49936936622  |
                  ------------------------------------------ 
                 :  kinetic energy    =     77.99776971634  :
                 :  potential energy  =   -156.49713908256  :
                 :  virial theorem    =      1.99361014421  :
                 :  wavefunction norm =      1.00000000000  :
                  .......................................... 


 <geterg> : there is no data group $energy 


 <skperg> : $end is missing 


 orbitals $scfmo  will be written to file mos

    irrep                  4a          5a          6a          7a          8a   
 eigenvalues H         -0.52262    -0.42203    -0.37173    -0.31303    -0.24605
            eV         -14.2212    -11.4842    -10.1155     -8.5179     -6.6953
 occupation              2.0000      2.0000      2.0000      2.0000      2.0000 

    irrep                  9a         10a         11a         12a         13a   
 eigenvalues H         -0.03331     0.03991     0.06636     0.06966     0.13479
            eV          -0.9064      1.0859      1.8057      1.8957      3.6678
 
 
 
 
 ==============================================================================
                           electrostatic moments
 ==============================================================================

 reference point for electrostatic moments:    0.00000   0.00000   0.00000

 
              nuc           elec       ->  total
 ------------------------------------------------------------------------------
                          charge      
 ------------------------------------------------------------------------------
          16.000000     -16.000000      -0.000000
 
 ------------------------------------------------------------------------------
                       dipole moment  
 ------------------------------------------------------------------------------
   x       0.006373      -0.006369       0.000004
   y       5.541012      -5.541596      -0.000585
   z      12.685916     -12.686337      -0.000421
 
   | dipole moment | =     0.0007 a.u. =     0.0018 debye 
 
 ------------------------------------------------------------------------------
                     quadrupole moment
 ------------------------------------------------------------------------------
  xx      40.567696     -49.788693      -9.220997
  yy       5.686316     -16.473272     -10.786957
  zz      18.460025     -28.366532      -9.906507
  xy       0.026066      -0.025069       0.000997
  xz       0.011165      -0.010315       0.000849
  yz      -1.232749       0.162988      -1.069762
 
     1/3  trace=      -9.971487
     anisotropy=       2.298227
 
 ==============================================================================
 


    ------------------------------------------------------------------------
         total  cpu-time :  17.62 seconds
         total wall-time :   1.72 seconds
    ------------------------------------------------------------------------

   ****  ridft : all done  ****


    2018-04-28 20:56:46.399 

