
   OpenMP run-time library returned nthreads = 28
 operating system is UNIX !

 dscf (c-13-37) : TURBOMOLE V7.3 ( 22142 ) 4 Jul 2018 at 18:12:42
 Copyright (C) 2018 TURBOMOLE GmbH, Karlsruhe


    2019-04-01 21:43:34.742 



                             d s c f - program

                   idea & directorship : reinhart ahlrichs
                   program development : marco haeser
                                         michael baer
                           dft version : oliver treutler


                          quantum chemistry group
                          universitaet  karlsruhe
                                  germany




                          References             
                                                 
          TURBOMOLE:                             
              R. Ahlrichs, M. Baer, M. Haeser, H. Horn, and
              C. Koelmel
              Electronic structure calculations on workstation
              computers: the program system TURBOMOLE
              Chem. Phys. Lett. 162: 165 (1989)
          Density Functional:                              
              O. Treutler and R. Ahlrichs                      
              Efficient Molecular Numerical Integration Schemes
              J. Chem. Phys. 102: 346 (1995)                   
          Parallel Version:                                
              Performance of parallel TURBOMOLE for Density    
              Functional Calculations                          
              M. v. Arnim and R. Ahlrichs                      
              J. Comp. Chem. 19: 1746 (1998)                   
                                         




              +--------------------------------------------------+
              | Atomic coordinate, charge and isotop information |
              +--------------------------------------------------+

                    atomic coordinates            atom    charge  isotop
         -1.36873741   -1.33213565    4.31588478    c      0.000     0
          0.63365972   -1.19042022    3.87995234    h      0.000     0
         -1.79844605   -3.23519151    4.96176218    h      0.000     0
         -1.83233107   -0.04172430    5.84636928    h      0.000     0
         -3.05178489   -0.73213518    2.08638798    c      0.000     0
         -5.36176507   -0.78427808    2.25658391    o      0.000     0
         -1.80170339   -0.14438344   -0.07713824    n      0.000     0
          0.10168352   -0.14280001   -0.06923998    h      0.000     0
         -3.13340021    0.47260838   -2.37832061    c      0.000     0
         -5.14075800    0.33437653   -1.97788696    h      0.000     0
         -2.70288461    2.38665349   -3.00106244    h      0.000     0
         -2.65624839   -0.83967180   -3.89015920    h      0.000     0
          3.97367278   -0.11037319   -0.29305247    o      8.000     0
          5.04132512   -1.45766972   -0.86979576    h      1.000     0
          5.06924457    1.33374336   -0.24789086    h      1.000     0
 
       center of nuclear mass  :   -1.55291118   -0.42069004    0.91466919
       center of nuclear charge:    4.18999519   -0.10069118   -0.34621063

              +--------------------------------------------------+
              |               basis set information              |
              +--------------------------------------------------+

              we will work with the 1s 3p 5d 7f 9g ... basis set
              ...i.e. with spherical basis functions...

   type   atoms  prim   cont   basis
   ---------------------------------------------------------------------------
    c        3     50     30   cc-pVTZ   [4s3p2d1f|18s5p2d1f]
    h        9     16     14   cc-pVTZ   [3s2p1d|5s2p1d]
    o        2     50     30   cc-pVTZ   [4s3p2d1f|18s5p2d1f]
    n        1     50     30   cc-pVTZ   [4s3p2d1f|18s5p2d1f]
   ---------------------------------------------------------------------------
   total:   15    444    306
   ---------------------------------------------------------------------------

   total number of primitive shells          :   86
   total number of contracted shells         :  114
   total number of cartesian basis functions :  345
   total number of SCF-basis functions       :  306


 integral neglect threshold       :  0.97E-13
 integral storage threshold THIZE :  0.10E-04
 integral storage threshold THIME :         5


 DENSITY CONVERGENCE CHECK SWITCHED ON !
 SCF CONVERGENCE IF RMS(delta[D]) <     0.1000000000E-06


 symmetry group of the molecule :   c1 

 the group has the following generators :
   c1(z)

    1 symmetry operations found

 there are 1 real representations :   a   

 maximum number of shells which are related by symmetry :  1


    mo occupation :
   irrep   mo's   occupied
    a      306        5
 
 number of basis functions   :                    306
 number of occupied orbitals :                      5
 

 automatic virtual orbital shift switched on 
      shift if e(lumo)-e(homo) < 0.10000000    


          ------------------------
          nuclear repulsion energy  :   9.17374715928    
          ------------------------


         -----------------
         -S,T+V- integrals
         -----------------

 1e-integrals will be neglected if expon. factor < 0.968684E-14
 
   Difference densities algorithm switched on.
   The maximal number of linear combinations of
   difference densities is                    20 .

 DIIS switched on: error vector is FDS-SDF
 Max. Iterations for DIIS is     :   5
 DIIS matrix (see manual) 
    Scaling factor of diagonals  :  1.200
    threshold for scaling factor :  0.000

 scf convergence criterion : increment of total energy < .1000000D-08
                  and increment of one-electron energy < .1000000D-05

  MOs are in ASCII format !


 reading orbital data $scfmo  from file mos
 orbital characterization : scfconv=9

 DSCF restart information will be dumped onto file mos

 
                                              current damping :  0.700
 ITERATION  ENERGY          1e-ENERGY        2e-ENERGY     RMS[dD(SAO)]   TOL
   1  -76.049806456674    -123.02915810     37.805604482    0.000D+00 0.966D-13
          max. resid. norm for Fia-block=  1.034D-01 for orbital      1a         
          max. resid. fock norm         =  3.089D-01 for orbital    250a         
          Delta Eig. =    28.7357665304 eV 
 
                                              current damping :  0.650
 ITERATION  ENERGY          1e-ENERGY        2e-ENERGY     RMS[dD(SAO)]   TOL
   2  -76.056713009904    -123.02508794     37.794627771    0.486D-03 0.613D-13
          Norm of current diis error: 0.16049    
          max. resid. norm for Fia-block=  4.944D-02 for orbital      1a         
          max. resid. fock norm         =  1.171D-01 for orbital    256a         
          Delta Eig. =    12.5422529819 eV 
 
                                              current damping :  0.600
 ITERATION  ENERGY          1e-ENERGY        2e-ENERGY     RMS[dD(SAO)]   TOL
   3  -76.057986125318    -123.04740049     37.815667208    0.234D-03 0.466D-13
          Norm of current diis error: 0.66370E-01
          max. resid. norm for Fia-block=  2.008D-02 for orbital      1a         
          max. resid. fock norm         =  5.180D-02 for orbital    258a         
          Delta Eig. =     5.0198107369 eV 
 
                                              current damping :  0.650
 ITERATION  ENERGY          1e-ENERGY        2e-ENERGY     RMS[dD(SAO)]   TOL
   4  -76.058203408396    -123.04616931     37.814218741    0.987D-04 0.401D-13
          Norm of current diis error: 0.25315E-01
          max. resid. norm for Fia-block=  7.702D-03 for orbital      1a         
          max. resid. fock norm         =  1.942D-02 for orbital    262a         
          Delta Eig. =     1.8499751192 eV 
 
                                              current damping :  0.700
 ITERATION  ENERGY          1e-ENERGY        2e-ENERGY     RMS[dD(SAO)]   TOL
   5  -76.058235617508    -123.04866223     37.816679451    0.395D-04 0.372D-13
          Norm of current diis error: 0.10459E-01
          max. resid. norm for Fia-block=  3.030D-03 for orbital      1a         
          max. resid. fock norm         =  7.677D-03 for orbital    264a         
 mo-orthogonalization: Cholesky decomposition
          Delta Eig. =     0.7009662414 eV 
 
                                              current damping :  0.550
 ITERATION  ENERGY          1e-ENERGY        2e-ENERGY     RMS[dD(SAO)]   TOL
   6  -76.058241124018    -123.04908311     37.817094828    0.162D-04 0.348D-13
          Norm of current diis error: 0.45255E-02
          max. resid. norm for Fia-block=  1.246D-03 for orbital      1a         
          max. resid. fock norm         =  3.221D-03 for orbital    264a         
          Delta Eig. =     0.3164117506 eV 
 
                                              current damping :  0.400
 ITERATION  ENERGY          1e-ENERGY        2e-ENERGY     RMS[dD(SAO)]   TOL
   7  -76.058242272195    -123.04934102     37.817351586    0.807D-05 0.322D-13
          Norm of current diis error: 0.17638E-02
          max. resid. norm for Fia-block=  4.417D-04 for orbital      1a         
          max. resid. fock norm         =  1.153D-03 for orbital    264a         
          Delta Eig. =     0.1242848665 eV 
 
                                              current damping :  0.250
 ITERATION  ENERGY          1e-ENERGY        2e-ENERGY     RMS[dD(SAO)]   TOL
   8  -76.058242474652    -123.04947228     37.817482643    0.366D-05 0.295D-13
          Norm of current diis error: 0.61669E-03
          max. resid. norm for Fia-block=  1.421D-04 for orbital      3a         
          max. resid. fock norm         =  3.351D-04 for orbital    264a         
          Delta Eig. =     0.0395122310 eV 
 
                                              current damping :  0.100
 ITERATION  ENERGY          1e-ENERGY        2e-ENERGY     RMS[dD(SAO)]   TOL
   9  -76.058242505216    -123.04950192     37.817512256    0.147D-05 0.270D-13
          Norm of current diis error: 0.19557E-03
          max. resid. norm for Fia-block=  4.682D-05 for orbital      3a         
          max. resid. fock norm         =  6.767D-05 for orbital    264a         
          Delta Eig. =     0.0089969093 eV 
 
                                              current damping :  0.050
 ITERATION  ENERGY          1e-ENERGY        2e-ENERGY     RMS[dD(SAO)]   TOL
  10  -76.058242509253    -123.04951691     37.817527244    0.518D-06 0.251D-13
          Norm of current diis error: 0.55813E-04
          max. resid. norm for Fia-block=  1.471D-05 for orbital      3a         
          max. resid. fock norm         =  1.471D-05 for orbital      3a         
 mo-orthogonalization: Cholesky decomposition
          Delta Eig. =     0.0007833193 eV 
 
                                              current damping :  0.100
 ITERATION  ENERGY          1e-ENERGY        2e-ENERGY     RMS[dD(SAO)]   TOL
  11  -76.058242509635    -123.04951274     37.817523073    0.136D-06 0.238D-13
          Norm of current diis error: 0.12608E-04
          max. resid. norm for Fia-block=  3.249D-06 for orbital      3a         
          max. resid. fock norm         =  3.249D-06 for orbital      3a         
          Delta Eig. =     0.0000649804 eV 

 DENSITY CONVERGED !

 
                                              current damping :  0.150
 ITERATION  ENERGY          1e-ENERGY        2e-ENERGY     RMS[dD(SAO)]   TOL
  12  -76.058242509656    -123.04951564     37.817525974    0.269D-07 0.276D-13
          Norm of current diis error: 0.29702E-05
          max. resid. norm for Fia-block=  8.747D-07 for orbital      3a         
          max. resid. fock norm         =  8.747D-07 for orbital      3a         
          Delta Eig. =     0.0000165504 eV 

 ENERGY & DENSITY CONVERGED !

 
                                              current damping :  0.200
 ITERATION  ENERGY          1e-ENERGY        2e-ENERGY     RMS[dD(SAO)]   TOL
  13  -76.058242509657    -123.04951352     37.817523848    0.507D-08 0.276D-13
          max. resid. norm for Fia-block=  1.562D-07 for orbital      4a         
          max. resid. fock norm         =  1.565D-07 for orbital      4a         

 convergence criteria satisfied after    13 iterations


                  ------------------------------------------ 
                 |  total energy      =    -76.05824250966  |
                  ------------------------------------------ 
                 :  kinetic energy    =     75.97962348923  :
                 :  potential energy  =   -152.03786599889  :
                 :  virial theorem    =      1.99896633136  :
                 :  wavefunction norm =      1.00000000000  :
                  .......................................... 


 orbitals $scfmo  will be written to file mos

    irrep                  1a          2a          3a          4a          5a   
 eigenvalues H        -20.56025    -1.34803    -0.71109    -0.58042    -0.50744
            eV        -559.4773    -36.6820    -19.3500    -15.7941    -13.8084
 occupation              2.0000      2.0000      2.0000      2.0000      2.0000 

    irrep                  6a          7a          8a          9a         10a   
 eigenvalues H          0.08145     0.11428     0.13698     0.18417     0.18708
            eV           2.2164      3.1099      3.7275      5.0116      5.0906
 
 
 
 
 ==============================================================================
                           electrostatic moments
 ==============================================================================

 reference point for electrostatic moments:    0.00000   0.00000   0.00000

 
              nuc           elec       ->  total
 ------------------------------------------------------------------------------
                          charge      
 ------------------------------------------------------------------------------
          10.000000     -10.000000       0.000000
 
 ------------------------------------------------------------------------------
                       dipole moment  
 ------------------------------------------------------------------------------
   x      41.899952     -41.105769       0.794183
   y      -1.006912       1.043757       0.036845
   z      -3.462106       3.262946      -0.199160
 
   | dipole moment | =     0.8196 a.u. =     2.0832 debye 
 
 ------------------------------------------------------------------------------
                     quadrupole moment
 ------------------------------------------------------------------------------
  xx     177.432803    -175.407397       2.025406
  yy       4.001130      -7.247736      -3.246606
  zz       1.505033      -6.691710      -5.186677
  xy      -4.096211       4.229838       0.133626
  xz     -14.957499      13.648849      -1.308650
  yz       1.196013      -0.696910       0.499103
 
     1/3  trace=      -2.135959
     anisotropy=       6.908302
 
 ==============================================================================
 


    ------------------------------------------------------------------------
         total  cpu-time :  8 minutes and 50 seconds
         total wall-time :  35.06 seconds
    ------------------------------------------------------------------------

   ****  dscf : all done  ****


    2019-04-01 21:44:09.749 

