
 eiger (gplogin1.local) : TURBOMOLE V7.2 ( 21285 ) 30 Jun 2017 at 11:51:10
 Copyright (C) 2017 TURBOMOLE GmbH, Karlsruhe


    2017-11-10 01:13:20.379 

                                                                                
  
 HOMO-LUMO Separation
   HOMO:    85.    85 a     -0.11227284 H =     -3.05510 eV
   LUMO:    86.    86 a     -0.09097153 H =     -2.47546 eV
   Gap :                    +0.02130131 H =     +0.57964 eV
 
Number of MOs=   1744, Electrons=    170.00, Symmetry: c1   
 
   Nr.   Orbital    Occupation       Energy
  102.   102 a                     +0.045270 H =        +1.232 eV
  101.   101 a                     +0.040846 H =        +1.111 eV
  100.   100 a                     +0.036952 H =        +1.006 eV
   99.    99 a                     +0.023663 H =        +0.644 eV
   98.    98 a                     +0.020306 H =        +0.553 eV
   97.    97 a                     +0.013990 H =        +0.381 eV
   96.    96 a                     +0.004441 H =        +0.121 eV
   95.    95 a                     +0.001264 H =        +0.034 eV
   94.    94 a                     -0.007301 H =        -0.199 eV
   93.    93 a                     -0.022788 H =        -0.620 eV
   92.    92 a                     -0.032199 H =        -0.876 eV
   91.    91 a                     -0.033694 H =        -0.917 eV
   90.    90 a                     -0.041626 H =        -1.133 eV
   89.    89 a                     -0.048766 H =        -1.327 eV
   88.    88 a                     -0.057926 H =        -1.576 eV
   87.    87 a                     -0.082877 H =        -2.255 eV
   86.    86 a                     -0.090972 H =        -2.475 eV
   85.    85 a        2.000        -0.112273 H =        -3.055 eV
   84.    84 a        2.000        -0.113000 H =        -3.075 eV
   83.    83 a        2.000        -0.116599 H =        -3.173 eV
   82.    82 a        2.000        -0.216076 H =        -5.880 eV
   81.    81 a        2.000        -0.226188 H =        -6.155 eV
   80.    80 a        2.000        -0.229106 H =        -6.234 eV
   79.    79 a        2.000        -0.229609 H =        -6.248 eV
   78.    78 a        2.000        -0.268138 H =        -7.296 eV
   77.    77 a        2.000        -0.281124 H =        -7.650 eV
   76.    76 a        2.000        -0.294302 H =        -8.008 eV
   75.    75 a        2.000        -0.298343 H =        -8.118 eV
   74.    74 a        2.000        -0.306906 H =        -8.351 eV
   73.    73 a        2.000        -0.317712 H =        -8.645 eV
   72.    72 a        2.000        -0.335688 H =        -9.135 eV
   71.    71 a        2.000        -0.335842 H =        -9.139 eV
   70.    70 a        2.000        -0.337534 H =        -9.185 eV


    ------------------------------------------------------------------------
         total  cpu-time :   2.17 seconds
         total wall-time :   2.27 seconds
    ------------------------------------------------------------------------

   ****  eiger : all done  ****


    2017-11-10 01:13:22.634 

