           Doing BLAS/Lapack in the master proc. with  8 CPUs.
           SMPCPUS    set: Shared-memory Parallelization with   8 CPUs.

           SMP Parallelization Reference:
           C. van Wullen, J. Comput. Chem. 32 (2011) 1195--1201
 operating system is UNIX !

 ridft (c-13-10.gp.local) : TURBOMOLE V7.2 ( 21454 ) 4 Oct 2017 at 12:48:15
 Copyright (C) 2017 TURBOMOLE GmbH, Karlsruhe


    2018-04-28 21:02:19.076 



                                  r i d f t

                        DFT program with RI approximation 
                                for coulomb part 




                                                 
                                 References:     
                                                 
          TURBOMOLE:                             
              R. Ahlrichs, M. Baer, M. Haeser, H. Horn, and
              C. Koelmel
              Electronic structure calculations on workstation
              computers: the program system TURBOMOLE
              Chem. Phys. Lett. 162: 165 (1989)
          Density Functional:                              
              O. Treutler and R. Ahlrichs                      
              Efficient Molecular Numerical Integration Schemes
              J. Chem. Phys. 102: 346 (1995)                   
          Parallel Version:                                
              Performance of parallel TURBOMOLE for Density    
              Functional Calculations                          
              M. v. Arnim and R. Ahlrichs                      
              J. Comp. Chem. 19: 1746 (1998)                   
          RI-J Method:                                     
              Auxiliary Basis Sets to approximate Coulomb      
              Potentials                                       
              Chem. Phys. Lett. 240: 283 (1995)                
              K. Eichkorn, O. Treutler, H. Oehm, M. Haeser     
              and R. Ahlrichs                                  
              Chem. Phys. Lett. 242: 652 (1995)                
                                                           
              Auxiliary Basis Sets for Main Row Atoms and their
              Use to approximate Coulomb Potentials            
              K. Eichkorn, F. Weigend, O. Treutler and         
              R. Ahlrichs                                      
              Theo. Chem. Acc. 97: 119 (1997)                   
                                                           
              Accurate Coulomb-fitting basis sets for H to Rn 
              F. Weigend                                        
              Phys. Chem. Chem. Phys. 8: 1057 (2006)            
                                                           
          Multipole accelerated RI-J (MARI-J):             
              Fast evaluation of the Coulomb potential for     
              electron densities using multipole accelerated   
              resolution of identity approximation             
              M. Sierka, A. Hogekamp and R. Ahlrichs           
              J. Chem. Phys. 118: 9136 (2003)                  
          RI-JK Method:                                     
              A fully direct RI-HF algorithm: Implementation,
              optimised auxiliary basis sets, demonstration of
              accuracy and efficiency                         
              F. Weigend                                      
              Phys. Chem. Chem. Phys. 4: 4285 (2002)           
          Two-component HF and DFT with spin-orbit coupling:  
              Self-consistent treatment of spin-orbit         
              interactions with efficient Hartree-Fock and    
              density functional methods                      
              M. K. Armbruster, F. Weigend, C. van Wüllen and 
              W. Klopper                                      
              Phys. Chem. Chem. Phys. 10: 1748 (2008)         
          Relativistic all-electron 2c calculations           
              An efficient implementation of two-component    
              relativistic exact-decoupling methods for large 
              molecules                                       
              D. Peng, N. Middendorf, F. Weigend, M. Reiher   
              J. Chem. Phys. 138, 184105 (2013)               
                                         




              +--------------------------------------------------+
              |      general information about current run       |
              +--------------------------------------------------+

 

 DENSITY CONVERGENCE CHECK SWITCHED ON !
 SCF CONVERGENCE IF RMS(delta[D]) <     0.1000000000E-06

 TPSS meta-GGA functional
 exchange:    LDA + TPSS
 correlation: LDA (PW) + TPSS
 A DFT calculation using the RI-J approximation will be carried out.
 Allocatable memory for RI due to $ricore (MB):                  5000


              +--------------------------------------------------+
              | Atomic coordinate, charge and isotop information |
              +--------------------------------------------------+

                    atomic coordinates            atom    charge  isotop
          1.23924574   -0.22070202    6.67215383    c      6.000     0
          1.97899939   -2.12388079    6.66371003    h      1.000     0
          2.59053935    1.31009704    6.66364707    h      1.000     0
         -1.23923689    0.22070518    6.67217064    c      6.000     0
         -2.59052704   -1.31009491    6.66367426    h      1.000     0
         -1.97899496    2.12388408    6.66374586    h      1.000     0
 
       center of nuclear mass  :    0.00000439    0.00000155    6.67094524
       center of nuclear charge:    0.00000436    0.00000152    6.67004525

              +--------------------------------------------------+
              |               basis set information              |
              +--------------------------------------------------+

              we will work with the 1s 3p 5d 7f 9g ... basis set
              ...i.e. with spherical basis functions...

   type   atoms  prim   cont   basis
   ---------------------------------------------------------------------------
    c        2     77     55   cc-pVQZ   [5s4p3d2f1g|21s6p3d2f1g]
    h        4     32     30   cc-pVQZ   [4s3p2d1f|6s3p2d1f]
   ---------------------------------------------------------------------------
   total:    6    282    230
   ---------------------------------------------------------------------------

   total number of primitive shells          :   45
   total number of contracted shells         :   70
   total number of cartesian basis functions :  280
   total number of SCF-basis functions       :  230


 integral neglect threshold       :  0.12E-12
 integral storage threshold THIZE :  0.10E-04
 integral storage threshold THIME :         5

 RI-J AUXILIARY BASIS SET information:

              we will work with the 1s 3p 5d 7f 9g ... basis set
              ...i.e. with spherical basis functions...

   type   atoms  prim   cont   basis
   ---------------------------------------------------------------------------
    c        2     70     49   cc-pVQZ   [6s4p3d1f1g|12s5p4d2f1g]
    h        4     16     11   cc-pVQZ   [3s1p1d|5s2p1d]
   ---------------------------------------------------------------------------
   total:    6    204    142
   ---------------------------------------------------------------------------

   total number of primitive shells          :   32
   total number of contracted shells         :   50
   total number of cartesian basis functions :  170
   total number of SCF-basis functions       :  142


 symmetry group of the molecule :   c1 

 the group has the following generators :
   c1(z)

    1 symmetry operations found

 there are 1 real representations :   a   

 maximum number of shells which are related by symmetry :  1


    mo occupation :
   irrep   mo's   occupied
    a      230        8
 
 number of basis functions   :                    230
 number of occupied orbitals :                      8
 
  
           ------------------
           density functional
           ------------------
 TPSS meta-GGA functional
 exchange:    LDA + TPSS
 correlation: LDA (PW) + TPSS

 iterations will be done with small grid
  
 spherical integration : Lebedev's spherical grid
 spherical gridsize    :                     5
    i.e. gridpoints    :                   590
 value for diffuse not defined
 radial integration    : Chebyshev 2nd kind (scaling 3)
 radial gridsize       :                     8
 integration cells     :                     6
 partition function    : becke
 partition sharpness   :                     3
  

 biggest AO integral is expected to be     3.537514283
  
           ------------------------
               RI-J - INFORMATION
           ------------------------
 Contributions to RI integral batches: 
  neglected integral batches:                    28
  direct contribution:                            0
  memory contribution:                  2457
 Memory core needed for (P|Q) and Cholesky      1 MByte
 Memory core minimum needed except of (P|Q)     1 MByte
 Total minimum memory core needed (sum)         1 MByte
  
 ****************************************
 Memory allocated for RI-J    52 MByte
 ****************************************
                                            

          ------------------------
          nuclear repulsion energy  :   33.4300030595    
          ------------------------


         -----------------
         -S,T+V- integrals
         -----------------

 1e-integrals will be neglected if expon. factor < 0.119356E-13
 Difference densities >>NOT<< switched on in parallel ridft!

 DIIS switched on: error vector is FDS-SDF
 Max. Iterations for DIIS is     :   4
 DIIS matrix (see manual) 
    Scaling factor of diagonals  :  1.200
    threshold for scaling factor :  0.000

 scf convergence criterion : increment of total energy < .1000000D-08
                  and increment of one-electron energy < .1000000D-05

  MOs are in ASCII format !


 automatic virtual orbital shift switched on 
      shift if e(lumo)-e(homo) < 0.10000000    


 reading orbital data $scfmo  from file mos
 orbital characterization : expanded
 mo provided and orthogonalized by Cholesky decomposition

 DSCF restart information will be dumped onto file mos


 Starting SCF iterations

          Overall gridpoints after grid construction =         27150

 ITERATION  ENERGY          1e-ENERGY        2e-ENERGY     RMS[dD(SAO)]   TOL
   1  -78.325335078332    -167.15191591     55.396577769    0.000D+00 0.119D-12
                            Exc = -11.8453468220     Coul =  67.2419245909    
                              N = 16.000021558    
                            current damping = 0.700
 
          max. resid. norm for Fia-block=  2.610D-01 for orbital      3a         
          max. resid. fock norm         =  7.557D+00 for orbital    216a         

 ITERATION  ENERGY          1e-ENERGY        2e-ENERGY     RMS[dD(SAO)]   TOL
   2  -78.567905546594    -169.36050614     57.362597531    0.335D-02 0.119D-12
                            Exc = -12.1347686758     Coul =  69.4973662065    
                              N = 16.000015850    
                            current damping = 0.650
 
          Norm of current diis error:  1.6411    
          max. resid. norm for Fia-block=  1.094D-01 for orbital      1a         
          max. resid. fock norm         =  1.700D-01 for orbital    224a         

 ITERATION  ENERGY          1e-ENERGY        2e-ENERGY     RMS[dD(SAO)]   TOL
   3  -78.619775495295    -169.89487633     57.845097777    0.168D-02 0.119D-12
                            Exc = -12.2331564075     Coul =  70.0782541844    
                              N = 16.000012626    
                            current damping = 0.500
 
          Norm of current diis error: 0.75423    
          max. resid. norm for Fia-block=  4.738D-02 for orbital      3a         
          max. resid. fock norm         =  5.270D-02 for orbital      3a         

 ITERATION  ENERGY          1e-ENERGY        2e-ENERGY     RMS[dD(SAO)]   TOL
   4  -78.635136018222    -170.31839289     58.253253811    0.884D-03 0.119D-12
                            Exc = -12.3033665098     Coul =  70.5566203208    
                              N = 16.000010868    
                            current damping = 0.350
 
          Norm of current diis error: 0.25898    
          max. resid. norm for Fia-block=  1.684D-02 for orbital      3a         
          max. resid. fock norm         =  1.852D-02 for orbital      3a         

 ITERATION  ENERGY          1e-ENERGY        2e-ENERGY     RMS[dD(SAO)]   TOL
   5  -78.637440395562    -170.42006017     58.352616711    0.359D-03 0.119D-12
                            Exc = -12.3255612184     Coul =  70.6781779299    
                              N = 16.000010373    
                            current damping = 0.200
 
          Norm of current diis error: 0.74324E-01
          max. resid. norm for Fia-block=  4.588D-03 for orbital      4a         
          max. resid. fock norm         =  7.110D-03 for orbital    224a         
          mo-orthogonalization: Cholesky decomposition

 ITERATION  ENERGY          1e-ENERGY        2e-ENERGY     RMS[dD(SAO)]   TOL
   6  -78.637654671378    -170.48629237     58.418634644    0.128D-03 0.119D-12
                            Exc = -12.3356391792     Coul =  70.7542738232    
                              N = 16.000010247    
                            current damping = 0.050
 
          Norm of current diis error: 0.14588E-01
          max. resid. norm for Fia-block=  1.054D-03 for orbital      8a         
          max. resid. fock norm         =  1.666D-03 for orbital    167a         

 ITERATION  ENERGY          1e-ENERGY        2e-ENERGY     RMS[dD(SAO)]   TOL
   7  -78.637659677929    -170.46655020     58.398887461    0.244D-04 0.119D-12
                            Exc = -12.3343591337     Coul =  70.7332465951    
                              N = 16.000010254    
                            current damping = 0.100
 
          Norm of current diis error: 0.10453E-01
          max. resid. norm for Fia-block=  3.690D-04 for orbital      6a         
          max. resid. fock norm         =  6.436D-04 for orbital    224a         

 ITERATION  ENERGY          1e-ENERGY        2e-ENERGY     RMS[dD(SAO)]   TOL
   8  -78.637662182614    -170.47943142     58.411766179    0.847D-05 0.119D-12
                            Exc = -12.3356614000     Coul =  70.7474275793    
                              N = 16.000010245    
                            current damping = 0.150
 
          Norm of current diis error: 0.29415E-03
          max. resid. norm for Fia-block=  1.847D-05 for orbital      8a         
          max. resid. fock norm         =  9.126D-05 for orbital    224a         

 ITERATION  ENERGY          1e-ENERGY        2e-ENERGY     RMS[dD(SAO)]   TOL
   9  -78.637662185181    -170.47907384     58.411408596    0.391D-06 0.119D-12
                            Exc = -12.3356259161     Coul =  70.7470345119    
                              N = 16.000010246    
                            current damping = 0.200
 
          Norm of current diis error: 0.28893E-04
          max. resid. norm for Fia-block=  3.386D-06 for orbital      7a         
          max. resid. fock norm         =  2.038D-05 for orbital    224a         

 DENSITY CONVERGED !


 ITERATION  ENERGY          1e-ENERGY        2e-ENERGY     RMS[dD(SAO)]   TOL
  10  -78.637662185221    -170.47909922     58.411433980    0.731D-07 0.119D-12
                            Exc = -12.3356297275     Coul =  70.7470637076    
                              N = 16.000010246    
                            current damping = 0.250
 
          Norm of current diis error: 0.65993E-05
          max. resid. norm for Fia-block=  8.126D-07 for orbital      7a         
          max. resid. fock norm         =  4.978D-06 for orbital    224a         
          mo-orthogonalization: Cholesky decomposition

 ENERGY & DENSITY CONVERGED !

          Overall gridpoints after grid construction =         91028

 ITERATION  ENERGY          1e-ENERGY        2e-ENERGY     RMS[dD(SAO)]   TOL
  11  -78.637635280005    -170.47909663     58.411458287    0.145D-07 0.119D-12
                            Exc = -12.3356025547     Coul =  70.7470608414    
                              N = 15.999999790    
                            current damping = 0.300
 
          Norm of current diis error: 0.13120E-05
          max. resid. norm for Fia-block=  2.169D-07 for orbital      7a         
          max. resid. fock norm         =  1.332D-06 for orbital    224a         

 End of SCF iterations

   convergence criteria satisfied after    11 iterations


                  ------------------------------------------ 
                 |  total energy      =    -78.63763528000  |
                  ------------------------------------------ 
                 :  kinetic energy    =     78.25908502152  :
                 :  potential energy  =   -156.89672030152  :
                 :  virial theorem    =      1.99518614392  :
                 :  wavefunction norm =      1.00000000000  :
                  .......................................... 


 <geterg> : there is no data group $energy 


 <skperg> : $end is missing 


 orbitals $scfmo  will be written to file mos

    irrep                  4a          5a          6a          7a          8a   
 eigenvalues H         -0.53743    -0.43121    -0.37822    -0.32324    -0.24690
            eV         -14.6243    -11.7340    -10.2920     -8.7958     -6.7186
 occupation              2.0000      2.0000      2.0000      2.0000      2.0000 

    irrep                  9a         10a         11a         12a         13a   
 eigenvalues H         -0.02768     0.03452     0.05961     0.06277     0.11984
            eV          -0.7533      0.9393      1.6220      1.7080      3.2610
 
 
 
 
 ==============================================================================
                           electrostatic moments
 ==============================================================================

 reference point for electrostatic moments:    0.00000   0.00000   0.00000

 
              nuc           elec       ->  total
 ------------------------------------------------------------------------------
                          charge      
 ------------------------------------------------------------------------------
          16.000000     -16.000000       0.000000
 
 ------------------------------------------------------------------------------
                       dipole moment  
 ------------------------------------------------------------------------------
   x       0.000070      -0.000070      -0.000000
   y       0.000024      -0.000025      -0.000000
   z     106.720724    -106.725518      -0.004794
 
   | dipole moment | =     0.0048 a.u. =     0.0122 debye 
 
 ------------------------------------------------------------------------------
                     quadrupole moment
 ------------------------------------------------------------------------------
  xx      39.683213     -48.872351      -9.189138
  yy      13.038977     -22.209063      -9.170086
  zz     711.832274    -723.395669     -11.563395
  xy      -4.900681       4.904141       0.003460
  xz       0.000199      -0.000214      -0.000015
  yz       0.000225      -0.000222       0.000004
 
     1/3  trace=      -9.974206
     anisotropy=       2.383848
 
 ==============================================================================
 


    ------------------------------------------------------------------------
         total  cpu-time :  1 minutes and 45 seconds
         total wall-time :  10.37 seconds
    ------------------------------------------------------------------------

   ****  ridft : all done  ****


    2018-04-28 21:02:29.433 

