STARTING dscf ON 16 PROCESSORS!
RUNNING PROGRAM /sopt/TURBOMOLE/7.2.1-official/bin/em64t-unknown-linux-gnu_mpi/dscf_mpi.
PLEASE WAIT UNTIL dscf HAS FINISHED.
Look for the output in slave1.output.
MACHINEFILE is ./hostlist
 this is node-proc. number 1 running on node c-3-37.gp.local
 the total number of node-proc. spawned is  17
  parallel platform: MPP or cluster with fast interconnect

 dscf (c-3-37.gp.local) : TURBOMOLE V7.2 ( 21471 ) 7 Nov 2017 at 16:15:16
 Copyright (C) 2017 TURBOMOLE GmbH, Karlsruhe


    2018-02-14 23:08:57.002 


 SCF run will be profiled !



                             d s c f - program

                   idea & directorship : reinhart ahlrichs
                   program development : marco haeser
                                         michael baer
                           dft version : oliver treutler
           parallelized version : malte v. arnim, gina corongiu, GMD 


                          quantum chemistry group
                          universitaet  karlsruhe
                                  germany




                          References             
                                                 
          TURBOMOLE:                             
              R. Ahlrichs, M. Baer, M. Haeser, H. Horn, and
              C. Koelmel
              Electronic structure calculations on workstation
              computers: the program system TURBOMOLE
              Chem. Phys. Lett. 162: 165 (1989)
          Density Functional:                              
              O. Treutler and R. Ahlrichs                      
              Efficient Molecular Numerical Integration Schemes
              J. Chem. Phys. 102: 346 (1995)                   
          Parallel Version:                                
              Performance of parallel TURBOMOLE for Density    
              Functional Calculations                          
              M. v. Arnim and R. Ahlrichs                      
              J. Comp. Chem. 19: 1746 (1998)                   
                                         




              +--------------------------------------------------+
              | Atomic coordinate, charge and isotop information |
              +--------------------------------------------------+

                    atomic coordinates            atom    charge  isotop
         -2.28170963    0.00000000   -2.34009961    c      6.000     0
         -2.27274361    0.00000000    0.29854732    c      6.000     0
          0.00000000    0.00000000   -3.67272512    c      6.000     0
          0.00000000    0.00000000    1.65224385    c      6.000     0
          2.28170963    0.00000000   -2.34009961    c      6.000     0
          2.27274361    0.00000000    0.29854732    c      6.000     0
          0.00000000    0.00000000    4.58243267    c      6.000     0
          2.15490929    0.00000000    5.59892366    o      8.000     0
         -2.15490929    0.00000000    5.59892366    o      8.000     0
         -4.06540167    0.00000000   -3.36943437    h      1.000     0
         -4.00977500    0.00000000    1.39631906    h      1.000     0
          0.00000000    0.00000000   -5.73046351    h      1.000     0
          4.06540167    0.00000000   -3.36943437    h      1.000     0
          4.00977500    0.00000000    1.39631906    h      1.000     0
 
       center of nuclear mass  :    0.00000000    0.00000000    1.24783966
       center of nuclear charge:   -0.00000000    0.00000000    1.12347881

              +--------------------------------------------------+
              |               basis set information              |
              +--------------------------------------------------+

              we will work with the 1s 3p 5d 7f 9g ... basis set
              ...i.e. with spherical basis functions...

   type   atoms  prim   cont   basis
   ---------------------------------------------------------------------------
    c        7     77     57   def2-QZVP   [7s4p3d2f1g|15s8p3d2f1g]
    o        2     77     57   def2-QZVP   [7s4p3d2f1g|15s8p3d2f1g]
    h        5     33     30   def2-QZVP   [4s3p2d1f|7s3p2d1f]
   ---------------------------------------------------------------------------
   total:   14    858    663
   ---------------------------------------------------------------------------

   total number of primitive shells          :   71
   total number of contracted shells         :  203
   total number of cartesian basis functions :  823
   total number of SCF-basis functions       :  663


 integral neglect threshold       :  0.41E-13
 integral storage threshold THIZE :  0.10E-04
 integral storage threshold THIME :         5


 DENSITY CONVERGENCE CHECK SWITCHED ON !
 SCF CONVERGENCE IF RMS(delta[D]) <     0.1000000000E-06


 symmetry group of the molecule :   c1 

 the group has the following generators :
   c1(z)

    1 symmetry operations found

 there are 1 real representations :   a   

 maximum number of shells which are related by symmetry :  1


    mo occupation :
   irrep   mo's   occupied
    a      663       32
 
 number of basis functions   :                    663
 number of occupied orbitals :                     32
 

 automatic virtual orbital shift switched on 
      shift if e(lumo)-e(homo) < 0.10000000    


 keyword $2e-ints_shell_statistics missing in file <control>

 ! One task per shell generated
  No pre-computed optimal task distribution found
  ... using automatic task generation

          ------------------------
          nuclear repulsion energy  :   390.759859890    
          ------------------------


         -----------------
         -S,T+V- integrals
         -----------------

 1e-integrals will be neglected if expon. factor < 0.406071E-14
 
   Difference densities algorithm switched on.
   The maximal number of linear combinations of
   difference densities is                    20 .

 DIIS switched on: error vector is FDS-SDF
 Max. Iterations for DIIS is     :   5
 DIIS matrix (see manual) 
    Scaling factor of diagonals  :  1.200
    threshold for scaling factor :  0.000

 scf convergence criterion : increment of total energy < .1000000D-08
                  and increment of one-electron energy < .1000000D-05

  MOs are in ASCII format !


 reading orbital data $scfmo  from file mos
 orbital characterization : scfconv=9

 DSCF restart information will be dumped onto file mos

 
                                              current damping :  0.300
 ITERATION  ENERGY          1e-ENERGY        2e-ENERGY     RMS[dD(SAO)]   TOL
   1  -417.93638053643    -1355.8629663     547.16672585    0.000D+00 0.405D-13
          max. resid. norm for Fia-block=  8.562D-04 for orbital      2a         
          max. resid. fock norm         =  1.438D-02 for orbital    645a         
          Delta Eig. =     6.4557179892 eV 
 
                                              current damping :  0.250
 ITERATION  ENERGY          1e-ENERGY        2e-ENERGY     RMS[dD(SAO)]   TOL
   2  -417.93638146422    -1355.8643191     547.16807771    0.981D-05 0.257D-13
          Norm of current diis error: 0.19939E-02
          max. resid. norm for Fia-block=  2.091D-04 for orbital      2a         
          max. resid. fock norm         =  3.333D-03 for orbital    645a         
          Delta Eig. =     1.5499523809 eV 
 
                                              current damping :  0.200
 ITERATION  ENERGY          1e-ENERGY        2e-ENERGY     RMS[dD(SAO)]   TOL
   3  -417.93638154481    -1355.8637702     547.16752881    0.343D-05 0.202D-13
          Norm of current diis error: 0.49460E-03
          max. resid. norm for Fia-block=  4.242D-05 for orbital      2a         
          max. resid. fock norm         =  6.682D-04 for orbital    645a         
          Delta Eig. =     0.3224498570 eV 
 
                                              current damping :  0.250
 ITERATION  ENERGY          1e-ENERGY        2e-ENERGY     RMS[dD(SAO)]   TOL
   4  -417.93638154995    -1355.8640168     547.16777533    0.893D-06 0.180D-13
          Norm of current diis error: 0.11529E-03
          max. resid. norm for Fia-block=  7.088D-06 for orbital      2a         
          max. resid. fock norm         =  1.110D-04 for orbital    645a         
          Delta Eig. =     0.0519879907 eV 
 
                                              current damping :  0.300
 ITERATION  ENERGY          1e-ENERGY        2e-ENERGY     RMS[dD(SAO)]   TOL
   5  -417.93638155030    -1355.8639781     547.16773671    0.179D-06 0.171D-13
          Norm of current diis error: 0.35083E-04
          max. resid. norm for Fia-block=  2.183D-06 for orbital     29a         
          max. resid. fock norm         =  2.227D-05 for orbital    645a         
 mo-orthogonalization: Cholesky decomposition
          Delta Eig. =     0.0098444947 eV 

 DENSITY CONVERGED !

 
                                              current damping :  0.150
 ITERATION  ENERGY          1e-ENERGY        2e-ENERGY     RMS[dD(SAO)]   TOL
   6  -417.93638155034    -1355.8639746     547.16773318    0.558D-07 0.163D-13
          Norm of current diis error: 0.12157E-04
          max. resid. norm for Fia-block=  8.268D-07 for orbital     29a         
          max. resid. fock norm         =  5.092D-06 for orbital    645a         
          Delta Eig. =     0.0025973991 eV 

 DENSITY CONVERGED !

 
                                              current damping :  0.200
 ITERATION  ENERGY          1e-ENERGY        2e-ENERGY     RMS[dD(SAO)]   TOL
   7  -417.93638155035    -1355.8639803     547.16773890    0.258D-07 0.152D-13
          Norm of current diis error: 0.40836E-05
          max. resid. norm for Fia-block=  3.305D-07 for orbital     29a         
          max. resid. fock norm         =  6.474D-07 for orbital    645a         
          Delta Eig. =     0.0003267194 eV 

 ENERGY & DENSITY CONVERGED !

 
                                              current damping :  0.250
 ITERATION  ENERGY          1e-ENERGY        2e-ENERGY     RMS[dD(SAO)]   TOL
   8  -417.93638155036    -1355.8639791     547.16773764    0.911D-08 0.143D-13
          max. resid. norm for Fia-block=  9.745D-08 for orbital     29a         
          max. resid. fock norm         =  1.458D-07 for orbital    659a         

 convergence criteria satisfied after     8 iterations


                  ------------------------------------------ 
                 |  total energy      =   -417.93638155036  |
                  ------------------------------------------ 
                 :  kinetic energy    =    417.28349584869  :
                 :  potential energy  =   -835.21987739905  :
                 :  virial theorem    =      1.99843783473  :
                 :  wavefunction norm =      1.00000000000  :
                  .......................................... 


 orbitals $scfmo  will be written to file mos

    irrep                 28a         29a         30a         31a         32a   
 eigenvalues H         -0.22657    -0.22119    -0.21266    -0.20153    -0.19719
            eV          -6.1654     -6.0188     -5.7869     -5.4839     -5.3658
 occupation              2.0000      2.0000      2.0000      2.0000      2.0000 

    irrep                 33a         34a         35a         36a         37a   
 eigenvalues H          0.20831     0.22630     0.23555     0.24755     0.24760
            eV           5.6684      6.1581      6.4096      6.7362      6.7376
 
 
 
 
 ==============================================================================
                           electrostatic moments
 ==============================================================================

 reference point for electrostatic moments:    0.00000   0.00000   0.00000

 
              nuc           elec       ->  total
 ------------------------------------------------------------------------------
                          charge      
 ------------------------------------------------------------------------------
          63.000000     -64.000000      -1.000000
 
 ------------------------------------------------------------------------------
                       dipole moment  
 ------------------------------------------------------------------------------
   x       0.000000      -0.000000      -0.000000
   y       0.000000       0.000000       0.000000
   z      70.779165     -75.685185      -4.906020
 
   | dipole moment | =     4.9060 a.u. =    12.4699 debye 
 
 ------------------------------------------------------------------------------
                     quadrupole moment
 ------------------------------------------------------------------------------
  xx     263.968465    -308.936021     -44.967556
  yy       0.000000     -42.977717     -42.977717
  zz     851.098351    -924.609136     -73.510785
  xy       0.000000      -0.000000      -0.000000
  xz       0.000000      -0.000000      -0.000000
  yz       0.000000       0.000000       0.000000
 
     1/3  trace=     -53.818686
     anisotropy=      29.588373
 
 ==============================================================================
 

    dscf profiling
  --------------------------------------------------------------------
             module   cpu total (s)       %  wall total (s)       %

          dscf.total           300.5  100.00           273.6  100.00
        dscf.prepare             0.7    0.24             0.7    0.27
      prepare.oneint             0.0    0.01             0.0    0.01
     prepare.moinput             0.4    0.13             0.4    0.14
     moinput_orthmos             0.2    0.06             0.2    0.07
            dscf.scf           299.6   99.70           272.6   99.65
             scf.pre             0.0    0.00             0.0    0.00
        scf.makedmat             0.2    0.07             0.2    0.08
          scf.shloop           257.4   85.66           257.5   94.12
          shloop_omp           257.4   85.65           257.4   94.11
          scf.symcar             0.0    0.02             0.0    0.02
        scf.makefock             0.1    0.03             0.2    0.07
          scf.newerg             0.0    0.00             0.0    0.00
          scf.newcnv             2.3    0.78             0.3    0.12
           scf.fdiag             9.4    3.13             1.2    0.43
         diag_tritrn             1.8    0.61             0.2    0.08
          diag_rdiag             4.1    1.37             0.5    0.19
          scf.modump            24.0    7.97            11.2    4.09
           ortho_all             1.0    0.33             0.1    0.05
            scf.post             3.5    1.16             1.6    0.58
        dscf.postscf             0.2    0.07             0.2    0.08
 


    ------------------------------------------------------------------------
         total  cpu-time :  5 minutes and  1 seconds
         total wall-time :  4 minutes and 34 seconds
    ------------------------------------------------------------------------

   ****  dscf : all done  ****


    2018-02-14 23:13:30.591 

