           Doing BLAS/Lapack in the master proc. with  8 CPUs.
           SMPCPUS    set: Shared-memory Parallelization with   8 CPUs.

           SMP Parallelization Reference:
           C. van Wullen, J. Comput. Chem. 32 (2011) 1195--1201
 operating system is UNIX !

 ridft (c-18-411.gp.local) : TURBOMOLE V7.2 ( 21454 ) 4 Oct 2017 at 12:48:15
 Copyright (C) 2017 TURBOMOLE GmbH, Karlsruhe


    2018-04-24 21:15:58.528 



                                  r i d f t

                        DFT program with RI approximation 
                                for coulomb part 




                                                 
                                 References:     
                                                 
          TURBOMOLE:                             
              R. Ahlrichs, M. Baer, M. Haeser, H. Horn, and
              C. Koelmel
              Electronic structure calculations on workstation
              computers: the program system TURBOMOLE
              Chem. Phys. Lett. 162: 165 (1989)
          Density Functional:                              
              O. Treutler and R. Ahlrichs                      
              Efficient Molecular Numerical Integration Schemes
              J. Chem. Phys. 102: 346 (1995)                   
          Parallel Version:                                
              Performance of parallel TURBOMOLE for Density    
              Functional Calculations                          
              M. v. Arnim and R. Ahlrichs                      
              J. Comp. Chem. 19: 1746 (1998)                   
          RI-J Method:                                     
              Auxiliary Basis Sets to approximate Coulomb      
              Potentials                                       
              Chem. Phys. Lett. 240: 283 (1995)                
              K. Eichkorn, O. Treutler, H. Oehm, M. Haeser     
              and R. Ahlrichs                                  
              Chem. Phys. Lett. 242: 652 (1995)                
                                                           
              Auxiliary Basis Sets for Main Row Atoms and their
              Use to approximate Coulomb Potentials            
              K. Eichkorn, F. Weigend, O. Treutler and         
              R. Ahlrichs                                      
              Theo. Chem. Acc. 97: 119 (1997)                   
                                                           
              Accurate Coulomb-fitting basis sets for H to Rn 
              F. Weigend                                        
              Phys. Chem. Chem. Phys. 8: 1057 (2006)            
                                                           
          Multipole accelerated RI-J (MARI-J):             
              Fast evaluation of the Coulomb potential for     
              electron densities using multipole accelerated   
              resolution of identity approximation             
              M. Sierka, A. Hogekamp and R. Ahlrichs           
              J. Chem. Phys. 118: 9136 (2003)                  
          RI-JK Method:                                     
              A fully direct RI-HF algorithm: Implementation,
              optimised auxiliary basis sets, demonstration of
              accuracy and efficiency                         
              F. Weigend                                      
              Phys. Chem. Chem. Phys. 4: 4285 (2002)           
          Two-component HF and DFT with spin-orbit coupling:  
              Self-consistent treatment of spin-orbit         
              interactions with efficient Hartree-Fock and    
              density functional methods                      
              M. K. Armbruster, F. Weigend, C. van Wüllen and 
              W. Klopper                                      
              Phys. Chem. Chem. Phys. 10: 1748 (2008)         
          Relativistic all-electron 2c calculations           
              An efficient implementation of two-component    
              relativistic exact-decoupling methods for large 
              molecules                                       
              D. Peng, N. Middendorf, F. Weigend, M. Reiher   
              J. Chem. Phys. 138, 184105 (2013)               
                                         




              +--------------------------------------------------+
              |      general information about current run       |
              +--------------------------------------------------+

 

 DENSITY CONVERGENCE CHECK SWITCHED ON !
 SCF CONVERGENCE IF RMS(delta[D]) <     0.1000000000E-06

 TPSS meta-GGA functional
 exchange:    LDA + TPSS
 correlation: LDA (PW) + TPSS
 A DFT calculation using the RI-J approximation will be carried out.
 Allocatable memory for RI due to $ricore (MB):                   500


              +--------------------------------------------------+
              | Atomic coordinate, charge and isotop information |
              +--------------------------------------------------+

                    atomic coordinates            atom    charge  isotop
         -1.47129038   -0.87554913    4.70615068    c      6.000     0
          0.42470579   -0.09628710    4.56082294    h      1.000     0
         -1.36528923   -2.81019623    5.39438319    h      1.000     0
         -2.55473507    0.20941364    6.07298197    h      1.000     0
         -2.87333348   -0.86290127    2.21537319    c      6.000     0
         -5.10383888   -1.48076244    2.05903958    o      8.000     0
         -1.49657543   -0.13160144    0.19008636    n      7.000     0
          0.36681786    0.27534803    0.38347199    h      1.000     0
         -2.64145606   -0.10598047   -2.28905914    c      6.000     0
         -4.37457996    0.99945954   -2.26712318    h      1.000     0
         -1.32054859    0.73181781   -3.61951759    h      1.000     0
         -3.12368389   -2.00599899   -2.92044882    h      1.000     0
          4.22975174    0.48107567    0.53388399    n      7.000     0
          4.99257055    1.50137571    1.96100534    h      1.000     0
          5.01966458    1.17532561   -1.06415521    h      1.000     0
          4.93330215   -2.18567338    0.82443458    c      6.000     0
          4.12773571   -3.26476857   -0.72774007    h      1.000     0
          6.96551106   -2.53846531    0.87315814    h      1.000     0
          4.11226797   -2.91209735    2.56267271    h      1.000     0
 
       center of nuclear mass  :   -0.52476240   -0.72976466    1.15144331
       center of nuclear charge:   -0.35766736   -0.72957722    1.12915545

              +--------------------------------------------------+
              |               basis set information              |
              +--------------------------------------------------+

              we will work with the 1s 3p 5d 7f 9g ... basis set
              ...i.e. with spherical basis functions...

   type   atoms  prim   cont   basis
   ---------------------------------------------------------------------------
    c        4     50     30   cc-pVTZ   [4s3p2d1f|18s5p2d1f]
    h       12     16     14   cc-pVTZ   [3s2p1d|5s2p1d]
    o        1     50     30   cc-pVTZ   [4s3p2d1f|18s5p2d1f]
    n        2     50     30   cc-pVTZ   [4s3p2d1f|18s5p2d1f]
   ---------------------------------------------------------------------------
   total:   19    542    378
   ---------------------------------------------------------------------------

   total number of primitive shells          :   86
   total number of contracted shells         :  142
   total number of cartesian basis functions :  425
   total number of SCF-basis functions       :  378


 integral neglect threshold       :  0.78E-13
 integral storage threshold THIZE :  0.10E-04
 integral storage threshold THIME :         5

 RI-J AUXILIARY BASIS SET information:

              we will work with the 1s 3p 5d 7f 9g ... basis set
              ...i.e. with spherical basis functions...

   type   atoms  prim   cont   basis
   ---------------------------------------------------------------------------
    c        4     70     49   cc-pVTZ   [6s4p3d1f1g|12s5p4d2f1g]
    h       12     16     11   cc-pVTZ   [3s1p1d|5s2p1d]
    o        1     70     49   cc-pVTZ   [6s4p3d1f1g|12s5p4d2f1g]
    n        2     70     49   cc-pVTZ   [6s4p3d1f1g|12s5p4d2f1g]
   ---------------------------------------------------------------------------
   total:   19    682    475
   ---------------------------------------------------------------------------

   total number of primitive shells          :   80
   total number of contracted shells         :  165
   total number of cartesian basis functions :  571
   total number of SCF-basis functions       :  475


 symmetry group of the molecule :   c1 

 the group has the following generators :
   c1(z)

    1 symmetry operations found

 there are 1 real representations :   a   

 maximum number of shells which are related by symmetry :  1


    mo occupation :
   irrep   mo's   occupied
    a      378       29
 
 number of basis functions   :                    378
 number of occupied orbitals :                     29
 
  
           ------------------
           density functional
           ------------------
 TPSS meta-GGA functional
 exchange:    LDA + TPSS
 correlation: LDA (PW) + TPSS

 iterations will be done with small grid
  
 spherical integration : Lebedev's spherical grid
 spherical gridsize    :                     5
    i.e. gridpoints    :                   590
 value for diffuse not defined
 radial integration    : Chebyshev 2nd kind (scaling 3)
 radial gridsize       :                     8
 integration cells     :                    19
 partition function    : becke
 partition sharpness   :                     3
  

 biggest AO integral is expected to be     4.866064444
  
           ------------------------
               RI-J - INFORMATION
           ------------------------
 Contributions to RI integral batches: 
  neglected integral batches:                  1430
  direct contribution:                            0
  memory contribution:                  8723
 Memory core needed for (P|Q) and Cholesky      2 MByte
 Memory core minimum needed except of (P|Q)     1 MByte
 Total minimum memory core needed (sum)         3 MByte
  
 ****************************************
 Memory allocated for RI-J   329 MByte
 ****************************************
                                            

          ------------------------
          nuclear repulsion energy  :   315.643487153    
          ------------------------


         -----------------
         -S,T+V- integrals
         -----------------

 1e-integrals will be neglected if expon. factor < 0.786344E-14
 Difference densities >>NOT<< switched on in parallel ridft!

 DIIS switched on: error vector is FDS-SDF
 Max. Iterations for DIIS is     :   4
 DIIS matrix (see manual) 
    Scaling factor of diagonals  :  1.200
    threshold for scaling factor :  0.000

 scf convergence criterion : increment of total energy < .1000000D-08
                  and increment of one-electron energy < .1000000D-05

  MOs are in ASCII format !


 automatic virtual orbital shift switched on 
      shift if e(lumo)-e(homo) < 0.10000000    


 reading orbital data $scfmo  from file mos
 orbital characterization : expanded
 mo provided and orthogonalized by Cholesky decomposition

 DSCF restart information will be dumped onto file mos


 Starting SCF iterations

          Overall gridpoints after grid construction =         85662

 ITERATION  ENERGY          1e-ENERGY        2e-ENERGY     RMS[dD(SAO)]   TOL
   1  -343.10266627177    -1084.8932153     426.14706183    0.000D+00 0.784D-13
                            Exc = -48.0421018357     Coul =  474.189163668    
                              N = 57.999864512    
                            current damping = 0.700
 
          max. resid. norm for Fia-block=  3.156D-01 for orbital      1a         
          max. resid. fock norm         =  4.768D+00 for orbital    366a         

 ITERATION  ENERGY          1e-ENERGY        2e-ENERGY     RMS[dD(SAO)]   TOL
   2  -344.29337150594    -1089.4170293     429.48017062    0.277D-02 0.784D-13
                            Exc = -48.2959619149     Coul =  477.776132537    
                              N = 57.999883465    
                            current damping = 0.650
 
          Norm of current diis error:  2.2318    
          max. resid. norm for Fia-block=  1.567D-01 for orbital      1a         
          max. resid. fock norm         =  3.277D-01 for orbital    372a         

 ITERATION  ENERGY          1e-ENERGY        2e-ENERGY     RMS[dD(SAO)]   TOL
   3  -344.49663307471    -1091.4337176     431.29359737    0.179D-02 0.784D-13
                            Exc = -48.6152186211     Coul =  479.908815992    
                              N = 57.999895785    
                            current damping = 0.550
 
          Norm of current diis error:  1.0749    
          max. resid. norm for Fia-block=  6.154D-02 for orbital      1a         
          max. resid. fock norm         =  6.469D-02 for orbital      1a         

 ITERATION  ENERGY          1e-ENERGY        2e-ENERGY     RMS[dD(SAO)]   TOL
   4  -344.55817151911    -1091.6288905     431.42723180    0.146D-02 0.784D-13
                            Exc = -48.6445488421     Coul =  480.071780644    
                              N = 57.999902293    
                            current damping = 0.400
 
          Norm of current diis error: 0.45837    
          max. resid. norm for Fia-block=  3.430D-02 for orbital      8a         
          max. resid. fock norm         =  7.003D-02 for orbital    366a         

 ITERATION  ENERGY          1e-ENERGY        2e-ENERGY     RMS[dD(SAO)]   TOL
   5  -344.56598565366    -1092.2591019     432.04962906    0.678D-03 0.784D-13
                            Exc = -48.7740557639     Coul =  480.823684819    
                              N = 57.999905224    
                            current damping = 0.300
 
          Norm of current diis error: 0.32600    
          max. resid. norm for Fia-block=  1.409D-02 for orbital     29a         
          max. resid. fock norm         =  1.911D-02 for orbital    373a         
          mo-orthogonalization: Cholesky decomposition

 ITERATION  ENERGY          1e-ENERGY        2e-ENERGY     RMS[dD(SAO)]   TOL
   6  -344.57124993737    -1092.3727639     432.15802685    0.496D-03 0.784D-13
                            Exc = -48.7681061484     Coul =  480.926132996    
                              N = 57.999906814    
                            current damping = 0.150
 
          Norm of current diis error: 0.91512E-01
          max. resid. norm for Fia-block=  5.439D-03 for orbital     28a         
          max. resid. fock norm         =  7.535D-03 for orbital     28a         

 ITERATION  ENERGY          1e-ENERGY        2e-ENERGY     RMS[dD(SAO)]   TOL
   7  -344.57149200210    -1092.1493373     431.93435815    0.149D-03 0.784D-13
                            Exc = -48.7524352958     Coul =  480.686793448    
                              N = 57.999905876    
                            current damping = 0.200
 
          Norm of current diis error: 0.62644E-01
          max. resid. norm for Fia-block=  2.044D-03 for orbital     14a         
          max. resid. fock norm         =  2.760D-03 for orbital    372a         

 ITERATION  ENERGY          1e-ENERGY        2e-ENERGY     RMS[dD(SAO)]   TOL
   8  -344.57163646035    -1092.2619856     432.04686197    0.433D-04 0.784D-13
                            Exc = -48.7648260550     Coul =  480.811688023    
                              N = 57.999906407    
                            current damping = 0.250
 
          Norm of current diis error: 0.10994E-01
          max. resid. norm for Fia-block=  4.536D-04 for orbital     26a         
          max. resid. fock norm         =  6.260D-04 for orbital     25a         

 ITERATION  ENERGY          1e-ENERGY        2e-ENERGY     RMS[dD(SAO)]   TOL
   9  -344.57164061097    -1092.2879455     432.07281769    0.972D-05 0.784D-13
                            Exc = -48.7660701357     Coul =  480.838887827    
                              N = 57.999906443    
                            current damping = 0.100
 
          Norm of current diis error: 0.53221E-02
          max. resid. norm for Fia-block=  2.128D-04 for orbital     27a         
          max. resid. fock norm         =  2.607D-04 for orbital    373a         

 ITERATION  ENERGY          1e-ENERGY        2e-ENERGY     RMS[dD(SAO)]   TOL
  10  -344.57164103072    -1092.2679311     432.05280289    0.808D-05 0.784D-13
                            Exc = -48.7643092816     Coul =  480.817112168    
                              N = 57.999906414    
                            current damping = 0.150
 
          Norm of current diis error: 0.37690E-02
          max. resid. norm for Fia-block=  1.300D-04 for orbital     29a         
          max. resid. fock norm         =  2.000D-04 for orbital    373a         
          mo-orthogonalization: Cholesky decomposition

 ITERATION  ENERGY          1e-ENERGY        2e-ENERGY     RMS[dD(SAO)]   TOL
  11  -344.57164168546    -1092.2736004     432.05847158    0.421D-05 0.784D-13
                            Exc = -48.7650733175     Coul =  480.823544894    
                              N = 57.999906419    
                            current damping = 0.200
 
          Norm of current diis error: 0.68587E-03
          max. resid. norm for Fia-block=  2.587D-05 for orbital     27a         
          max. resid. fock norm         =  3.700D-05 for orbital    181a         

 ITERATION  ENERGY          1e-ENERGY        2e-ENERGY     RMS[dD(SAO)]   TOL
  12  -344.57164169992    -1092.2745269     432.05939802    0.619D-06 0.784D-13
                            Exc = -48.7650930566     Coul =  480.824491079    
                              N = 57.999906424    
                            current damping = 0.050
 
          Norm of current diis error: 0.35138E-03
          max. resid. norm for Fia-block=  1.195D-05 for orbital     17a         
          max. resid. fock norm         =  1.746D-05 for orbital    181a         

 ITERATION  ENERGY          1e-ENERGY        2e-ENERGY     RMS[dD(SAO)]   TOL
  13  -344.57164170341    -1092.2740528     432.05892396    0.377D-06 0.784D-13
                            Exc = -48.7650491070     Coul =  480.823973062    
                              N = 57.999906421    
                            current damping = 0.100
 
          Norm of current diis error: 0.14584E-03
          max. resid. norm for Fia-block=  6.002D-06 for orbital     29a         
          max. resid. fock norm         =  8.261D-06 for orbital    373a         

 ITERATION  ENERGY          1e-ENERGY        2e-ENERGY     RMS[dD(SAO)]   TOL
  14  -344.57164170428    -1092.2740846     432.05895571    0.176D-06 0.784D-13
                            Exc = -48.7650633563     Coul =  480.824019069    
                              N = 57.999906422    
                            current damping = 0.150
 
          Norm of current diis error: 0.49158E-04
          max. resid. norm for Fia-block=  1.849D-06 for orbital     27a         
          max. resid. fock norm         =  2.454D-06 for orbital    373a         

 DENSITY CONVERGED !


 ITERATION  ENERGY          1e-ENERGY        2e-ENERGY     RMS[dD(SAO)]   TOL
  15  -344.57164170437    -1092.2741833     432.05905446    0.517D-07 0.784D-13
                            Exc = -48.7650696332     Coul =  480.824124091    
                              N = 57.999906422    
                            current damping = 0.050
 
          Norm of current diis error: 0.21776E-04
          max. resid. norm for Fia-block=  8.454D-07 for orbital     27a         
          max. resid. fock norm         =  9.960D-07 for orbital    212a         
          mo-orthogonalization: Cholesky decomposition

 DENSITY CONVERGED !


 ITERATION  ENERGY          1e-ENERGY        2e-ENERGY     RMS[dD(SAO)]   TOL
  16  -344.57164170438    -1092.2741175     432.05898863    0.234D-07 0.784D-13
                            Exc = -48.7650627711     Coul =  480.824051399    
                              N = 57.999906422    
                            current damping = 0.100
 
          Norm of current diis error: 0.10400E-04
          max. resid. norm for Fia-block=  3.400D-07 for orbital     26a         
          max. resid. fock norm         =  4.808D-07 for orbital    372a         

 ENERGY & DENSITY CONVERGED !

          Overall gridpoints after grid construction =        283828

 ITERATION  ENERGY          1e-ENERGY        2e-ENERGY     RMS[dD(SAO)]   TOL
  17  -344.57153730441    -1092.2741311     432.05910667    0.950D-08 0.784D-13
                            Exc = -48.7649605544     Coul =  480.824067229    
                              N = 57.999998098    
                            current damping = 0.150
 
          Norm of current diis error: 0.31327E-05
          max. resid. norm for Fia-block=  8.664D-08 for orbital     20a         
          max. resid. fock norm         =  1.176D-07 for orbital    181a         

 End of SCF iterations

   convergence criteria satisfied after    17 iterations


                  ------------------------------------------ 
                 |  total energy      =   -344.57153730441  |
                  ------------------------------------------ 
                 :  kinetic energy    =    342.76853314841  :
                 :  potential energy  =   -687.34007045282  :
                 :  virial theorem    =      1.99476740253  :
                 :  wavefunction norm =      1.00000000000  :
                  .......................................... 


 <geterg> : there is no data group $energy 


 <skperg> : $end is missing 


 orbitals $scfmo  will be written to file mos

    irrep                 25a         26a         27a         28a         29a   
 eigenvalues H         -0.32799    -0.29447    -0.23877    -0.20118    -0.18664
            eV          -8.9251     -8.0130     -6.4974     -5.4744     -5.0789
 occupation              2.0000      2.0000      2.0000      2.0000      2.0000 

    irrep                 30a         31a         32a         33a         34a   
 eigenvalues H         -0.00125     0.01630     0.04025     0.04475     0.05669
            eV          -0.0341      0.4436      1.0952      1.2177      1.5426
 
 
 
 
 ==============================================================================
                           electrostatic moments
 ==============================================================================

 reference point for electrostatic moments:    0.00000   0.00000   0.00000

 
              nuc           elec       ->  total
 ------------------------------------------------------------------------------
                          charge      
 ------------------------------------------------------------------------------
          58.000000     -58.000000      -0.000000
 
 ------------------------------------------------------------------------------
                       dipole moment  
 ------------------------------------------------------------------------------
   x     -20.744707      23.103815       2.359109
   y     -42.315479      42.740082       0.424604
   z      65.491016     -65.853975      -0.362959
 
   | dipole moment | =     2.4243 a.u. =     6.1621 debye 
 
 ------------------------------------------------------------------------------
                     quadrupole moment
 ------------------------------------------------------------------------------
  xx     771.654044    -809.258927     -37.604883
  yy      99.883041    -133.361264     -33.478223
  zz     360.552290    -391.955838     -31.403548
  xy      10.224395     -12.534856      -2.310461
  xz     -68.228775      72.091802       3.863027
  yz     -87.204841      87.882800       0.677959
 
     1/3  trace=     -34.162218
     anisotropy=       9.594664
 
 ==============================================================================
 


    ------------------------------------------------------------------------
         total  cpu-time :  4 minutes and 20 seconds
         total wall-time :  30.82 seconds
    ------------------------------------------------------------------------

   ****  ridft : all done  ****


    2018-04-24 21:16:29.326 

