           Doing BLAS/Lapack in the master proc. with  8 CPUs.
           SMPCPUS    set: Shared-memory Parallelization with   8 CPUs.

           SMP Parallelization Reference:
           C. van Wullen, J. Comput. Chem. 32 (2011) 1195--1201
 operating system is UNIX !

 ridft (c-13-13.gp.local) : TURBOMOLE V7.2 ( 21454 ) 4 Oct 2017 at 12:48:15
 Copyright (C) 2017 TURBOMOLE GmbH, Karlsruhe


    2018-04-28 21:07:00.292 



                                  r i d f t

                        DFT program with RI approximation 
                                for coulomb part 




                                                 
                                 References:     
                                                 
          TURBOMOLE:                             
              R. Ahlrichs, M. Baer, M. Haeser, H. Horn, and
              C. Koelmel
              Electronic structure calculations on workstation
              computers: the program system TURBOMOLE
              Chem. Phys. Lett. 162: 165 (1989)
          Density Functional:                              
              O. Treutler and R. Ahlrichs                      
              Efficient Molecular Numerical Integration Schemes
              J. Chem. Phys. 102: 346 (1995)                   
          Parallel Version:                                
              Performance of parallel TURBOMOLE for Density    
              Functional Calculations                          
              M. v. Arnim and R. Ahlrichs                      
              J. Comp. Chem. 19: 1746 (1998)                   
          RI-J Method:                                     
              Auxiliary Basis Sets to approximate Coulomb      
              Potentials                                       
              Chem. Phys. Lett. 240: 283 (1995)                
              K. Eichkorn, O. Treutler, H. Oehm, M. Haeser     
              and R. Ahlrichs                                  
              Chem. Phys. Lett. 242: 652 (1995)                
                                                           
              Auxiliary Basis Sets for Main Row Atoms and their
              Use to approximate Coulomb Potentials            
              K. Eichkorn, F. Weigend, O. Treutler and         
              R. Ahlrichs                                      
              Theo. Chem. Acc. 97: 119 (1997)                   
                                                           
              Accurate Coulomb-fitting basis sets for H to Rn 
              F. Weigend                                        
              Phys. Chem. Chem. Phys. 8: 1057 (2006)            
                                                           
          Multipole accelerated RI-J (MARI-J):             
              Fast evaluation of the Coulomb potential for     
              electron densities using multipole accelerated   
              resolution of identity approximation             
              M. Sierka, A. Hogekamp and R. Ahlrichs           
              J. Chem. Phys. 118: 9136 (2003)                  
          RI-JK Method:                                     
              A fully direct RI-HF algorithm: Implementation,
              optimised auxiliary basis sets, demonstration of
              accuracy and efficiency                         
              F. Weigend                                      
              Phys. Chem. Chem. Phys. 4: 4285 (2002)           
          Two-component HF and DFT with spin-orbit coupling:  
              Self-consistent treatment of spin-orbit         
              interactions with efficient Hartree-Fock and    
              density functional methods                      
              M. K. Armbruster, F. Weigend, C. van Wüllen and 
              W. Klopper                                      
              Phys. Chem. Chem. Phys. 10: 1748 (2008)         
          Relativistic all-electron 2c calculations           
              An efficient implementation of two-component    
              relativistic exact-decoupling methods for large 
              molecules                                       
              D. Peng, N. Middendorf, F. Weigend, M. Reiher   
              J. Chem. Phys. 138, 184105 (2013)               
                                         




              +--------------------------------------------------+
              |      general information about current run       |
              +--------------------------------------------------+

 

 DENSITY CONVERGENCE CHECK SWITCHED ON !
 SCF CONVERGENCE IF RMS(delta[D]) <     0.1000000000E-06

 TPSS meta-GGA functional
 exchange:    LDA + TPSS
 correlation: LDA (PW) + TPSS
 A DFT calculation using the RI-J approximation will be carried out.
 Allocatable memory for RI due to $ricore (MB):                  5000


              +--------------------------------------------------+
              | Atomic coordinate, charge and isotop information |
              +--------------------------------------------------+

                    atomic coordinates            atom    charge  isotop
         -1.13710482   -0.05398970    0.72742157    c      6.000     0
         -3.14400432   -0.05390740    0.71623325    h      1.000     0
          1.15293925   -0.05416644    0.73352325    c      6.000     0
          3.15987805   -0.05441104    0.73315236    h      1.000     0
         -0.01390834    0.18961018    7.82877991    c      0.000     0
         -0.00749389    0.12586017    5.81944000    h      0.000     0
         -0.02134710    0.26196784   10.11811770    c      0.000     0
         -0.02751939    0.32503912   12.12294973    h      0.000     0
 
       center of nuclear mass  :   -0.00484981    0.08583919    4.85164962
       center of nuclear charge:    0.00792002   -0.05408966    0.72964675

              +--------------------------------------------------+
              |               basis set information              |
              +--------------------------------------------------+

              we will work with the 1s 3p 5d 7f 9g ... basis set
              ...i.e. with spherical basis functions...

   type   atoms  prim   cont   basis
   ---------------------------------------------------------------------------
    c        4     77     55   cc-pVQZ   [5s4p3d2f1g|21s6p3d2f1g]
    h        4     32     30   cc-pVQZ   [4s3p2d1f|6s3p2d1f]
   ---------------------------------------------------------------------------
   total:    8    436    340
   ---------------------------------------------------------------------------

   total number of primitive shells          :   45
   total number of contracted shells         :  100
   total number of cartesian basis functions :  420
   total number of SCF-basis functions       :  340


 integral neglect threshold       :  0.79E-13
 integral storage threshold THIZE :  0.10E-04
 integral storage threshold THIME :         5

 RI-J AUXILIARY BASIS SET information:

              we will work with the 1s 3p 5d 7f 9g ... basis set
              ...i.e. with spherical basis functions...

   type   atoms  prim   cont   basis
   ---------------------------------------------------------------------------
    c        4     70     49   cc-pVQZ   [6s4p3d1f1g|12s5p4d2f1g]
    h        4     16     11   cc-pVQZ   [3s1p1d|5s2p1d]
   ---------------------------------------------------------------------------
   total:    8    344    240
   ---------------------------------------------------------------------------

   total number of primitive shells          :   32
   total number of contracted shells         :   80
   total number of cartesian basis functions :  292
   total number of SCF-basis functions       :  240


 symmetry group of the molecule :   c1 

 the group has the following generators :
   c1(z)

    1 symmetry operations found

 there are 1 real representations :   a   

 maximum number of shells which are related by symmetry :  1


    mo occupation :
   irrep   mo's   occupied
    a      340        7
 
 number of basis functions   :                    340
 number of occupied orbitals :                      7
 
  
           ------------------
           density functional
           ------------------
 Dummy atoms with grid-point found.
 DFT quadrature threshold dgrenze tightened by factor 1/10.

 TPSS meta-GGA functional
 exchange:    LDA + TPSS
 correlation: LDA (PW) + TPSS
 Dummy atoms with grid-point found.
 DFT quadrature threshold dgrenze tightened by factor 1/10.

 Dummy atoms with grid-point found.
 DFT quadrature threshold dgrenze tightened by factor 1/10.


 iterations will be done with small grid
  
 spherical integration : Lebedev's spherical grid
 spherical gridsize    :                     5
    i.e. gridpoints    :                   590
 value for diffuse not defined
 radial integration    : Chebyshev 2nd kind (scaling 3)
 radial gridsize       :                     8
 integration cells     :                     8
 partition function    : becke
 partition sharpness   :                     3
  
 found dummy atom(s) with basis: included in dft

 biggest AO integral is expected to be     3.537514283
  
           ------------------------
               RI-J - INFORMATION
           ------------------------
 Contributions to RI integral batches: 
  neglected integral batches:                   994
  direct contribution:                            0
  memory contribution:                  4056
 Memory core needed for (P|Q) and Cholesky      1 MByte
 Memory core minimum needed except of (P|Q)     1 MByte
 Total minimum memory core needed (sum)         1 MByte
  
 ****************************************
 Memory allocated for RI-J   155 MByte
 ****************************************
                                            

          ------------------------
          nuclear repulsion energy  :   24.6507224236    
          ------------------------


         -----------------
         -S,T+V- integrals
         -----------------

 1e-integrals will be neglected if expon. factor < 0.795705E-14
 Difference densities >>NOT<< switched on in parallel ridft!

 DIIS switched on: error vector is FDS-SDF
 Max. Iterations for DIIS is     :   4
 DIIS matrix (see manual) 
    Scaling factor of diagonals  :  1.200
    threshold for scaling factor :  0.000

 scf convergence criterion : increment of total energy < .1000000D-08
                  and increment of one-electron energy < .1000000D-05

  MOs are in ASCII format !


 automatic virtual orbital shift switched on 
      shift if e(lumo)-e(homo) < 0.10000000    


 reading orbital data $scfmo  from file mos
 orbital characterization : expanded
 mo provided and orthogonalized by Cholesky decomposition

 DSCF restart information will be dumped onto file mos


 Starting SCF iterations

          Overall gridpoints after grid construction =         48268

 ITERATION  ENERGY          1e-ENERGY        2e-ENERGY     RMS[dD(SAO)]   TOL
   1  -77.058398564189    -148.47408213     46.764961140    0.000D+00 0.794D-13
                            Exc = -11.0894682008     Coul =  57.8544293406    
                              N = 13.999998608    
                            current damping = 0.700
 
          max. resid. norm for Fia-block=  3.098D-01 for orbital      5a         
          max. resid. fock norm         =  2.037D+01 for orbital    326a         

 ITERATION  ENERGY          1e-ENERGY        2e-ENERGY     RMS[dD(SAO)]   TOL
   2  -77.308759599204    -150.66737679     48.707894772    0.436D-02 0.794D-13
                            Exc = -11.3583332050     Coul =  60.0662279769    
                              N = 13.999998690    
                            current damping = 0.650
 
          Norm of current diis error:  1.6219    
          max. resid. norm for Fia-block=  1.400D-01 for orbital      2a         
          max. resid. fock norm         =  1.853D-01 for orbital    318a         

 ITERATION  ENERGY          1e-ENERGY        2e-ENERGY     RMS[dD(SAO)]   TOL
   3  -77.360051855418    -151.22832249     49.217548211    0.145D-02 0.794D-13
                            Exc = -11.4406593443     Coul =  60.6582075550    
                              N = 13.999998714    
                            current damping = 0.550
 
          Norm of current diis error: 0.74453    
          max. resid. norm for Fia-block=  5.684D-02 for orbital      2a         
          max. resid. fock norm         =  5.911D-02 for orbital      2a         

 ITERATION  ENERGY          1e-ENERGY        2e-ENERGY     RMS[dD(SAO)]   TOL
   4  -77.374859249967    -151.57275979     49.547178114    0.701D-03 0.794D-13
                            Exc = -11.4914261935     Coul =  61.0386043079    
                              N = 13.999998922    
                            current damping = 0.400
 
          Norm of current diis error: 0.28056    
          max. resid. norm for Fia-block=  2.082D-02 for orbital      2a         
          max. resid. fock norm         =  2.337D-02 for orbital    235a         

 ITERATION  ENERGY          1e-ENERGY        2e-ENERGY     RMS[dD(SAO)]   TOL
   5  -77.377533757835    -151.69467462     49.666418434    0.335D-03 0.794D-13
                            Exc = -11.5108552241     Coul =  61.1772736585    
                              N = 13.999999072    
                            current damping = 0.250
 
          Norm of current diis error: 0.84538E-01
          max. resid. norm for Fia-block=  6.289D-03 for orbital      3a         
          max. resid. fock norm         =  9.195D-03 for orbital    326a         
          mo-orthogonalization: Cholesky decomposition

 ITERATION  ENERGY          1e-ENERGY        2e-ENERGY     RMS[dD(SAO)]   TOL
   6  -77.377816103185    -151.74128726     49.712748729    0.148D-03 0.794D-13
                            Exc = -11.5179398528     Coul =  61.2306885820    
                              N = 13.999999137    
                            current damping = 0.100
 
          Norm of current diis error: 0.16480E-01
          max. resid. norm for Fia-block=  1.251D-03 for orbital      3a         
          max. resid. fock norm         =  2.622D-03 for orbital    326a         

 ITERATION  ENERGY          1e-ENERGY        2e-ENERGY     RMS[dD(SAO)]   TOL
   7  -77.377827757687    -151.74332520     49.714775022    0.426D-04 0.794D-13
                            Exc = -11.5186244045     Coul =  61.2333994265    
                              N = 13.999999149    
                            current damping = 0.050
 
          Norm of current diis error: 0.36693E-02
          max. resid. norm for Fia-block=  2.903D-04 for orbital      5a         
          max. resid. fock norm         =  5.931D-04 for orbital    330a         

 ITERATION  ENERGY          1e-ENERGY        2e-ENERGY     RMS[dD(SAO)]   TOL
   8  -77.377828061315    -151.75012526     49.721574779    0.482D-05 0.794D-13
                            Exc = -11.5194094795     Coul =  61.2409842581    
                              N = 13.999999154    
                            current damping = 0.050
 
          Norm of current diis error: 0.21184E-02
          max. resid. norm for Fia-block=  9.127D-05 for orbital      5a         
          max. resid. fock norm         =  1.366D-04 for orbital    235a         

 ITERATION  ENERGY          1e-ENERGY        2e-ENERGY     RMS[dD(SAO)]   TOL
   9  -77.377828185081    -151.74741924     49.718868634    0.160D-05 0.794D-13
                            Exc = -11.5191143343     Coul =  61.2379829687    
                              N = 13.999999153    
                            current damping = 0.100
 
          Norm of current diis error: 0.18535E-03
          max. resid. norm for Fia-block=  1.058D-05 for orbital      7a         
          max. resid. fock norm         =  2.058D-05 for orbital    337a         

 ITERATION  ENERGY          1e-ENERGY        2e-ENERGY     RMS[dD(SAO)]   TOL
  10  -77.377828183793    -151.74759546     49.719044857    0.204D-06 0.794D-13
                            Exc = -11.5191340995     Coul =  61.2381789560    
                              N = 13.999999153    
                            current damping = 0.150
 
          Norm of current diis error: 0.30185E-03
          max. resid. norm for Fia-block=  5.647D-06 for orbital      7a         
          max. resid. fock norm         =  1.202D-05 for orbital      2a         
          mo-orthogonalization: Cholesky decomposition

 DENSITY CONVERGED !


 ITERATION  ENERGY          1e-ENERGY        2e-ENERGY     RMS[dD(SAO)]   TOL
  11  -77.377828185918    -151.74761100     49.719060392    0.960D-07 0.794D-13
                            Exc = -11.5191357852     Coul =  61.2381961770    
                              N = 13.999999153    
                            current damping = 0.050
 
          Norm of current diis error: 0.59920E-04
          max. resid. norm for Fia-block=  1.706D-06 for orbital      7a         
          max. resid. fock norm         =  3.590D-06 for orbital      2a         

 DENSITY CONVERGED !


 ITERATION  ENERGY          1e-ENERGY        2e-ENERGY     RMS[dD(SAO)]   TOL
  12  -77.377828185995    -151.74760018     49.719049573    0.318D-07 0.794D-13
                            Exc = -11.5191345980     Coul =  61.2381841713    
                              N = 13.999999153    
                            current damping = 0.100
 
          Norm of current diis error: 0.20847E-04
          max. resid. norm for Fia-block=  5.409D-07 for orbital      7a         
          max. resid. fock norm         =  1.100D-06 for orbital      2a         

 ENERGY & DENSITY CONVERGED !

          Overall gridpoints after grid construction =        129448

 ITERATION  ENERGY          1e-ENERGY        2e-ENERGY     RMS[dD(SAO)]   TOL
  13  -77.377797729977    -151.74759477     49.719074614    0.951D-08 0.794D-13
                            Exc = -11.5191035229     Coul =  61.2381781365    
                              N = 14.000000025    
                            current damping = 0.150
 
          Norm of current diis error: 0.30282E-05
          max. resid. norm for Fia-block=  8.977D-08 for orbital      5a         
          max. resid. fock norm         =  1.495D-07 for orbital    318a         

 End of SCF iterations

   convergence criteria satisfied after    13 iterations


                  ------------------------------------------ 
                 |  total energy      =    -77.37779772998  |
                  ------------------------------------------ 
                 :  kinetic energy    =     76.98672320611  :
                 :  potential energy  =   -154.36452093608  :
                 :  virial theorem    =      1.99494590780  :
                 :  wavefunction norm =      1.00000000000  :
                  .......................................... 


 <geterg> : there is no data group $energy 


 <skperg> : $end is missing 


 orbitals $scfmo  will be written to file mos

    irrep                  3a          4a          5a          6a          7a   
 eigenvalues H         -0.69747    -0.53058    -0.45645    -0.26269    -0.26267
            eV         -18.9792    -14.4380    -12.4207     -7.1483     -7.1477
 occupation              2.0000      2.0000      2.0000      2.0000      2.0000 

    irrep                  8a          9a         10a         11a         12a   
 eigenvalues H         -0.00388    -0.00343     0.03872     0.04247     0.07002
            eV          -0.1055     -0.0933      1.0536      1.1557      1.9054
 
 
 
 
 ==============================================================================
                           electrostatic moments
 ==============================================================================

 reference point for electrostatic moments:    0.00000   0.00000   0.00000

 
              nuc           elec       ->  total
 ------------------------------------------------------------------------------
                          charge      
 ------------------------------------------------------------------------------
          14.000000     -14.000000       0.000000
 
 ------------------------------------------------------------------------------
                       dipole moment  
 ------------------------------------------------------------------------------
   x       0.110880      -0.110848       0.000032
   y      -0.757255       0.756941      -0.000314
   z      10.215055     -10.225451      -0.010396
 
   | dipole moment | =     0.0104 a.u. =     0.0264 debye 
 
 ------------------------------------------------------------------------------
                     quadrupole moment
 ------------------------------------------------------------------------------
  xx      35.603250     -40.828417      -5.225167
  yy       0.040960     -10.144173     -10.103213
  zz       7.453693     -17.589713     -10.136020
  xy      -0.008799       0.008406      -0.000393
  xz       0.176151      -0.163054       0.013097
  yz      -0.552536       0.552227      -0.000308
 
     1/3  trace=      -8.488133
     anisotropy=       4.894584
 
 ==============================================================================
 


    ------------------------------------------------------------------------
         total  cpu-time :  3 minutes and 17 seconds
         total wall-time :  23.07 seconds
    ------------------------------------------------------------------------

   ****  ridft : all done  ****


    2018-04-28 21:07:23.344 

