Using Slurm to start processes with PMI2
STARTING ridft ON 8 PROCESSORS!
RUNNING PROGRAM /modfac/apps/TURBOMOLE/7.0_intel_GA/bin/em64t-unknown-linux-gnu_mpi/ridft_mpi.
PLEASE WAIT UNTIL ridft HAS FINISHED.
Look for the output in slave1.output.
  this is node-proc. number 1 running on node c-6-29.local
  the total number of node-proc. spawned is            8
  parallel platform: MPP, or cluster with fast interconnect

 ridft (c-6-29.local) : TURBOMOLE V7.0.2( ) 15 Jan 2016 at 17:47:42
 Copyright (C) 2016 TURBOMOLE GmbH, Karlsruhe


    2016-01-31 08:20:14.210 



                                  r i d f t

                        DFT program with RI approximation 
                                for coulomb part 




                                                 
                                 References:     
                                                 
          TURBOMOLE:                             
              R. Ahlrichs, M. Baer, M. Haeser, H. Horn, and
              C. Koelmel
              Electronic structure calculations on workstation
              computers: the program system TURBOMOLE
              Chem. Phys. Lett. 162: 165 (1989)
          Density Functional:                              
              O. Treutler and R. Ahlrichs                      
              Efficient Molecular Numerical Integration Schemes
              J. Chem. Phys. 102: 346 (1995)                   
          Parallel Version:                                
              Performance of parallel TURBOMOLE for Density    
              Functional Calculations                          
              M. v. Arnim and R. Ahlrichs                      
              J. Comp. Chem. 19: 1746 (1998)                   
          RI-J Method:                                     
              Auxiliary Basis Sets to approximate Coulomb      
              Potentials                                       
              Chem. Phys. Lett. 240: 283 (1995)                
              K. Eichkorn, O. Treutler, H. Oehm, M. Haeser     
              and R. Ahlrichs                                  
              Chem. Phys. Lett. 242: 652 (1995)                
                                                           
              Auxiliary Basis Sets for Main Row Atoms and their
              Use to approximate Coulomb Potentials            
              K. Eichkorn, F. Weigend, O. Treutler and         
              R. Ahlrichs                                      
              Theo. Chem. Acc. 97: 119 (1997)                   
                                                           
              Accurate Coulomb-fitting basis sets for H to Rn 
              F. Weigend                                        
              Phys. Chem. Chem. Phys. 8: 1057 (2006)            
                                                           
          Multipole accelerated RI-J (MARI-J):             
              Fast evaluation of the Coulomb potential for     
              electron densities using multipole accelerated   
              resolution of identity approximation             
              M. Sierka, A. Hogekamp and R. Ahlrichs           
              J. Chem. Phys. 118: 9136 (2003)                  
          RI-JK Method:                                     
              A fully direct RI-HF algorithm: Implementation,
              optimised auxiliary basis sets, demonstration of
              accuracy and efficiency                         
              F. Weigend                                      
              Phys. Chem. Chem. Phys. 4: 4285 (2002)           
          Two-component HF and DFT with spin-orbit coupling:  
              Self-consistent treatment of spin-orbit         
              interactions with efficient Hartree-Fock and    
              density functional methods                      
              M. K. Armbruster, F. Weigend, C. van Wüllen and 
              W. Klopper                                      
              Phys. Chem. Chem. Phys. 10: 1748 (2008)         
          Relativistic all-electron 2c calculations           
              An efficient implementation of two-component    
              relativistic exact-decoupling methods for large 
              molecules                                       
              D. Peng, N. Middendorf, F. Weigend, M. Reiher   
              J. Chem. Phys. 138, 184105 (2013)               
                                         


 


              +--------------------------------------------------+
              |      general information about current run       |
              +--------------------------------------------------+

 

 SCF run will be profiled !


 DENSITY CONVERGENCE CHECK SWITCHED ON !
 SCF CONVERGENCE IF RMS(delta[D]) <     0.1000000000E-06

 PBE functional
 exchange:    LDA + PBE
 correlation: LDA (PW) + PBE
 A DFT calculation using the RI-J approximation will be carried out.
 Allocatable memory for RI due to $ricore (MB):        8000


              +--------------------------------------------------+
              | Atomic coordinate, charge and isotop information |
              +--------------------------------------------------+

                    atomic coordinates            atom    charge  isotop
         -1.46652197   -0.15990863    9.49727222    c      0.000     0
          1.49517021   -0.17859802    9.46303038    c      0.000     0
          2.10343526   -2.56929055    8.29797642    n      0.000     0
         -0.02575697   -3.98499778    7.67166449    c      0.000     0
         -2.12694345   -2.49833133    8.25305763    n      0.000     0
         -2.08986703    2.13688341    8.13632925    n      0.000     0
          0.01808468    3.41424379    7.24466197    c      0.000     0
          2.12197347    2.06505492    8.00474762    n      0.000     0
         -0.00054802    5.39703894    6.06078635    o      0.000     0
         -0.05890276   -6.12080405    6.85004936    o      0.000     0
          4.65269471    3.08945656    7.77174439    c      0.000     0
          4.62359293   -3.63190245    8.10119924    c      0.000     0
         -9.08417808   -0.17132257    3.51222609    c      0.000     0
         -7.57789628   -0.15718742    6.06551066    c      0.000     0
         -6.13004481   -2.46361706    5.96499613    n      0.000     0
         -6.61475956   -3.88882961    3.80252582    c      0.000     0
         -8.26025749   -2.47106258    2.30535250    n      0.000     0
         -8.29030413    2.17314726    2.30712884    n      0.000     0
         -6.57052107    3.51260404    3.73294611    c      0.000     0
         -6.13244476    2.18119749    5.92087102    n      0.000     0
         -5.64803236    5.57045911    3.17409740    o      0.000     0
         -5.82026200   -5.98396898    3.34266097    o      0.000     0
         -4.58936999    3.20584480    7.94284019    c      0.000     0
         -4.66269136   -3.49843109    8.03991542    c      0.000     0
          9.11566092   -0.49316183   -3.51591106    c      0.000     0
          7.58197809   -0.37548858   -6.04922122    c      0.000     0
          6.12252370   -2.67912143   -6.02093202    n      0.000     0
          6.48795894   -4.10335132   -3.83580390    c      0.000     0
          8.12931836   -2.73551086   -2.29860618    n      0.000     0
          8.53536382    1.89902359   -2.31175867    n      0.000     0
          6.81815078    3.33984528   -3.66536950    c      0.000     0
          6.15755922    1.95892790   -5.79673491    n      0.000     0
          6.06352645    5.44728676   -3.12781800    o      0.000     0
          5.60048685   -6.16772595   -3.39169936    o      0.000     0
          4.65269471    3.08945656   -7.77174439    c      0.000     0
          4.62359293   -3.63190245   -8.10119924    c      0.000     0
          7.58197809   -0.37548858    6.04922122    c      0.000     0
          9.11566092   -0.49316183    3.51591106    c      0.000     0
          8.12931836   -2.73551086    2.29860618    n      0.000     0
          6.48795894   -4.10335132    3.83580390    c      0.000     0
          6.12252370   -2.67912143    6.02093202    n      0.000     0
          6.15755922    1.95892790    5.79673491    n      0.000     0
          6.81815078    3.33984528    3.66536950    c      0.000     0
          8.53536382    1.89902359    2.31175867    n      0.000     0
          6.06352645    5.44728676    3.12781800    o      0.000     0
          5.60048685   -6.16772595    3.39169936    o      0.000     0
          9.66840581    2.82997827    0.00000000    c      0.000     0
          9.13162911   -3.83119297    0.00000000    c      0.000     0
         -7.57789628   -0.15718742   -6.06551066    c      0.000     0
         -9.08417808   -0.17132257   -3.51222609    c      0.000     0
         -8.26025749   -2.47106258   -2.30535250    n      0.000     0
         -6.61475956   -3.88882961   -3.80252582    c      0.000     0
         -6.13004481   -2.46361706   -5.96499613    n      0.000     0
         -6.13244476    2.18119749   -5.92087102    n      0.000     0
         -6.57052107    3.51260404   -3.73294611    c      0.000     0
         -8.29030413    2.17314726   -2.30712884    n      0.000     0
         -5.64803236    5.57045911   -3.17409740    o      0.000     0
         -5.82026200   -5.98396898   -3.34266097    o      0.000     0
         -9.35011924    3.19163405    0.00000000    c      0.000     0
         -9.31376091   -3.50842774    0.00000000    c      0.000     0
          1.49517021   -0.17859802   -9.46303038    c      0.000     0
         -1.46652197   -0.15990863   -9.49727222    c      0.000     0
         -2.12694345   -2.49833133   -8.25305763    n      0.000     0
         -0.02575697   -3.98499778   -7.67166449    c      0.000     0
          2.10343526   -2.56929055   -8.29797642    n      0.000     0
          2.12197347    2.06505492   -8.00474762    n      0.000     0
          0.01808468    3.41424379   -7.24466197    c      0.000     0
         -2.08986703    2.13688341   -8.13632925    n      0.000     0
         -0.00054802    5.39703894   -6.06078635    o      0.000     0
         -0.05890276   -6.12080405   -6.85004936    o      0.000     0
         -4.58936999    3.20584480   -7.94284019    c      0.000     0
         -4.66269136   -3.49843109   -8.03991542    c      0.000     0
         -2.27540034   -0.09046119   11.40835225    h      0.000     0
          2.34751229   -0.04926516   11.35175496    h      0.000     0
          5.62187855    2.86968141    9.59370494    h      0.000     0
          4.45801513    5.08933483    7.29296337    h      0.000     0
          5.64202303   -3.29632488    9.87648356    h      0.000     0
          4.37509394   -5.65731092    7.77569391    h      0.000     0
        -11.14452759   -0.16293219    3.76225576    h      0.000     0
         -8.79361379   -0.12209521    7.74712125    h      0.000     0
         -4.36324536    5.21976373    7.54975826    h      0.000     0
         -5.58217541    2.92535275    9.74042328    h      0.000     0
         -4.46555513   -5.52281911    7.67215582    h      0.000     0
         -5.68650719   -3.17496667    9.81550210    h      0.000     0
         11.16584370   -0.66185768   -3.79816055    h      0.000     0
          8.78410847   -0.29829327   -7.74084736    h      0.000     0
          5.62187855    2.86968141   -9.59370494    h      0.000     0
          4.45801513    5.08933483   -7.29296337    h      0.000     0
          5.64202303   -3.29632488   -9.87648356    h      0.000     0
          4.37509394   -5.65731092   -7.77569391    h      0.000     0
          8.78410847   -0.29829327    7.74084736    h      0.000     0
         11.16584370   -0.66185768    3.79816055    h      0.000     0
          9.41087394    4.87880044    0.00000000    h      0.000     0
         11.68342079    2.34900517    0.00000000    h      0.000     0
          8.57412210   -5.82166040    0.00000000    h      0.000     0
         11.19993436   -3.65263274    0.00000000    h      0.000     0
         -8.79361379   -0.12209521   -7.74712125    h      0.000     0
        -11.14452759   -0.16293219   -3.76225576    h      0.000     0
        -11.39499189    2.85599980    0.00000000    h      0.000     0
         -8.95318227    5.21726929    0.00000000    h      0.000     0
        -11.36931051   -3.22642391    0.00000000    h      0.000     0
         -8.85580468   -5.52406633    0.00000000    h      0.000     0
          2.34751229   -0.04926516  -11.35175496    h      0.000     0
         -2.27540034   -0.09046119  -11.40835225    h      0.000     0
         -4.36324536    5.21976373   -7.54975826    h      0.000     0
         -5.58217541    2.92535275   -9.74042328    h      0.000     0
         -4.46555513   -5.52281911   -7.67215582    h      0.000     0
         -5.68650719   -3.17496667   -9.81550210    h      0.000     0
         -0.66782922    1.57591821    0.00000000    c      6.000     0
          0.56754145    4.17423495    0.00000000    c      6.000     0
          1.31660999   -0.54063175    0.00000000    c      6.000     0
          0.12929506   -3.17817920    0.00000000    c      6.000     0
         -1.40340511    6.24357955    0.00000000    n      7.000     0
         -2.58212179    6.12095523   -1.56679083    h      1.000     0
         -2.58212179    6.12095523    1.56679083    h      1.000     0
         -1.88439711    1.36939004   -1.66855259    h      1.000     0
         -1.88439711    1.36939004    1.66855259    h      1.000     0
          2.53748646   -0.31331659   -1.66122045    h      1.000     0
          2.53748646   -0.31331659    1.66122045    h      1.000     0
         -0.54907883    7.97687416    0.00000000    h      1.000     0
          1.72360031    4.48401776   -1.67596031    h      1.000     0
          1.72360031    4.48401776    1.67596031    h      1.000     0
          1.57434974   -4.65161757    0.00000000    h      1.000     0
         -1.05558212   -3.46651362    1.67068798    h      1.000     0
         -1.05558212   -3.46651362   -1.67068798    h      1.000     0
 
       center of nuclear mass  :    0.00955333   -0.12564713   -0.00000000
       center of nuclear charge:   -0.07550906    1.75831238    0.00000000

              +--------------------------------------------------+
              |               basis set information              |
              +--------------------------------------------------+

              we will work with the 1s 3p 5d 7f 9g ... basis set
              ...i.e. with spherical basis functions...

   type   atoms  prim   cont   basis
   ---------------------------------------------------------------------------
    c       40     50     30   cc-pVTZ   [4s3p2d1f|18s5p2d1f]
    n       25     50     30   cc-pVTZ   [4s3p2d1f|18s5p2d1f]
    o       12     50     30   cc-pVTZ   [4s3p2d1f|18s5p2d1f]
    h       48     16     14   cc-pVTZ   [3s2p1d|5s2p1d]
   ---------------------------------------------------------------------------
   total:  125   4618   2982
   ---------------------------------------------------------------------------

   total number of primitive shells          :   86
   total number of contracted shells         : 1058
   total number of cartesian basis functions : 3415
   total number of SCF-basis functions       : 2982


 integral neglect threshold       :  0.98E-14
 integral storage threshold THIZE :  0.10E-04
 integral storage threshold THIME :         5

 RI-J AUXILIARY BASIS SET information:

              we will work with the 1s 3p 5d 7f 9g ... basis set
              ...i.e. with spherical basis functions...

   type   atoms  prim   cont   basis
   ---------------------------------------------------------------------------
    c       40     70     49   cc-pVTZ   [6s4p3d1f1g|12s5p4d2f1g]
    n       25     70     49   cc-pVTZ   [6s4p3d1f1g|12s5p4d2f1g]
    o       12     70     49   cc-pVTZ   [6s4p3d1f1g|12s5p4d2f1g]
    h       48     16     11   cc-pVTZ   [3s1p1d|5s2p1d]
   ---------------------------------------------------------------------------
   total:  125   6158   4301
   ---------------------------------------------------------------------------

   total number of primitive shells          :   80
   total number of contracted shells         : 1395
   total number of cartesian basis functions : 5273
   total number of SCF-basis functions       : 4301


 symmetry group of the molecule :   c1 

 the group has the following generators :
   c1(z)

    1 symmetry operations found

 there are 1 real representations :   a   

 maximum number of shells which are related by symmetry :  1


    mo occupation :
   irrep   mo's   occupied
    a     2982       21
 
 number of basis functions   :         2982
 number of occupied orbitals :           21
 
  
           ------------------
           density functional
           ------------------
 Dummy atoms with grid-point found.
 DFT quadrature threshold dgrenze tightened by factor 1/10.

 PBE functional
 exchange:    LDA + PBE
 correlation: LDA (PW) + PBE
 Dummy atoms with grid-point found.
 DFT quadrature threshold dgrenze tightened by factor 1/10.

 Dummy atoms with grid-point found.
 DFT quadrature threshold dgrenze tightened by factor 1/10.

 grinp -> nfun, dfgga, dfhybrid 
           6 T F
 iterations will be done with small grid
  
 spherical integration : Lebedev's spherical grid
 spherical gridsize    :           5
    i.e. gridpoints    :         590
 value for diffuse not defined
 radial integration    : Chebyshev 2nd kind (scaling 3)
 radial gridsize       :           8
 integration cells     :         125
 partition function    : becke
 partition sharpness   :           3
  
 found dummy atom(s) with basis: included in dft

 <rddim> : input of entry tasksize
           from data group '$pardft' failed !

               Default values taken

 <rddim> : input of entry memdiv
           from data group '$pardft' failed !

               Default values taken
  RIDFT: memory allocation for DFT gridpoints
  MEMORY is divided by 1 as DEFAULT
 Each node can hold at most  the            1 -th part
 of the gridpoints    

 biggest AO integral is expected to be     4.866064444
  
           ------------------------
               RI-J - INFORMATION
           ------------------------
 
 
 **************************************************
 *      MEMORY ALLOCATION FOR PARALLEL RI-DFT     *
 **************************************************
 
 
MEMORY FOR (MU NU/ ALPHA), SEQUENTIAL RUN               7859 MByte
 
            DIFFERENCE IN MEMORY NEED:       DIAG./SLAVE  
 
      TOTAL DIFFERENCE :                    496 MByte
 
      difference in xcore:                  142 MByte
      difference in fatmat:                 130 MByte
      getcor calls skipped by slaves:       225 MByte
 
 
           Integral memory available for diagonal.      7859 MByte
 
           Integral memory available for slave             0 MByte
 
         MEMORY FOR (MU NU/ ALPHA) ON DIAGONALIZER      7859 MByte
 
         MEMORY FOR (MU NU/ ALPHA) ON ONE SLAVE            0 MByte
 
         TOTAL MEMORY FOR (MU NU/ ALPHA),ALL NODES      7859 MByte
 
 Contributions to RI integral batches: 
  neglected integral batches:      332059
  direct contribution:             165915
  memory contribution:       62237
 Memory core needed for (P|Q) and Cholesky    142 MByte
 Memory core minimum needed except of (P|Q)     2 MByte
 Total minimum memory core needed (sum)       144 MByte
     number of direct tasks:         160
  
 ****************************************
 Memory allocated for RI-J  8002 MByte
 ****************************************
                                            

          ------------------------
          nuclear repulsion energy  :   194.090624652    
          ------------------------

 
          -----------------
          -S integrals
          -----------------

 1e-integrals will be neglected if expon. factor < 0.978612E-15
 
          -----------------
          -T+V integrals
          -----------------

 1e-integrals will be neglected if expon. factor < 0.978612E-15
 Difference densities >>NOT<< switched on in parallel ridft!

 automatic virtual orbital shift switched on 
      shift if e(lumo)-e(homo) < 0.10000000    


 DIIS switched on: error vector is FDS-SDF
 Max. Iterations for DIIS is     :   4
 DIIS matrix (see manual) 
    Scaling factor of diagonals  :  1.200
    threshold for scaling factor :  0.000

 scf convergence criterion : increment of total energy < .1000000D-08
                  and increment of one-electron energy < .1000000D-05


 <geterg> : there is no data group $energy 

  MOs are in ASCII format !


 reading orbital data $scfmo  from file mos . 

 orbital characterization : expanded
 
 mo provided and orthogonalized by Cholesky decomposition

 DSCF restart information will be dumped onto file mos


 Starting SCF iterations


 ITERATION  ENERGY          1e-ENERGY        2e-ENERGY     RMS[dD(SAO)]   TOL
   1  -213.16275728980    -654.01156830     246.75818636    0.000D+00 0.976D-14
                            Exc = -31.4331220982     Coul =  278.191308455    
                              N = 42.000376337    
                            current damping = 0.700
 
          max. resid. norm for Fia-block=  2.759D-01 for orbital      1a         
          max. resid. fock norm         =  1.395D+01 for orbital   2763a         

 ITERATION  ENERGY          1e-ENERGY        2e-ENERGY     RMS[dD(SAO)]   TOL
   2  -213.77155847714    -660.20319627     252.34101314    0.302D-03 0.976D-14
                            Exc = -32.1039640775     Coul =  284.444977219    
                              N = 42.000281962    
                            current damping = 0.650
 
          Norm of current diis error:  1.8970    
          max. resid. norm for Fia-block=  1.231D-01 for orbital      1a         
          max. resid. fock norm         =  1.319D-01 for orbital      1a         

 ITERATION  ENERGY          1e-ENERGY        2e-ENERGY     RMS[dD(SAO)]   TOL
   3  -213.89720096390    -661.32627897     253.33845335    0.168D-03 0.976D-14
                            Exc = -32.2961470959     Coul =  285.634600447    
                              N = 42.000209466    
                            current damping = 0.550
 
          Norm of current diis error: 0.93772    
          max. resid. norm for Fia-block=  5.122D-02 for orbital      1a         
          max. resid. fock norm         =  5.407D-02 for orbital     22a         

 ITERATION  ENERGY          1e-ENERGY        2e-ENERGY     RMS[dD(SAO)]   TOL
   4  -213.93362644473    -662.66310736     254.63885626    0.960D-04 0.976D-14
                            Exc = -32.4660084619     Coul =  287.104864721    
                              N = 42.000151498    
                            current damping = 0.450
 
          Norm of current diis error: 0.34120    
          max. resid. norm for Fia-block=  1.845D-02 for orbital      1a         
          max. resid. fock norm         =  2.206D-02 for orbital   2304a         

 ITERATION  ENERGY          1e-ENERGY        2e-ENERGY     RMS[dD(SAO)]   TOL
   5  -213.93926196551    -662.85428688     254.82440026    0.482D-04 0.976D-14
                            Exc = -32.5061963541     Coul =  287.330596619    
                              N = 42.000126296    
                            current damping = 0.300
 
          Norm of current diis error: 0.13842    
          max. resid. norm for Fia-block=  7.429D-03 for orbital      6a         
          max. resid. fock norm         =  8.256D-03 for orbital     22a         
          mo-orthogonalization: Cholesky decomposition

 ITERATION  ENERGY          1e-ENERGY        2e-ENERGY     RMS[dD(SAO)]   TOL
   6  -213.94003408175    -663.13062848     255.09996974    0.210D-04 0.976D-14
                            Exc = -32.5414831081     Coul =  287.641452850    
                              N = 42.000116171    
                            current damping = 0.150
 
          Norm of current diis error: 0.62285E-01
          max. resid. norm for Fia-block=  2.998D-03 for orbital     10a         
          max. resid. fock norm         =  4.366D-03 for orbital   1258a         

 ITERATION  ENERGY          1e-ENERGY        2e-ENERGY     RMS[dD(SAO)]   TOL
   7  -213.94015896883    -663.10994055     255.07915693    0.643D-05 0.976D-14
                            Exc = -32.5400138861     Coul =  287.619170812    
                              N = 42.000113734    
                            current damping = 0.200
 
          Norm of current diis error: 0.20095E-01
          max. resid. norm for Fia-block=  7.710D-04 for orbital     13a         
          max. resid. fock norm         =  9.858D-04 for orbital     13a         

 ITERATION  ENERGY          1e-ENERGY        2e-ENERGY     RMS[dD(SAO)]   TOL
   8  -213.94016991809    -663.09611910     255.06532453    0.173D-05 0.976D-14
                            Exc = -32.5400129287     Coul =  287.605337458    
                              N = 42.000113595    
                            current damping = 0.050
 
          Norm of current diis error: 0.69445E-02
          max. resid. norm for Fia-block=  2.449D-04 for orbital     19a         
          max. resid. fock norm         =  3.287D-04 for orbital     17a         

 ITERATION  ENERGY          1e-ENERGY        2e-ENERGY     RMS[dD(SAO)]   TOL
   9  -213.94017112048    -663.11915128     255.08835550    0.784D-06 0.976D-14
                            Exc = -32.5416675131     Coul =  287.630023016    
                              N = 42.000113531    
                            current damping = 0.100
 
          Norm of current diis error: 0.34120E-02
          max. resid. norm for Fia-block=  1.063D-04 for orbital     19a         
          max. resid. fock norm         =  1.504D-04 for orbital   2896a         

 ITERATION  ENERGY          1e-ENERGY        2e-ENERGY     RMS[dD(SAO)]   TOL
  10  -213.94017147986    -663.11270222     255.08190609    0.274D-06 0.976D-14
                            Exc = -32.5412236674     Coul =  287.623129757    
                              N = 42.000113477    
                            current damping = 0.150
 
          Norm of current diis error: 0.72916E-03
          max. resid. norm for Fia-block=  3.574D-05 for orbital     15a         
          max. resid. fock norm         =  6.142D-05 for orbital   2894a         
          mo-orthogonalization: Cholesky decomposition

 DENSITY CONVERGED !


 ITERATION  ENERGY          1e-ENERGY        2e-ENERGY     RMS[dD(SAO)]   TOL
  11  -213.94017149105    -663.11144084     255.08064470    0.774D-07 0.976D-14
                            Exc = -32.5411137509     Coul =  287.621758447    
                              N = 42.000113534    
                            current damping = 0.050
 
          Norm of current diis error: 0.44456E-03
          max. resid. norm for Fia-block=  1.278D-05 for orbital     15a         
          max. resid. fock norm         =  2.157D-05 for orbital   2894a         

 DENSITY CONVERGED !


 ITERATION  ENERGY          1e-ENERGY        2e-ENERGY     RMS[dD(SAO)]   TOL
  12  -213.94017149753    -663.11219606     255.08139991    0.321D-07 0.976D-14
                            Exc = -32.5411780824     Coul =  287.622577989    
                              N = 42.000113511    
                            current damping = 0.100
 
          Norm of current diis error: 0.55569E-04
          max. resid. norm for Fia-block=  3.743D-06 for orbital     10a         
          max. resid. fock norm         =  4.642D-06 for orbital     11a         

 DENSITY CONVERGED !


 ITERATION  ENERGY          1e-ENERGY        2e-ENERGY     RMS[dD(SAO)]   TOL
  13  -213.94017149752    -663.11210688     255.08131073    0.616D-08 0.976D-14
                            Exc = -32.5411682460     Coul =  287.622478977    
                              N = 42.000113512    
                            current damping = 0.150
 
          Norm of current diis error: 0.58427E-04
          max. resid. norm for Fia-block=  1.563D-06 for orbital     13a         
          max. resid. fock norm         =  2.175D-06 for orbital     11a         

 ENERGY & DENSITY CONVERGED !


 ITERATION  ENERGY          1e-ENERGY        2e-ENERGY     RMS[dD(SAO)]   TOL
  14  -213.94018380653    -663.11209663     255.08128817    0.304D-08 0.976D-14
                            Exc = -32.5411810909     Coul =  287.622469265    
                              N = 42.000027422    
                            current damping = 0.050
 
          Norm of current diis error: 0.12875E-04
          max. resid. norm for Fia-block=  4.867D-07 for orbital     10a         
          max. resid. fock norm         =  5.722D-07 for orbital     11a         

 End of SCF iterations

   convergence criteria satisfied after   14 iterations


                  ------------------------------------------ 
                 |  total energy      =   -213.94018380653  |
                  ------------------------------------------ 
                 :  kinetic energy    =    212.44066066630  :
                 :  potential energy  =   -426.38084447283  :
                 :  virial theorem    =      1.99299092338  :
                 :  wavefunction norm =      1.00000000000  :
                  .......................................... 


 <geterg> : there is no data group $energy 


 <skperg> : $end is missing 


 orbitals $scfmo  will be written to file mos

    irrep                 17a         18a         19a         20a         21a   
 eigenvalues H         -0.50032    -0.47691    -0.45055    -0.43411    -0.42528
            eV         -13.6145    -12.9774    -12.2602    -11.8128    -11.5725
 occupation              2.0000      2.0000      2.0000      2.0000      2.0000 

    irrep                 22a         23a         24a         25a         26a   
 eigenvalues H         -0.21596    -0.16094    -0.15481    -0.14696    -0.11804
            eV          -5.8767     -4.3793     -4.2126     -3.9991     -3.2120
 
 
 ! grave: sending quit signal to master process
 
 
 
 
 ==============================================================================
                           electrostatic moments
 ==============================================================================

 reference point for electrostatic moments:    0.00000   0.00000   0.00000

 
              nuc           elec       ->  total
 ------------------------------------------------------------------------------
                          charge      
 ------------------------------------------------------------------------------
          43.000000     -42.000000       1.000000
 
 ------------------------------------------------------------------------------
                       dipole moment  
 ------------------------------------------------------------------------------
   x      -3.246890       2.283019      -0.963871
   y      75.607432     -70.551954       5.055478
   z       0.000000       0.000000       0.000000
 
   | dipole moment | =     5.1465 a.u. =    13.0812 debye 
 
 ------------------------------------------------------------------------------
                     quadrupole moment
 ------------------------------------------------------------------------------
  xx      73.160945     -93.410562     -20.249617
  yy     683.074478    -671.171034      11.903443
  zz      27.197192     -49.106481     -21.909289
  xy     -87.461245      80.135575      -7.325670
  xz       0.000000      -0.000000      -0.000000
  yz       0.000000       0.000000       0.000000
 
     1/3  trace=     -10.085154
     anisotropy=      35.368541
 
 ==============================================================================
 

    ridft profiling
  --------------------------------------------------------------------
             module   cpu total (s)       %  wall total (s)       %

               RIDFT          3291.1  100.00          3293.8  100.00
         Ridft_b_scf           155.7    4.73           155.7    4.73
        b_scf_prelim             0.0    0.00             0.0    0.00
        b_scf_molinp             0.0    0.00             0.0    0.00
         b_scf_init0             0.0    0.00             0.0    0.00
        b_scf_auxbas             0.0    0.00             0.0    0.00
      b_scf_symmetry             0.0    0.00             0.0    0.00
         b_scf_cosmo             0.0    0.00             0.0    0.00
        b_scf_params             4.1    0.12             4.1    0.12
          b_scf_ri-j            90.2    2.74            90.2    2.74
    b_scf_ri-j_auxpq            90.1    2.74            90.1    2.73
     ri-j_auxpq_chol            11.7    0.35            11.7    0.35
         b_scf_1elec             1.9    0.06             1.9    0.06
       b_scf_moinput            59.5    1.81            59.4    1.80
     moinput_orthmos            59.4    1.80            59.4    1.80
    b_scf_dft-dstmax             0.0    0.00             0.0    0.00
           Ridft_scf          3134.5   95.24          3137.2   95.24
          Scf_b_loop             0.0    0.00             0.0    0.00
                noga             0.0    0.00             0.0    0.00
            Scf_loop          3128.5   95.06          3130.9   95.05
     scf_loop_mkdmat             5.5    0.17             5.5    0.17
       scf_loop_ri-j           629.1   19.12           628.7   19.09
      parlp1.bc.dens             1.3    0.04             1.3    0.04
        parlp1.gs.gp             0.4    0.01             0.4    0.01
        parlp2.bc.gq             0.0    0.00             0.0    0.00
        scf_loop_dft          1962.8   59.64          1961.5   59.55
      pardft.bc.dens             0.0    0.00             0.0    0.00
        dft_grid_con            87.3    2.65            87.3    2.65
           dft_xcrhf          1831.7   55.66          1830.5   55.57
          dft_getval            87.3    2.65            87.2    2.65
          funct2 dst             1.7    0.05             1.7    0.05
      funct2 f2loop1            13.4    0.41            13.5    0.41
      funct2 f2loop2            46.0    1.40            46.0    1.40
          funct2 s+c            24.8    0.75            24.6    0.75
        funct2 cmf_2            22.2    0.67            22.2    0.67
          dft_mkdens           874.4   26.57           873.8   26.53
         dft_gga-fun             1.0    0.03             0.9    0.03
          dft_mkfock           867.8   26.37           867.3   26.33
     pardft.red.fock           230.4    7.00           230.3    6.99
     scf_loop_energy             0.1    0.00             0.1    0.00
     scf_loop_mkfock             0.2    0.00             0.1    0.00
       scf_loop_diis           277.3    8.42           277.1    8.41
       scf_loop_diag           144.9    4.40           144.8    4.40
         diag_tritrn            50.1    1.52            50.1    1.52
          diag_rdiag            94.5    2.87            94.4    2.87
     scf_loop_modump            70.7    2.15            75.2    2.28
      scf_loop_ortho            35.6    1.08            35.5    1.08
          Scf_a_loop             6.0    0.18             6.3    0.19
         Ridft_a_scf             0.9    0.03             1.0    0.03
         a_scf_fanal             0.9    0.03             0.9    0.03
 


    ------------------------------------------------------------------------
         total  cpu-time : 54 minutes and 59 seconds
         total wall-time : 55 minutes and  1 seconds
    ------------------------------------------------------------------------


   ****  ridft : all done  ****


    2016-01-31 09:15:15.408 

