STARTING dscf ON 16 PROCESSORS!
RUNNING PROGRAM /beegfs/modfac/apps/TURBOMOLE/7.2.1-official/bin/em64t-unknown-linux-gnu_mpi/dscf_mpi.
PLEASE WAIT UNTIL dscf HAS FINISHED.
Look for the output in slave1.output.
MACHINEFILE is ./hostlist
 this is node-proc. number 1 running on node c-5-20.local
 the total number of node-proc. spawned is  17
  parallel platform: MPP or cluster with fast interconnect

 dscf (c-5-20.local) : TURBOMOLE V7.2 ( 21471 ) 7 Nov 2017 at 16:15:16
 Copyright (C) 2017 TURBOMOLE GmbH, Karlsruhe


    2018-02-15 01:32:10.934 


 SCF run will be profiled !



                             d s c f - program

                   idea & directorship : reinhart ahlrichs
                   program development : marco haeser
                                         michael baer
                           dft version : oliver treutler
           parallelized version : malte v. arnim, gina corongiu, GMD 


                          quantum chemistry group
                          universitaet  karlsruhe
                                  germany




                          References             
                                                 
          TURBOMOLE:                             
              R. Ahlrichs, M. Baer, M. Haeser, H. Horn, and
              C. Koelmel
              Electronic structure calculations on workstation
              computers: the program system TURBOMOLE
              Chem. Phys. Lett. 162: 165 (1989)
          Density Functional:                              
              O. Treutler and R. Ahlrichs                      
              Efficient Molecular Numerical Integration Schemes
              J. Chem. Phys. 102: 346 (1995)                   
          Parallel Version:                                
              Performance of parallel TURBOMOLE for Density    
              Functional Calculations                          
              M. v. Arnim and R. Ahlrichs                      
              J. Comp. Chem. 19: 1746 (1998)                   
                                         




              +--------------------------------------------------+
              | Atomic coordinate, charge and isotop information |
              +--------------------------------------------------+

                    atomic coordinates            atom    charge  isotop
         -0.16655801    2.81121755    2.16090496    c      6.000     0
         -0.16655801    2.81121755   -2.16090496    c      6.000     0
          2.33480504    2.31416275    1.33241730    c      6.000     0
          2.33480504    2.31416275   -1.33241730    c      6.000     0
         -1.71828841    3.07976415    0.00000000    c      6.000     0
          4.11808207    1.08297655    2.79188941    c      6.000     0
          4.11808207    1.08297655   -2.79188941    c      6.000     0
         -1.04839190    2.15380922    4.52646669    c      6.000     0
         -1.04839190    2.15380922   -4.52646669    c      6.000     0
         -4.32032297    2.73176717    0.00000000    c      6.000     0
         -3.77805371    2.05590818   -4.67455165    c      6.000     0
         -3.77805371    2.05590818    4.67455165    c      6.000     0
          6.11260099   -0.09139818   -1.33738989    c      6.000     0
          6.11260099   -0.09139818    1.33738989    c      6.000     0
          3.43095449    0.94729140    5.46385086    c      6.000     0
          3.43095449    0.94729140   -5.46385086    c      6.000     0
          0.96214133    1.46208341    6.29326145    c      6.000     0
          0.96214133    1.46208341   -6.29326145    c      6.000     0
         -7.44040517   -1.02339788    6.70398375    c      6.000     0
         -7.44040517   -1.02339788   -6.70398375    c      6.000     0
         -5.35217441    2.40769388    2.53912509    c      6.000     0
         -5.35217441    2.40769388   -2.53912509    c      6.000     0
         -9.04495783   -0.50892580    4.67286077    c      6.000     0
         -9.04495783   -0.50892580   -4.67286077    c      6.000     0
          8.28200674   -4.77956095   -1.31933659    c      6.000     0
          8.28200674   -4.77956095    1.31933659    c      6.000     0
          5.30056021    2.75641791    9.91387503    c      6.000     0
          5.30056021    2.75641791   -9.91387503    c      6.000     0
          2.84940146    3.26516298   10.74083111    c      6.000     0
          2.84940146    3.26516298  -10.74083111    c      6.000     0
          2.41304118    5.17562830   12.51359438    c      6.000     0
          2.41304118    5.17562830  -12.51359438    c      6.000     0
          7.33680712    4.15443673  -10.85333635    c      6.000     0
          7.33680712    4.15443673   10.85333635    c      6.000     0
          8.20144164   -7.06081310    2.64943356    c      6.000     0
          8.20144164   -7.06081310   -2.64943356    c      6.000     0
         -7.68330770   -3.27925851    8.05668840    c      6.000     0
         -7.68330770   -3.27925851   -8.05668840    c      6.000     0
        -10.91837250   -2.24073285    3.98876740    c      6.000     0
        -10.91837250   -2.24073285   -3.98876740    c      6.000     0
         -9.59614095   -4.97336640   -7.41240049    c      6.000     0
         -9.59614095   -4.97336640    7.41240049    c      6.000     0
        -11.21170643   -4.45276124    5.38971248    c      6.000     0
        -11.21170643   -4.45276124   -5.38971248    c      6.000     0
          8.19862785   -9.33544757    1.32020444    c      6.000     0
          8.19862785   -9.33544757   -1.32020444    c      6.000     0
          6.90827581    6.00349809  -12.68008718    c      6.000     0
          6.90827581    6.00349809   12.68008718    c      6.000     0
          4.45325915    6.51300203   13.50771513    c      6.000     0
          4.45325915    6.51300203  -13.50771513    c      6.000     0
         -5.18626325    1.27287095   -7.61523210    s     16.000     0
         -5.18626325    1.27287095    7.61523210    s     16.000     0
          8.46116988   -1.86466886    2.95469675    s     16.000     0
          8.46116988   -1.86466886   -2.95469675    s     16.000     0
          0.29863622    1.42529942    9.59010115    s     16.000     0
          0.29863622    1.42529942   -9.59010115    s     16.000     0
          5.83036884    0.27772643    7.72354229    s     16.000     0
          5.83036884    0.27772643   -7.72354229    s     16.000     0
         -8.66943366    2.38513105    3.04699861    s     16.000     0
         -8.66943366    2.38513105   -3.04699861    s     16.000     0
        -12.13915879   -1.83632587    2.39145697    h      1.000     0
        -12.13915879   -1.83632587   -2.39145697    h      1.000     0
          0.49293758    5.58659172   13.10912969    h      1.000     0
          0.49293758    5.58659172  -13.10912969    h      1.000     0
          8.15458153   -7.03778754   -4.70053904    h      1.000     0
          8.15458153   -7.03778754    4.70053904    h      1.000     0
          9.23153457    3.77485335   10.16304126    h      1.000     0
          9.23153457    3.77485335  -10.16304126    h      1.000     0
         -6.39747466   -3.67972720   -9.60459755    h      1.000     0
         -6.39747466   -3.67972720    9.60459755    h      1.000     0
        -12.68866936   -5.78523907    4.88505938    h      1.000     0
        -12.68866936   -5.78523907   -4.88505938    h      1.000     0
         -9.81294190   -6.71202573   -8.48046814    h      1.000     0
         -9.81294190   -6.71202573    8.48046814    h      1.000     0
          8.16859062  -11.11070311   -2.34909373    h      1.000     0
          8.16859062  -11.11070311    2.34909373    h      1.000     0
          8.49138769    7.06675477   13.43798631    h      1.000     0
          8.49138769    7.06675477  -13.43798631    h      1.000     0
          4.12210389    7.97385757  -14.91036327    h      1.000     0
          4.12210389    7.97385757   14.91036327    h      1.000     0
 
       center of nuclear mass  :    0.08686213    0.42387031    0.00000000
       center of nuclear charge:    0.08012635    0.39067644    0.00000000

              +--------------------------------------------------+
              |               basis set information              |
              +--------------------------------------------------+

              we will work with the 1s 3p 5d 7f 9g ... basis set
              ...i.e. with spherical basis functions...

   type   atoms  prim   cont   basis
   ---------------------------------------------------------------------------
    c       50     50     30   cc-pVTZ   [4s3p2d1f|18s5p2d1f]
    s       10    106     34   cc-pVTZ   [5s4p2d1f|41s16p2d1f]
    h       20     16     14   cc-pVTZ   [3s2p1d|5s2p1d]
   ---------------------------------------------------------------------------
   total:   80   3880   2120
   ---------------------------------------------------------------------------

   total number of primitive shells          :   94
   total number of contracted shells         :  740
   total number of cartesian basis functions : 2440
   total number of SCF-basis functions       : 2120


 integral neglect threshold       :  0.14E-13
 integral storage threshold THIZE :  0.10E-04
 integral storage threshold THIME :         5


 DENSITY CONVERGENCE CHECK SWITCHED ON !
 SCF CONVERGENCE IF RMS(delta[D]) <     0.1000000000E-06


 symmetry group of the molecule :   c1 

 the group has the following generators :
   c1(z)

    1 symmetry operations found

 there are 1 real representations :   a   

 maximum number of shells which are related by symmetry :  1


    mo occupation :
   irrep   mo's   occupied
    a     2120      240
 
 number of basis functions   :                   2120
 number of occupied orbitals :                    240
 

 automatic virtual orbital shift switched on 
      shift if e(lumo)-e(homo) < 0.10000000    


 keyword $2e-ints_shell_statistics missing in file <control>

 ! One task per shell generated
  No pre-computed optimal task distribution found
  ... using automatic task generation

          ------------------------
          nuclear repulsion energy  :   10910.8412158    
          ------------------------


         -----------------
         -S,T+V- integrals
         -----------------

 1e-integrals will be neglected if expon. factor < 0.136966E-14
 
   Difference densities algorithm switched on.
   The maximal number of linear combinations of
   difference densities is                    20 .

 DIIS switched on: error vector is FDS-SDF
 Max. Iterations for DIIS is     :   5
 DIIS matrix (see manual) 
    Scaling factor of diagonals  :  1.200
    threshold for scaling factor :  0.000

 scf convergence criterion : increment of total energy < .1000000D-08
                  and increment of one-electron energy < .1000000D-05

  MOs are in ASCII format !


 reading orbital data $scfmo  from file mos
 orbital characterization : scfconv=9

 DSCF restart information will be dumped onto file mos

 
                                              current damping :  0.300
 ITERATION  ENERGY          1e-ENERGY        2e-ENERGY     RMS[dD(SAO)]   TOL
   1  -5881.0036303051    -29846.883410     13055.038564    0.000D+00 0.137D-13
          max. resid. norm for Fia-block=  2.696D-04 for orbital    230a         
          max. resid. fock norm         =  2.610D-03 for orbital   2063a         
          Delta Eig. =     0.1185166147 eV 
 
                                              current damping :  0.250
 ITERATION  ENERGY          1e-ENERGY        2e-ENERGY     RMS[dD(SAO)]   TOL
   2  -5881.0036323608    -29846.896132     13055.051284    0.139D-04 0.866D-14
          Norm of current diis error: 0.19468E-02
          max. resid. norm for Fia-block=  8.305D-05 for orbital    230a         
          max. resid. fock norm         =  6.117D-04 for orbital   2063a         
          Delta Eig. =     0.0273173687 eV 
 
                                              current damping :  0.200
 ITERATION  ENERGY          1e-ENERGY        2e-ENERGY     RMS[dD(SAO)]   TOL
   3  -5881.0036325696    -29846.891002     13055.046153    0.438D-05 0.687D-14
          Norm of current diis error: 0.56835E-03
          max. resid. norm for Fia-block=  2.131D-05 for orbital    230a         
          max. resid. fock norm         =  1.269D-04 for orbital   2063a         
          Delta Eig. =     0.0062027463 eV 
 
                                              current damping :  0.250
 ITERATION  ENERGY          1e-ENERGY        2e-ENERGY     RMS[dD(SAO)]   TOL
   4  -5881.0036325860    -29846.894129     13055.049280    0.108D-05 0.618D-14
          Norm of current diis error: 0.17800E-03
          max. resid. norm for Fia-block=  4.523D-06 for orbital    239a         
          max. resid. fock norm         =  2.101D-05 for orbital   2064a         
          Delta Eig. =     0.0008721562 eV 
 
                                              current damping :  0.300
 ITERATION  ENERGY          1e-ENERGY        2e-ENERGY     RMS[dD(SAO)]   TOL
   5  -5881.0036325880    -29846.893073     13055.048225    0.184D-06 0.587D-14
          Norm of current diis error: 0.52832E-04
          max. resid. norm for Fia-block=  1.660D-06 for orbital    220a         
          max. resid. fock norm         =  3.813D-06 for orbital   1883a         
 mo-orthogonalization: Cholesky decomposition
          Delta Eig. =     0.0001649947 eV 

 DENSITY CONVERGED !

 
                                              current damping :  0.350
 ITERATION  ENERGY          1e-ENERGY        2e-ENERGY     RMS[dD(SAO)]   TOL
   6  -5881.0036325882    -29846.893140     13055.048291    0.448D-07 0.555D-14
          Norm of current diis error: 0.21334E-04
          max. resid. norm for Fia-block=  9.628D-07 for orbital    238a         
          max. resid. fock norm         =  1.427D-06 for orbital   2064a         
          Delta Eig. =     0.0000555639 eV 

 DENSITY CONVERGED !

 
                                              current damping :  0.200
 ITERATION  ENERGY          1e-ENERGY        2e-ENERGY     RMS[dD(SAO)]   TOL
   7  -5881.0036325881    -29846.893170     13055.048322    0.147D-07 0.529D-14
          Norm of current diis error: 0.11896E-04
          max. resid. norm for Fia-block=  4.805D-07 for orbital    220a         
          max. resid. fock norm         =  5.048D-07 for orbital    244a         
          Delta Eig. =     0.0000179221 eV 

 DENSITY CONVERGED !

 
                                              current damping :  0.250
 ITERATION  ENERGY          1e-ENERGY        2e-ENERGY     RMS[dD(SAO)]   TOL
   8  -5881.0036325880    -29846.893159     13055.048311    0.787D-08 0.502D-14
          Norm of current diis error: 0.51197E-05
          max. resid. norm for Fia-block=  3.111D-07 for orbital    238a         
          max. resid. fock norm         =  3.391D-07 for orbital    241a         
          Delta Eig. =     0.0000039446 eV 

 ENERGY & DENSITY CONVERGED !

 
                                              current damping :  0.100
 ITERATION  ENERGY          1e-ENERGY        2e-ENERGY     RMS[dD(SAO)]   TOL
   9  -5881.0036325881    -29846.893156     13055.048308    0.388D-08 0.477D-14
          max. resid. norm for Fia-block=  1.022D-07 for orbital    238a         
          max. resid. fock norm         =  1.150D-07 for orbital    241a         

 convergence criteria satisfied after     9 iterations


                  ------------------------------------------ 
                 |  total energy      =  -5881.00363258814  |
                  ------------------------------------------ 
                 :  kinetic energy    =   5877.92301504393  :
                 :  potential energy  = -11758.92664763207  :
                 :  virial theorem    =      1.99947617486  :
                 :  wavefunction norm =      1.00000000000  :
                  .......................................... 


 orbitals $scfmo  will be written to file mos

    irrep                236a        237a        238a        239a        240a   
 eigenvalues H         -0.31487    -0.29651    -0.29636    -0.29428    -0.28533
            eV          -8.5681     -8.0685     -8.0645     -8.0079     -7.7644
 occupation              2.0000      2.0000      2.0000      2.0000      2.0000 

    irrep                241a        242a        243a        244a        245a   
 eigenvalues H          0.01697     0.02517     0.08533     0.09720     0.10014
            eV           0.4618      0.6848      2.3220      2.6449      2.7251
 
 
 
 
 ==============================================================================
                           electrostatic moments
 ==============================================================================

 reference point for electrostatic moments:    0.00000   0.00000   0.00000

 
              nuc           elec       ->  total
 ------------------------------------------------------------------------------
                          charge      
 ------------------------------------------------------------------------------
         480.000000    -480.000000      -0.000000
 
 ------------------------------------------------------------------------------
                       dipole moment  
 ------------------------------------------------------------------------------
   x      38.460649     -38.619119      -0.158470
   y     187.524691    -188.630593      -1.105903
   z       0.000000      -0.000000      -0.000000
 
   | dipole moment | =     1.1172 a.u. =     2.8396 debye 
 
 ------------------------------------------------------------------------------
                     quadrupole moment
 ------------------------------------------------------------------------------
  xx   20478.391448  -20774.511906    -296.120457
  yy    6101.850259   -6387.723848    -285.873589
  zz   23574.710581  -23864.127309    -289.416727
  xy     281.187808    -262.184009      19.003799
  xz       0.000000      -0.000000      -0.000000
  yz       0.000000      -0.000000      -0.000000
 
     1/3  trace=    -290.470258
     anisotropy=      34.127397
 
 ==============================================================================
 

    dscf profiling
  --------------------------------------------------------------------
             module   cpu total (s)       %  wall total (s)       %

          dscf.total          4357.3  100.00          4164.9  100.00
        dscf.prepare            12.4    0.28            12.5    0.30
      prepare.oneint             0.2    0.00             0.2    0.00
     prepare.moinput             3.7    0.09             3.7    0.09
     moinput_orthmos             8.2    0.19             8.2    0.20
            dscf.scf          4343.7   99.69          4151.2   99.67
             scf.pre             0.0    0.00             0.0    0.00
        scf.makedmat             4.9    0.11             5.0    0.12
          scf.shloop          3969.5   91.10          3966.4   95.23
          shloop_omp          3969.1   91.09          3966.0   95.22
          scf.symcar             0.6    0.01             0.6    0.02
        scf.makefock             1.0    0.02             1.3    0.03
          scf.newerg             0.1    0.00             0.1    0.00
          scf.newcnv            64.4    1.48             8.2    0.20
           scf.fdiag           130.0    2.98            16.8    0.40
         diag_tritrn            42.9    0.98             5.4    0.13
          diag_rdiag            83.2    1.91            10.9    0.26
          scf.modump           143.7    3.30           132.0    3.17
           ortho_all             9.5    0.22             3.6    0.09
            scf.post            18.6    0.43            17.0    0.41
        dscf.postscf             1.2    0.03             1.3    0.03
 


    ------------------------------------------------------------------------
         total  cpu-time :  1 hours 12 minutes and 38 seconds
         total wall-time :  1 hours  9 minutes and 26 seconds
    ------------------------------------------------------------------------

   ****  dscf : all done  ****


    2018-02-15 02:41:35.962 

