STARTING dscf ON 16 PROCESSORS!
RUNNING PROGRAM /beegfs/modfac/apps/TURBOMOLE/7.2.1-official/bin/em64t-unknown-linux-gnu_mpi/dscf_mpi.
PLEASE WAIT UNTIL dscf HAS FINISHED.
Look for the output in slave1.output.
MACHINEFILE is ./hostlist
 this is node-proc. number 1 running on node c-15-41.local
 the total number of node-proc. spawned is  17
  parallel platform: MPP or cluster with fast interconnect

 dscf (c-15-41.local) : TURBOMOLE V7.2 ( 21471 ) 7 Nov 2017 at 16:15:16
 Copyright (C) 2017 TURBOMOLE GmbH, Karlsruhe


    2018-02-14 09:48:37.366 


 SCF run will be profiled !



                             d s c f - program

                   idea & directorship : reinhart ahlrichs
                   program development : marco haeser
                                         michael baer
                           dft version : oliver treutler
           parallelized version : malte v. arnim, gina corongiu, GMD 


                          quantum chemistry group
                          universitaet  karlsruhe
                                  germany




                          References             
                                                 
          TURBOMOLE:                             
              R. Ahlrichs, M. Baer, M. Haeser, H. Horn, and
              C. Koelmel
              Electronic structure calculations on workstation
              computers: the program system TURBOMOLE
              Chem. Phys. Lett. 162: 165 (1989)
          Density Functional:                              
              O. Treutler and R. Ahlrichs                      
              Efficient Molecular Numerical Integration Schemes
              J. Chem. Phys. 102: 346 (1995)                   
          Parallel Version:                                
              Performance of parallel TURBOMOLE for Density    
              Functional Calculations                          
              M. v. Arnim and R. Ahlrichs                      
              J. Comp. Chem. 19: 1746 (1998)                   
                                         




              +--------------------------------------------------+
              | Atomic coordinate, charge and isotop information |
              +--------------------------------------------------+

                    atomic coordinates            atom    charge  isotop
         -5.15269622   -1.49751083    0.00000000    c      6.000     0
         -3.00705392    0.44567660    0.00000000    c      6.000     0
         -0.39443384   -0.80942280    0.00000000    c      6.000     0
          1.71855890    1.14347612    0.00000000    c      6.000     0
          4.27353760   -0.09642687    0.00000000    n      7.000     0
          4.50165703   -1.22112629    1.55661749    h      1.000     0
          5.74673163    1.28287101    0.00000000    h      1.000     0
          4.50165703   -1.22112629   -1.55661749    h      1.000     0
         -6.99946037   -0.56392489    0.00000000    h      1.000     0
         -5.04823215   -2.71227120   -1.67478415    h      1.000     0
         -5.04823215   -2.71227120    1.67478415    h      1.000     0
         -3.17430905    1.67160147    1.66483625    h      1.000     0
         -3.17430905    1.67160147   -1.66483625    h      1.000     0
         -0.20676741   -2.02591813    1.67034669    h      1.000     0
         -0.20676741   -2.02591813   -1.67034669    h      1.000     0
          1.65296896    2.34247296    1.67799366    h      1.000     0
          1.65296896    2.34247296   -1.67799366    h      1.000     0
          8.36418128    3.98574441    0.00000000    cl    17.000     0
 
       center of nuclear mass  :    2.44928440    1.16914103    0.00000000
       center of nuclear charge:    2.08816667    0.99340742    0.00000000

              +--------------------------------------------------+
              |               basis set information              |
              +--------------------------------------------------+

              we will work with the 1s 3p 5d 7f 9g ... basis set
              ...i.e. with spherical basis functions...

   type   atoms  prim   cont   basis
   ---------------------------------------------------------------------------
    c        4     77     57   def2-QZVP   [7s4p3d2f1g|15s8p3d2f1g]
    n        1     77     57   def2-QZVP   [7s4p3d2f1g|15s8p3d2f1g]
    h       12     33     30   def2-QZVP   [4s3p2d1f|7s3p2d1f]
    cl       1    105     70   def2-QZVP   [9s6p4d2f1g|20s14p4d2f1g]
   ---------------------------------------------------------------------------
   total:   18    886    715
   ---------------------------------------------------------------------------

   total number of primitive shells          :  112
   total number of contracted shells         :  227
   total number of cartesian basis functions :  866
   total number of SCF-basis functions       :  715


 integral neglect threshold       :  0.38E-13
 integral storage threshold THIZE :  0.10E-04
 integral storage threshold THIME :         5


 DENSITY CONVERGENCE CHECK SWITCHED ON !
 SCF CONVERGENCE IF RMS(delta[D]) <     0.1000000000E-06


 symmetry group of the molecule :   c1 

 the group has the following generators :
   c1(z)

    1 symmetry operations found

 there are 1 real representations :   a   

 maximum number of shells which are related by symmetry :  1


    mo occupation :
   irrep   mo's   occupied
    a      715       30
 
 number of basis functions   :                    715
 number of occupied orbitals :                     30
 

 automatic virtual orbital shift switched on 
      shift if e(lumo)-e(homo) < 0.10000000    


 keyword $2e-ints_shell_statistics missing in file <control>

 ! One task per shell generated
  No pre-computed optimal task distribution found
  ... using automatic task generation

          ------------------------
          nuclear repulsion energy  :   278.462747858    
          ------------------------


         -----------------
         -S,T+V- integrals
         -----------------

 1e-integrals will be neglected if expon. factor < 0.385908E-14
 
   Difference densities algorithm switched on.
   The maximal number of linear combinations of
   difference densities is                    20 .

 DIIS switched on: error vector is FDS-SDF
 Max. Iterations for DIIS is     :   5
 DIIS matrix (see manual) 
    Scaling factor of diagonals  :  1.200
    threshold for scaling factor :  0.000

 scf convergence criterion : increment of total energy < .1000000D-08
                  and increment of one-electron energy < .1000000D-05

  MOs are in ASCII format !


 reading orbital data $scfmo  from file mos
 orbital characterization : scfconv=9

 DSCF restart information will be dumped onto file mos

 
                                              current damping :  0.300
 ITERATION  ENERGY          1e-ENERGY        2e-ENERGY     RMS[dD(SAO)]   TOL
   1  -672.53294798294    -1475.0097457     524.01404988    0.000D+00 0.385D-13
          max. resid. norm for Fia-block=  3.874D-04 for orbital     17a         
          max. resid. fock norm         =  1.120D-02 for orbital    696a         
          Delta Eig. =     4.4615186205 eV 
 
                                              current damping :  0.250
 ITERATION  ENERGY          1e-ENERGY        2e-ENERGY     RMS[dD(SAO)]   TOL
   2  -672.53294853651    -1475.0102965     524.01460014    0.727D-05 0.244D-13
          Norm of current diis error: 0.13767E-02
          max. resid. norm for Fia-block=  1.143D-04 for orbital     17a         
          max. resid. fock norm         =  2.588D-03 for orbital    696a         
          Delta Eig. =     1.0705640006 eV 
 
                                              current damping :  0.200
 ITERATION  ENERGY          1e-ENERGY        2e-ENERGY     RMS[dD(SAO)]   TOL
   3  -672.53294858788    -1475.0102384     524.01454200    0.263D-05 0.191D-13
          Norm of current diis error: 0.31414E-03
          max. resid. norm for Fia-block=  2.526D-05 for orbital     17a         
          max. resid. fock norm         =  5.182D-04 for orbital    696a         
          Delta Eig. =     0.2230624397 eV 
 
                                              current damping :  0.250
 ITERATION  ENERGY          1e-ENERGY        2e-ENERGY     RMS[dD(SAO)]   TOL
   4  -672.53294859082    -1475.0103095     524.01461309    0.670D-06 0.169D-13
          Norm of current diis error: 0.62490E-04
          max. resid. norm for Fia-block=  4.566D-06 for orbital     18a         
          max. resid. fock norm         =  8.631D-05 for orbital    696a         
          Delta Eig. =     0.0356813900 eV 
 
                                              current damping :  0.300
 ITERATION  ENERGY          1e-ENERGY        2e-ENERGY     RMS[dD(SAO)]   TOL
   5  -672.53294859095    -1475.0103034     524.01460690    0.127D-06 0.156D-13
          Norm of current diis error: 0.17182E-04
          max. resid. norm for Fia-block=  1.062D-06 for orbital     18a         
          max. resid. fock norm         =  1.731D-05 for orbital    696a         
 mo-orthogonalization: Cholesky decomposition
          Delta Eig. =     0.0068595091 eV 

 DENSITY CONVERGED !

 
                                              current damping :  0.350
 ITERATION  ENERGY          1e-ENERGY        2e-ENERGY     RMS[dD(SAO)]   TOL
   6  -672.53294859096    -1475.0103077     524.01461130    0.298D-07 0.145D-13
          Norm of current diis error: 0.59103E-05
          max. resid. norm for Fia-block=  4.192D-07 for orbital     28a         
          max. resid. fock norm         =  3.983D-06 for orbital    696a         
          Delta Eig. =     0.0015263508 eV 

 ENERGY & DENSITY CONVERGED !

 
                                              current damping :  0.400
 ITERATION  ENERGY          1e-ENERGY        2e-ENERGY     RMS[dD(SAO)]   TOL
   7  -672.53294859096    -1475.0103075     524.01461105    0.882D-08 0.136D-13
          max. resid. norm for Fia-block=  1.517D-07 for orbital     28a         
          max. resid. fock norm         =  1.036D-06 for orbital    696a         

 convergence criteria satisfied after     7 iterations


                  ------------------------------------------ 
                 |  total energy      =   -672.53294859096  |
                  ------------------------------------------ 
                 :  kinetic energy    =    672.14565942938  :
                 :  potential energy  =  -1344.67860802034  :
                 :  virial theorem    =      1.99942413355  :
                 :  wavefunction norm =      1.00000000000  :
                  .......................................... 


 orbitals $scfmo  will be written to file mos

    irrep                 26a         27a         28a         29a         30a   
 eigenvalues H         -0.51679    -0.51315    -0.33848    -0.32733    -0.32729
            eV         -14.0626    -13.9636     -9.2106     -8.9072     -8.9061
 occupation              2.0000      2.0000      2.0000      2.0000      2.0000 

    irrep                 31a         32a         33a         34a         35a   
 eigenvalues H          0.05672     0.08432     0.08496     0.09480     0.11904
            eV           1.5435      2.2945      2.3120      2.5797      3.2393
 
 
 
 
 ==============================================================================
                           electrostatic moments
 ==============================================================================

 reference point for electrostatic moments:    0.00000   0.00000   0.00000

 
              nuc           elec       ->  total
 ------------------------------------------------------------------------------
                          charge      
 ------------------------------------------------------------------------------
          60.000000     -60.000000       0.000000
 
 ------------------------------------------------------------------------------
                       dipole moment  
 ------------------------------------------------------------------------------
   x     125.290000    -129.064614      -3.774614
   y      59.604445     -62.625155      -3.020710
   z       0.000000      -0.000000      -0.000000
 
   | dipole moment | =     4.8345 a.u. =    12.2881 debye 
 
 ------------------------------------------------------------------------------
                     quadrupole moment
 ------------------------------------------------------------------------------
  xx    1748.582986   -1824.020632     -75.437646
  yy     340.983445    -387.572341     -46.588895
  zz      27.210721     -61.498797     -34.288076
  xy     641.494509    -667.280334     -25.785825
  xz       0.000000       0.000000       0.000000
  yz       0.000000       0.000000       0.000000
 
     1/3  trace=     -52.104872
     anisotropy=      57.733441
 
 ==============================================================================
 

    dscf profiling
  --------------------------------------------------------------------
             module   cpu total (s)       %  wall total (s)       %

          dscf.total           342.1  100.00           318.3  100.00
        dscf.prepare             1.3    0.38             1.3    0.42
      prepare.oneint             0.0    0.01             0.0    0.01
     prepare.moinput             0.9    0.26             0.9    0.28
     moinput_orthmos             0.2    0.07             0.2    0.07
            dscf.scf           340.3   99.48           316.4   99.42
             scf.pre             0.0    0.00             0.0    0.00
        scf.makedmat             0.4    0.11             0.4    0.13
          scf.shloop           290.8   85.01           291.6   91.62
          shloop_omp           290.8   84.99           291.5   91.60
          scf.symcar             0.1    0.02             0.1    0.03
        scf.makefock             0.1    0.04             0.3    0.09
          scf.newerg             0.0    0.00             0.0    0.00
          scf.newcnv             3.2    0.94             0.5    0.14
           scf.fdiag            11.3    3.29             1.4    0.45
         diag_tritrn             2.2    0.63             0.3    0.09
          diag_rdiag             7.3    2.12             0.9    0.29
          scf.modump            26.7    7.81            18.2    5.73
           ortho_all             1.4    0.40             0.2    0.06
            scf.post             5.3    1.54             3.6    1.12
        dscf.postscf             0.5    0.14             0.5    0.16
 


    ------------------------------------------------------------------------
         total  cpu-time :  5 minutes and 43 seconds
         total wall-time :  5 minutes and 19 seconds
    ------------------------------------------------------------------------

   ****  dscf : all done  ****


    2018-02-14 09:53:55.694 

