 this is node-proc. number 0 running on node c-15-41.local
 the total number of node-proc. spawned is  17

 dscfserver (c-15-41.local) : TURBOMOLE V7.2 ( 21471 ) 7 Nov 2017 at 16:15:16
 Copyright (C) 2017 TURBOMOLE GmbH, Karlsruhe


    2018-02-14 09:48:37.205 

 
    0:00:01 ---- Start global counter...
    0:01:05 ---- ... finished.
 
    0:01:09 ---- Start global counter...
    0:02:03 ---- ... finished.
 
    0:02:06 ---- Start global counter...
    0:02:54 ---- ... finished.
 
    0:02:58 ---- Start global counter...
    0:03:37 ---- ... finished.
 
    0:03:40 ---- Start global counter...
    0:04:13 ---- ... finished.
 
    0:04:17 ---- Start global counter...
    0:04:46 ---- ... finished.
 
    0:04:50 ---- Start global counter...
    0:05:14 ---- ... finished.
 
    0:05:18 ---- ByeBye Tag received


 ! Total wall-clock time in seconds  :      318.1
 ! Time (sec) spent in global counter:      291.3
 ! So-called SERIAL wall-clock time  :       26.9

  *** Regular termination of server ***
 total turnaround time of dscfserver   318.45 sec
 cpu elapsed by dscfserver process     290.59 sec 

   ***  dscf server : all done  ***


    2018-02-14 09:53:55.654 

