
   OpenMP run-time library returned nthreads =  8
 operating system is UNIX !

 dscf (c-13-222) : TURBOMOLE V7.3 ( 22142 ) 4 Jul 2018 at 18:12:42
 Copyright (C) 2018 TURBOMOLE GmbH, Karlsruhe


    2019-04-02 13:10:56.393 



                             d s c f - program

                   idea & directorship : reinhart ahlrichs
                   program development : marco haeser
                                         michael baer
                           dft version : oliver treutler


                          quantum chemistry group
                          universitaet  karlsruhe
                                  germany




                          References             
                                                 
          TURBOMOLE:                             
              R. Ahlrichs, M. Baer, M. Haeser, H. Horn, and
              C. Koelmel
              Electronic structure calculations on workstation
              computers: the program system TURBOMOLE
              Chem. Phys. Lett. 162: 165 (1989)
          Density Functional:                              
              O. Treutler and R. Ahlrichs                      
              Efficient Molecular Numerical Integration Schemes
              J. Chem. Phys. 102: 346 (1995)                   
          Parallel Version:                                
              Performance of parallel TURBOMOLE for Density    
              Functional Calculations                          
              M. v. Arnim and R. Ahlrichs                      
              J. Comp. Chem. 19: 1746 (1998)                   
                                         




              +--------------------------------------------------+
              | Atomic coordinate, charge and isotop information |
              +--------------------------------------------------+

                    atomic coordinates            atom    charge  isotop
         -1.32695823   -0.10593853    0.01878815    o      0.000     0
         -1.93166525    1.60017432   -0.02171052    h      0.000     0
          0.48664428    0.07959809    0.00986248    h      0.000     0
          4.19683809    0.05048742    0.00117253    o      8.000     0
          4.90854980   -0.77793085    1.44893780    h      1.000     0
          4.90031570   -0.84942468   -1.40743406    h      1.000     0
 
       center of nuclear mass  :    1.50834956   -0.02315665    0.00969316
       center of nuclear charge:    4.33835702   -0.12234562    0.00508840

              +--------------------------------------------------+
              |               basis set information              |
              +--------------------------------------------------+

              we will work with the 1s 3p 5d 7f 9g ... basis set
              ...i.e. with spherical basis functions...

   type   atoms  prim   cont   basis
   ---------------------------------------------------------------------------
    o        2     50     30   cc-pVTZ   [4s3p2d1f|18s5p2d1f]
    h        4     16     14   cc-pVTZ   [3s2p1d|5s2p1d]
   ---------------------------------------------------------------------------
   total:    6    164    116
   ---------------------------------------------------------------------------

   total number of primitive shells          :   34
   total number of contracted shells         :   44
   total number of cartesian basis functions :  130
   total number of SCF-basis functions       :  116


 integral neglect threshold       :  0.26E-12
 integral storage threshold THIZE :  0.10E-04
 integral storage threshold THIME :         5


 DENSITY CONVERGENCE CHECK SWITCHED ON !
 SCF CONVERGENCE IF RMS(delta[D]) <     0.1000000000E-06


 symmetry group of the molecule :   c1 

 the group has the following generators :
   c1(z)

    1 symmetry operations found

 there are 1 real representations :   a   

 maximum number of shells which are related by symmetry :  1


    mo occupation :
   irrep   mo's   occupied
    a      116        5
 
 number of basis functions   :                    116
 number of occupied orbitals :                      5
 

 automatic virtual orbital shift switched on 
      shift if e(lumo)-e(homo) < 0.10000000    


          ------------------------
          nuclear repulsion energy  :   9.17259111426    
          ------------------------


         -----------------
         -S,T+V- integrals
         -----------------

 1e-integrals will be neglected if expon. factor < 0.257074E-13
 
   Difference densities algorithm switched on.
   The maximal number of linear combinations of
   difference densities is                    20 .

 DIIS switched on: error vector is FDS-SDF
 Max. Iterations for DIIS is     :   5
 DIIS matrix (see manual) 
    Scaling factor of diagonals  :  1.200
    threshold for scaling factor :  0.000

 scf convergence criterion : increment of total energy < .1000000D-08
                  and increment of one-electron energy < .1000000D-05

  MOs are in ASCII format !


 reading orbital data $scfmo  from file mos
 orbital characterization : scfconv=9

 DSCF restart information will be dumped onto file mos

 
                                              current damping :  0.700
 ITERATION  ENERGY          1e-ENERGY        2e-ENERGY     RMS[dD(SAO)]   TOL
   1  -76.058008739332    -123.05399954     37.823399687    0.000D+00 0.256D-12
          max. resid. norm for Fia-block=  2.129D-07 for orbital      5a         
          max. resid. fock norm         =  2.195D-07 for orbital      5a         
          Delta Eig. =     0.0000000039 eV 
 
                                              current damping :  0.700
 ITERATION  ENERGY          1e-ENERGY        2e-ENERGY     RMS[dD(SAO)]   TOL
   2  -76.058008739332    -123.05400024     37.823400386    0.338D-08 0.163D-12
          Norm of current diis error: 0.77920E-06
          max. resid. norm for Fia-block=  1.629D-07 for orbital      5a         
          max. resid. fock norm         =  1.692D-07 for orbital      5a         
          Delta Eig. =     0.0000036270 eV 

 ENERGY & DENSITY CONVERGED !

 
                                              current damping :  0.750
 ITERATION  ENERGY          1e-ENERGY        2e-ENERGY     RMS[dD(SAO)]   TOL
   3  -76.058008739333    -123.05400016     37.823400302    0.261D-08 0.116D-12
          max. resid. norm for Fia-block=  9.412D-08 for orbital      5a         
          max. resid. fock norm         =  9.761D-08 for orbital      5a         

 convergence criteria satisfied after     3 iterations


                  ------------------------------------------ 
                 |  total energy      =    -76.05800873933  |
                  ------------------------------------------ 
                 :  kinetic energy    =     75.98388205128  :
                 :  potential energy  =   -152.04189079061  :
                 :  virial theorem    =      1.99902539273  :
                 :  wavefunction norm =      1.00000000000  :
                  .......................................... 


 orbitals $scfmo  will be written to file mos

    irrep                  1a          2a          3a          4a          5a   
 eigenvalues H        -20.55931    -1.34734    -0.70993    -0.58045    -0.50657
            eV        -559.4517    -36.6632    -19.3185    -15.7950    -13.7846
 occupation              2.0000      2.0000      2.0000      2.0000      2.0000 

    irrep                  6a          7a          8a          9a         10a   
 eigenvalues H          0.12628     0.16008     0.20300     0.27387     0.45868
            eV           3.4363      4.3561      5.5240      7.4525     12.4815
 
 
 
 
 ==============================================================================
                           electrostatic moments
 ==============================================================================

 reference point for electrostatic moments:    0.00000   0.00000   0.00000

 
              nuc           elec       ->  total
 ------------------------------------------------------------------------------
                          charge      
 ------------------------------------------------------------------------------
          10.000000     -10.000000      -0.000000
 
 ------------------------------------------------------------------------------
                       dipole moment  
 ------------------------------------------------------------------------------
   x      43.383570     -42.859053       0.524518
   y      -1.223456       0.608552      -0.614904
   z       0.050884      -0.037007       0.013877
 
   | dipole moment | =     0.8083 a.u. =     2.0546 debye 
 
 ------------------------------------------------------------------------------
                     quadrupole moment
 ------------------------------------------------------------------------------
  xx     189.014555    -189.596993      -0.582438
  yy       1.347091      -6.086054      -4.738964
  zz       4.080302      -7.208644      -3.128342
  xy      -6.285861       3.095065      -3.190796
  xz       0.254679      -0.174542       0.080137
  yz       0.068809      -0.028207       0.040603
 
     1/3  trace=      -2.816581
     anisotropy=       6.613922
 
 ==============================================================================
 


    ------------------------------------------------------------------------
         total  cpu-time :   5.47 seconds
         total wall-time :   0.94 seconds
    ------------------------------------------------------------------------

   ****  dscf : all done  ****


    2019-04-02 13:10:57.311 

