           Doing BLAS/Lapack in the master proc. with  8 CPUs.
           SMPCPUS    set: Shared-memory Parallelization with   8 CPUs.

           SMP Parallelization Reference:
           C. van Wullen, J. Comput. Chem. 32 (2011) 1195--1201
 operating system is UNIX !

 ridft (c-18-133.gp.local) : TURBOMOLE V7.2 ( 21454 ) 4 Oct 2017 at 12:48:15
 Copyright (C) 2017 TURBOMOLE GmbH, Karlsruhe


    2018-04-28 20:59:16.573 



                                  r i d f t

                        DFT program with RI approximation 
                                for coulomb part 




                                                 
                                 References:     
                                                 
          TURBOMOLE:                             
              R. Ahlrichs, M. Baer, M. Haeser, H. Horn, and
              C. Koelmel
              Electronic structure calculations on workstation
              computers: the program system TURBOMOLE
              Chem. Phys. Lett. 162: 165 (1989)
          Density Functional:                              
              O. Treutler and R. Ahlrichs                      
              Efficient Molecular Numerical Integration Schemes
              J. Chem. Phys. 102: 346 (1995)                   
          Parallel Version:                                
              Performance of parallel TURBOMOLE for Density    
              Functional Calculations                          
              M. v. Arnim and R. Ahlrichs                      
              J. Comp. Chem. 19: 1746 (1998)                   
          RI-J Method:                                     
              Auxiliary Basis Sets to approximate Coulomb      
              Potentials                                       
              Chem. Phys. Lett. 240: 283 (1995)                
              K. Eichkorn, O. Treutler, H. Oehm, M. Haeser     
              and R. Ahlrichs                                  
              Chem. Phys. Lett. 242: 652 (1995)                
                                                           
              Auxiliary Basis Sets for Main Row Atoms and their
              Use to approximate Coulomb Potentials            
              K. Eichkorn, F. Weigend, O. Treutler and         
              R. Ahlrichs                                      
              Theo. Chem. Acc. 97: 119 (1997)                   
                                                           
              Accurate Coulomb-fitting basis sets for H to Rn 
              F. Weigend                                        
              Phys. Chem. Chem. Phys. 8: 1057 (2006)            
                                                           
          Multipole accelerated RI-J (MARI-J):             
              Fast evaluation of the Coulomb potential for     
              electron densities using multipole accelerated   
              resolution of identity approximation             
              M. Sierka, A. Hogekamp and R. Ahlrichs           
              J. Chem. Phys. 118: 9136 (2003)                  
          RI-JK Method:                                     
              A fully direct RI-HF algorithm: Implementation,
              optimised auxiliary basis sets, demonstration of
              accuracy and efficiency                         
              F. Weigend                                      
              Phys. Chem. Chem. Phys. 4: 4285 (2002)           
          Two-component HF and DFT with spin-orbit coupling:  
              Self-consistent treatment of spin-orbit         
              interactions with efficient Hartree-Fock and    
              density functional methods                      
              M. K. Armbruster, F. Weigend, C. van Wüllen and 
              W. Klopper                                      
              Phys. Chem. Chem. Phys. 10: 1748 (2008)         
          Relativistic all-electron 2c calculations           
              An efficient implementation of two-component    
              relativistic exact-decoupling methods for large 
              molecules                                       
              D. Peng, N. Middendorf, F. Weigend, M. Reiher   
              J. Chem. Phys. 138, 184105 (2013)               
                                         




              +--------------------------------------------------+
              |      general information about current run       |
              +--------------------------------------------------+

 

 DENSITY CONVERGENCE CHECK SWITCHED ON !
 SCF CONVERGENCE IF RMS(delta[D]) <     0.1000000000E-06

 PBE functional
 exchange:    LDA + PBE
 correlation: LDA (PW) + PBE
 A DFT calculation using the RI-J approximation will be carried out.
 Allocatable memory for RI due to $ricore (MB):                  5000


              +--------------------------------------------------+
              | Atomic coordinate, charge and isotop information |
              +--------------------------------------------------+

                    atomic coordinates            atom    charge  isotop
         -0.08646646    0.97887259    7.13601528    c      6.000     0
         -0.09569128    2.38137783    8.62111811    h      1.000     0
         -1.31201575    1.29590937    5.53223577    h      1.000     0
          1.36580754   -1.07518777    7.26793633    c      6.000     0
          2.58525720   -1.39989118    8.87444517    h      1.000     0
          1.35614729   -2.46451467    5.77068878    h      1.000     0
 
       center of nuclear mass  :    0.63877286   -0.04795956    7.20163751
       center of nuclear charge:    0.63810900   -0.04781311    7.20138734

              +--------------------------------------------------+
              |               basis set information              |
              +--------------------------------------------------+

              we will work with the 1s 3p 5d 7f 9g ... basis set
              ...i.e. with spherical basis functions...

   type   atoms  prim   cont   basis
   ---------------------------------------------------------------------------
    c        2     50     30   cc-pVTZ   [4s3p2d1f|18s5p2d1f]
    h        4     16     14   cc-pVTZ   [3s2p1d|5s2p1d]
   ---------------------------------------------------------------------------
   total:    6    164    116
   ---------------------------------------------------------------------------

   total number of primitive shells          :   34
   total number of contracted shells         :   44
   total number of cartesian basis functions :  130
   total number of SCF-basis functions       :  116


 integral neglect threshold       :  0.26E-12
 integral storage threshold THIZE :  0.10E-04
 integral storage threshold THIME :         5

 RI-J AUXILIARY BASIS SET information:

              we will work with the 1s 3p 5d 7f 9g ... basis set
              ...i.e. with spherical basis functions...

   type   atoms  prim   cont   basis
   ---------------------------------------------------------------------------
    c        2     70     49   cc-pVTZ   [6s4p3d1f1g|12s5p4d2f1g]
    h        4     16     11   cc-pVTZ   [3s1p1d|5s2p1d]
   ---------------------------------------------------------------------------
   total:    6    204    142
   ---------------------------------------------------------------------------

   total number of primitive shells          :   32
   total number of contracted shells         :   50
   total number of cartesian basis functions :  170
   total number of SCF-basis functions       :  142


 symmetry group of the molecule :   c1 

 the group has the following generators :
   c1(z)

    1 symmetry operations found

 there are 1 real representations :   a   

 maximum number of shells which are related by symmetry :  1


    mo occupation :
   irrep   mo's   occupied
    a      116        8
 
 number of basis functions   :                    116
 number of occupied orbitals :                      8
 
  
           ------------------
           density functional
           ------------------
 PBE functional
 exchange:    LDA + PBE
 correlation: LDA (PW) + PBE

 iterations will be done with small grid
  
 spherical integration : Lebedev's spherical grid
 spherical gridsize    :                     5
    i.e. gridpoints    :                   590
 value for diffuse not defined
 radial integration    : Chebyshev 2nd kind (scaling 3)
 radial gridsize       :                     8
 integration cells     :                     6
 partition function    : becke
 partition sharpness   :                     3
  

 biggest AO integral is expected to be     3.593180334
  
           ------------------------
               RI-J - INFORMATION
           ------------------------
 Contributions to RI integral batches: 
  neglected integral batches:                     0
  direct contribution:                            0
  memory contribution:                   990
 Memory core needed for (P|Q) and Cholesky      1 MByte
 Memory core minimum needed except of (P|Q)     1 MByte
 Total minimum memory core needed (sum)         1 MByte
  
 ****************************************
 Memory allocated for RI-J    12 MByte
 ****************************************
                                            

          ------------------------
          nuclear repulsion energy  :   33.4189513800    
          ------------------------


         -----------------
         -S,T+V- integrals
         -----------------

 1e-integrals will be neglected if expon. factor < 0.257074E-13
 Difference densities >>NOT<< switched on in parallel ridft!

 DIIS switched on: error vector is FDS-SDF
 Max. Iterations for DIIS is     :   4
 DIIS matrix (see manual) 
    Scaling factor of diagonals  :  1.200
    threshold for scaling factor :  0.000

 scf convergence criterion : increment of total energy < .1000000D-08
                  and increment of one-electron energy < .1000000D-05

  MOs are in ASCII format !


 automatic virtual orbital shift switched on 
      shift if e(lumo)-e(homo) < 0.10000000    


 reading orbital data $scfmo  from file mos
 orbital characterization : expanded
 mo provided and orthogonalized by Cholesky decomposition

 DSCF restart information will be dumped onto file mos


 Starting SCF iterations

          Overall gridpoints after grid construction =         27227

 ITERATION  ENERGY          1e-ENERGY        2e-ENERGY     RMS[dD(SAO)]   TOL
   1  -78.198604974602    -167.13545999     55.517903635    0.000D+00 0.256D-12
                            Exc = -11.7277621576     Coul =  67.2456657928    
                              N = 16.000008188    
                            current damping = 0.700
 
          max. resid. norm for Fia-block=  2.399D-01 for orbital      3a         
          max. resid. fock norm         =  5.200D+00 for orbital    113a         

 ITERATION  ENERGY          1e-ENERGY        2e-ENERGY     RMS[dD(SAO)]   TOL
   2  -78.436174884612    -169.36277147     57.507645205    0.349D-02 0.256D-12
                            Exc = -12.0007470295     Coul =  69.5083922342    
                              N = 16.000005393    
                            current damping = 0.650
 
          Norm of current diis error:  1.1389    
          max. resid. norm for Fia-block=  1.065D-01 for orbital      1a         
          max. resid. fock norm         =  1.178D-01 for orbital      3a         

 ITERATION  ENERGY          1e-ENERGY        2e-ENERGY     RMS[dD(SAO)]   TOL
   3  -78.483270187509    -169.86179693     57.959575359    0.207D-02 0.256D-12
                            Exc = -12.0860867514     Coul =  70.0456621104    
                              N = 16.000003401    
                            current damping = 0.500
 
          Norm of current diis error: 0.53893    
          max. resid. norm for Fia-block=  4.408D-02 for orbital      3a         
          max. resid. fock norm         =  5.079D-02 for orbital      3a         

 ITERATION  ENERGY          1e-ENERGY        2e-ENERGY     RMS[dD(SAO)]   TOL
   4  -78.497127818245    -170.29114699     58.375067790    0.128D-02 0.256D-12
                            Exc = -12.1502170230     Coul =  70.5252848133    
                              N = 16.000002113    
                            current damping = 0.350
 
          Norm of current diis error: 0.18371    
          max. resid. norm for Fia-block=  1.575D-02 for orbital      3a         
          max. resid. fock norm         =  1.791D-02 for orbital      3a         

 ITERATION  ENERGY          1e-ENERGY        2e-ENERGY     RMS[dD(SAO)]   TOL
   5  -78.499146570823    -170.39489749     58.476799540    0.607D-03 0.256D-12
                            Exc = -12.1697806748     Coul =  70.6465802144    
                              N = 16.000001518    
                            current damping = 0.200
 
          Norm of current diis error: 0.53726E-01
          max. resid. norm for Fia-block=  4.189D-03 for orbital      3a         
          max. resid. fock norm         =  4.776D-03 for orbital      3a         
          mo-orthogonalization: Cholesky decomposition

 ITERATION  ENERGY          1e-ENERGY        2e-ENERGY     RMS[dD(SAO)]   TOL
   6  -78.499332538914    -170.46466056     58.546376645    0.214D-03 0.256D-12
                            Exc = -12.1793683464     Coul =  70.7257449916    
                              N = 16.000001335    
                            current damping = 0.050
 
          Norm of current diis error: 0.10968E-01
          max. resid. norm for Fia-block=  9.547D-04 for orbital      8a         
          max. resid. fock norm         =  1.383D-03 for orbital     26a         

 ITERATION  ENERGY          1e-ENERGY        2e-ENERGY     RMS[dD(SAO)]   TOL
   7  -78.499336667329    -170.44396758     58.525679536    0.485D-04 0.256D-12
                            Exc = -12.1778322988     Coul =  70.7035118343    
                              N = 16.000001292    
                            current damping = 0.100
 
          Norm of current diis error: 0.81245E-02
          max. resid. norm for Fia-block=  3.465D-04 for orbital      5a         
          max. resid. fock norm         =  4.418D-04 for orbital      6a         

 ITERATION  ENERGY          1e-ENERGY        2e-ENERGY     RMS[dD(SAO)]   TOL
   8  -78.499339207967    -170.45670228     58.538411690    0.169D-04 0.256D-12
                            Exc = -12.1791064734     Coul =  70.7175181632    
                              N = 16.000001293    
                            current damping = 0.150
 
          Norm of current diis error: 0.29653E-03
          max. resid. norm for Fia-block=  3.008D-05 for orbital      8a         
          max. resid. fock norm         =  5.985D-05 for orbital      1a         

 ITERATION  ENERGY          1e-ENERGY        2e-ENERGY     RMS[dD(SAO)]   TOL
   9  -78.499339199496    -170.45645938     58.538168803    0.144D-05 0.256D-12
                            Exc = -12.1790791583     Coul =  70.7172479615    
                              N = 16.000001293    
                            current damping = 0.200
 
          Norm of current diis error: 0.54689E-03
          max. resid. norm for Fia-block=  1.564D-05 for orbital      8a         
          max. resid. fock norm         =  3.310D-05 for orbital      2a         

 ITERATION  ENERGY          1e-ENERGY        2e-ENERGY     RMS[dD(SAO)]   TOL
  10  -78.499339210904    -170.45642245     58.538131860    0.731D-06 0.256D-12
                            Exc = -12.1790752682     Coul =  70.7172071280    
                              N = 16.000001293    
                            current damping = 0.050
 
          Norm of current diis error: 0.13095E-03
          max. resid. norm for Fia-block=  5.048D-06 for orbital      8a         
          max. resid. fock norm         =  1.053D-05 for orbital      1a         
          mo-orthogonalization: Cholesky decomposition

 ITERATION  ENERGY          1e-ENERGY        2e-ENERGY     RMS[dD(SAO)]   TOL
  11  -78.499339211577    -170.45645558     58.538164988    0.272D-06 0.256D-12
                            Exc = -12.1790795799     Coul =  70.7172445678    
                              N = 16.000001293    
                            current damping = 0.100
 
          Norm of current diis error: 0.24025E-04
          max. resid. norm for Fia-block=  9.533D-07 for orbital      8a         
          max. resid. fock norm         =  1.918D-06 for orbital      2a         

 DENSITY CONVERGED !


 ITERATION  ENERGY          1e-ENERGY        2e-ENERGY     RMS[dD(SAO)]   TOL
  12  -78.499339211599    -170.45646764     58.538177048    0.497D-07 0.256D-12
                            Exc = -12.1790807728     Coul =  70.7172578207    
                              N = 16.000001293    
                            current damping = 0.050
 
          Norm of current diis error: 0.53823E-05
          max. resid. norm for Fia-block=  3.029D-07 for orbital      6a         
          max. resid. fock norm         =  3.812D-07 for orbital     26a         

 ENERGY & DENSITY CONVERGED !

          Overall gridpoints after grid construction =         91274

 ITERATION  ENERGY          1e-ENERGY        2e-ENERGY     RMS[dD(SAO)]   TOL
  13  -78.499338562266    -170.45645512     58.538165177    0.163D-07 0.256D-12
                            Exc = -12.1790788220     Coul =  70.7172439995    
                              N = 16.000000422    
                            current damping = 0.100
 
          Norm of current diis error: 0.33115E-05
          max. resid. norm for Fia-block=  1.132D-07 for orbital      6a         
          max. resid. fock norm         =  1.432D-07 for orbital      6a         

 End of SCF iterations

   convergence criteria satisfied after    13 iterations


                  ------------------------------------------ 
                 |  total energy      =    -78.49933856227  |
                  ------------------------------------------ 
                 :  kinetic energy    =     77.99455318055  :
                 :  potential energy  =   -156.49389174281  :
                 :  virial theorem    =      1.99356955879  :
                 :  wavefunction norm =      1.00000000000  :
                  .......................................... 


 <geterg> : there is no data group $energy 


 <skperg> : $end is missing 


 orbitals $scfmo  will be written to file mos

    irrep                  4a          5a          6a          7a          8a   
 eigenvalues H         -0.52206    -0.42265    -0.37070    -0.31348    -0.24595
            eV         -14.2060    -11.5011    -10.0872     -8.5302     -6.6926
 occupation              2.0000      2.0000      2.0000      2.0000      2.0000 

    irrep                  9a         10a         11a         12a         13a   
 eigenvalues H         -0.03333     0.03960     0.06626     0.06990     0.13471
            eV          -0.9070      1.0777      1.8032      1.9022      3.6657
 
 
 
 
 ==============================================================================
                           electrostatic moments
 ==============================================================================

 reference point for electrostatic moments:    0.00000   0.00000   0.00000

 
              nuc           elec       ->  total
 ------------------------------------------------------------------------------
                          charge      
 ------------------------------------------------------------------------------
          16.000000     -16.000000      -0.000000
 
 ------------------------------------------------------------------------------
                       dipole moment  
 ------------------------------------------------------------------------------
   x      10.209744     -10.211644      -0.001900
   y      -0.765010       0.765002      -0.000008
   z     115.222197    -115.221742       0.000455
 
   | dipole moment | =     0.0020 a.u. =     0.0050 debye 
 
 ------------------------------------------------------------------------------
                     quadrupole moment
 ------------------------------------------------------------------------------
  xx      21.490673     -31.961591     -10.470918
  yy      28.069191     -37.854596      -9.785405
  zz     839.459611    -849.124124      -9.664513
  xy     -18.208290      17.396733      -0.811556
  xz      78.542739     -77.767629       0.775109
  yz      -3.920668       4.462366       0.541698
 
     1/3  trace=      -9.973612
     anisotropy=       2.286040
 
 ==============================================================================
 


    ------------------------------------------------------------------------
         total  cpu-time :  18.27 seconds
         total wall-time :   1.73 seconds
    ------------------------------------------------------------------------

   ****  ridft : all done  ****


    2018-04-28 20:59:18.288 

