Using Slurm to start processes with PMI2
STARTING ridft ON 12 PROCESSORS!
RUNNING PROGRAM /beegfs/modfac/apps/TURBOMOLE/7.0_intel_GA/bin/em64t-unknown-linux-gnu_mpi/ridft_mpi.
PLEASE WAIT UNTIL ridft HAS FINISHED.
Look for the output in slave1.output.
  this is node-proc. number 1 running on node c-9-411.local
  the total number of node-proc. spawned is           12
  parallel platform: MPP, or cluster with fast interconnect

 ridft (c-9-411.local) : TURBOMOLE V7.0.2( ) 15 Jan 2016 at 17:47:42
 Copyright (C) 2016 TURBOMOLE GmbH, Karlsruhe


    2017-11-21 14:38:42.023 



                                  r i d f t

                        DFT program with RI approximation 
                                for coulomb part 




                                                 
                                 References:     
                                                 
          TURBOMOLE:                             
              R. Ahlrichs, M. Baer, M. Haeser, H. Horn, and
              C. Koelmel
              Electronic structure calculations on workstation
              computers: the program system TURBOMOLE
              Chem. Phys. Lett. 162: 165 (1989)
          Density Functional:                              
              O. Treutler and R. Ahlrichs                      
              Efficient Molecular Numerical Integration Schemes
              J. Chem. Phys. 102: 346 (1995)                   
          Parallel Version:                                
              Performance of parallel TURBOMOLE for Density    
              Functional Calculations                          
              M. v. Arnim and R. Ahlrichs                      
              J. Comp. Chem. 19: 1746 (1998)                   
          RI-J Method:                                     
              Auxiliary Basis Sets to approximate Coulomb      
              Potentials                                       
              Chem. Phys. Lett. 240: 283 (1995)                
              K. Eichkorn, O. Treutler, H. Oehm, M. Haeser     
              and R. Ahlrichs                                  
              Chem. Phys. Lett. 242: 652 (1995)                
                                                           
              Auxiliary Basis Sets for Main Row Atoms and their
              Use to approximate Coulomb Potentials            
              K. Eichkorn, F. Weigend, O. Treutler and         
              R. Ahlrichs                                      
              Theo. Chem. Acc. 97: 119 (1997)                   
                                                           
              Accurate Coulomb-fitting basis sets for H to Rn 
              F. Weigend                                        
              Phys. Chem. Chem. Phys. 8: 1057 (2006)            
                                                           
          Multipole accelerated RI-J (MARI-J):             
              Fast evaluation of the Coulomb potential for     
              electron densities using multipole accelerated   
              resolution of identity approximation             
              M. Sierka, A. Hogekamp and R. Ahlrichs           
              J. Chem. Phys. 118: 9136 (2003)                  
          RI-JK Method:                                     
              A fully direct RI-HF algorithm: Implementation,
              optimised auxiliary basis sets, demonstration of
              accuracy and efficiency                         
              F. Weigend                                      
              Phys. Chem. Chem. Phys. 4: 4285 (2002)           
          Two-component HF and DFT with spin-orbit coupling:  
              Self-consistent treatment of spin-orbit         
              interactions with efficient Hartree-Fock and    
              density functional methods                      
              M. K. Armbruster, F. Weigend, C. van Wüllen and 
              W. Klopper                                      
              Phys. Chem. Chem. Phys. 10: 1748 (2008)         
          Relativistic all-electron 2c calculations           
              An efficient implementation of two-component    
              relativistic exact-decoupling methods for large 
              molecules                                       
              D. Peng, N. Middendorf, F. Weigend, M. Reiher   
              J. Chem. Phys. 138, 184105 (2013)               
                                         


 


              +--------------------------------------------------+
              |      general information about current run       |
              +--------------------------------------------------+

 

 SCF run will be profiled !


 DENSITY CONVERGENCE CHECK SWITCHED ON !
 SCF CONVERGENCE IF RMS(delta[D]) <     0.1000000000E-06

 TPSS meta-GGA functional
 exchange:    LDA + TPSS
 correlation: LDA (PW) + TPSS
 A DFT calculation using the RI-J approximation will be carried out.
 Allocatable memory for RI due to $ricore (MB):       12000


              +--------------------------------------------------+
              | Atomic coordinate, charge and isotop information |
              +--------------------------------------------------+

                    atomic coordinates            atom    charge  isotop
          5.86996452   -0.78810254   -4.59530630    c      6.000     0
          7.20248184   -2.16823901   -6.37688640    c      6.000     0
          5.98856741   -4.55049025   -6.64348742    c      6.000     0
          3.94112508   -4.59330807   -5.01176180    c      6.000     0
          6.29749316    1.89636702   -3.66209586    c      6.000     0
          8.96057847    2.74243961   -4.56337073    c      6.000     0
          4.36827642    3.72189068   -4.75217594    c      6.000     0
          4.57209075    5.31103057   -6.82226676    c      6.000     0
          2.02585290   -6.66679486   -4.49609735    c      6.000     0
          2.15946136   -7.49993502   -1.68763425    c      6.000     0
          2.70692670   -8.97332811   -6.13283275    c      6.000     0
         -0.63200152   -5.82595866   -5.17165721    c      6.000     0
         -2.18946355   -6.59098894   -7.13295899    c      6.000     0
          3.89372151   -2.29167674   -3.78596449    n      7.000     0
          1.99611798    4.08040386   -3.73881470    n      7.000     0
         -1.95752617   -4.04736186   -3.79724206    n      7.000     0
         -3.88934083    4.63851548   -5.00129268    c      6.000     0
         -5.91655277    4.61016526   -6.65855596    c      6.000     0
         -7.13296347    2.22544997   -6.42853201    c      6.000     0
         -5.82189329    0.82984778   -4.64304708    c      6.000     0
         -1.98006398    6.70752328   -4.44654614    c      6.000     0
         -2.13941314    7.51253059   -1.63126705    c      6.000     0
         -2.64664291    9.03046599   -6.06599175    c      6.000     0
          0.68406046    5.87410079   -5.10627890    c      6.000     0
          2.26012976    6.65977074   -7.04443431    c      6.000     0
         -6.25980184   -1.86341403   -3.74009524    c      6.000     0
         -8.91395134   -2.69986271   -4.67609995    c      6.000     0
         -4.32008849   -3.67836241   -4.82929909    c      6.000     0
         -4.50374297   -5.24516385   -6.91821726    c      6.000     0
         -3.85582792    2.32586336   -3.79585483    n      7.000     0
          6.35509136    2.00987676   -0.79159774    c      6.000     0
          6.38393198    4.08213529    0.86217415    c      6.000     0
          6.84371750   -0.10058737    0.59846547    n      7.000     0
          6.93232982    3.14682126    3.31610643    c      6.000     0
          7.19371221    0.51967002    3.11306771    c      6.000     0
         -6.34652617   -2.00485465   -0.87169613    c      6.000     0
         -6.38973230   -4.09282910    0.76212349    c      6.000     0
         -6.85265460    0.09156322    0.53309720    n      7.000     0
         -6.96503741   -3.18148679    3.21880792    c      6.000     0
         -7.22828846   -0.55280643    3.03790760    c      6.000     0
          7.68599877   -1.36851565    5.01392803    c      6.000     0
         -7.74236889    1.31659318    4.95135086    c      6.000     0
          8.11603216   -1.00663997    7.25803698    o      8.000     0
         -8.19529203    0.93272071    7.18737116    o      8.000     0
          7.60789561   -3.76714504    3.97962708    o      8.000     0
         -7.65577469    3.72515327    3.94087855    o      8.000     0
         -8.03113817    5.75204028    5.73199356    c      6.000     0
          7.96242576   -5.81101951    5.75563576    c      6.000     0
         -7.30477860    8.19128579    4.41152112    c      6.000     0
          7.26184325   -8.23856142    4.40014961    c      6.000     0
         -7.19025594   -4.74458232    5.57157871    c      6.000     0
          7.13650369    4.68787794    5.68523712    c      6.000     0
          4.58600594    4.96070010    7.05613622    c      6.000     0
         -4.65394389   -5.02033524    6.96816596    c      6.000     0
         -5.92955308   -6.80699185    0.07893159    c      6.000     0
          5.93519977    6.80349282    0.20035783    c      6.000     0
          8.85164949   -1.53068757   -7.39867582    h      1.000     0
          6.55187314   -6.06026124   -7.89841260    h      1.000     0
          9.33024400    4.66681301   -3.91575986    h      1.000     0
          9.08001401    2.69659664   -6.62586834    h      1.000     0
         10.38969694    1.47242859   -3.78198419    h      1.000     0
          6.19978605    5.48822786   -8.04280279    h      1.000     0
          0.81560353   -9.04169106   -1.35719599    h      1.000     0
          1.71346587   -5.94894509   -0.40214217    h      1.000     0
          4.07120818   -8.17551841   -1.26458685    h      1.000     0
          2.67645418   -8.50587216   -8.14630039    h      1.000     0
          1.35288832  -10.49750305   -5.78774845    h      1.000     0
          4.60183273   -9.64301516   -5.64361998    h      1.000     0
         -1.71878451   -7.96606601   -8.56799749    h      1.000     0
          2.63838462   -1.84919387   -2.35954216    h      1.000     0
          1.29777653    3.19725815   -2.15368887    h      1.000     0
         -1.27563756   -3.18166148   -2.19525633    h      1.000     0
         -6.46427657    6.13091228   -7.90711540    h      1.000     0
         -8.76909980    1.59680151   -7.47645653    h      1.000     0
         -0.79918711    9.05132970   -1.27338991    h      1.000     0
         -1.70456878    5.94891166   -0.35731597    h      1.000     0
         -4.05515665    8.18337265   -1.21885510    h      1.000     0
         -2.59640498    8.58385089   -8.08380624    h      1.000     0
         -1.29680225   10.55162429   -5.69223925    h      1.000     0
         -4.54656696    9.69416258   -5.58824271    h      1.000     0
          1.80334213    8.05048751   -8.46884668    h      1.000     0
         -9.01288940   -2.63374126   -6.73913336    h      1.000     0
        -10.35040755   -1.43702280   -3.89654904    h      1.000     0
         -9.29055764   -4.63039482   -4.05120677    h      1.000     0
         -6.11969780   -5.40935952   -8.15603778    h      1.000     0
         -2.62015145    1.87042764   -2.35441224    h      1.000     0
          6.84377010   -1.88219370   -0.09515548    h      1.000     0
         -6.84897285    1.87950696   -0.14406925    h      1.000     0
         -6.86521845    5.38824141    7.40049927    h      1.000     0
        -10.01364555    5.75205802    6.33445922    h      1.000     0
          6.77101750   -5.46722414    7.41039772    h      1.000     0
          9.93573669   -5.81206673    6.38738499    h      1.000     0
         -5.31972216    8.14749809    3.83698402    h      1.000     0
         -7.58507625    9.79281031    5.69432847    h      1.000     0
         -8.46300115    8.49183526    2.72446370    h      1.000     0
          5.28546094   -8.19369293    3.79660748    h      1.000     0
          7.52704132   -9.85219789    5.67092503    h      1.000     0
          8.44584728   -8.51936469    2.72766080    h      1.000     0
         -7.90263773   -6.62539870    5.06055604    h      1.000     0
         -8.56688742   -3.87197527    6.84321450    h      1.000     0
          7.86134460    6.57057591    5.19899115    h      1.000     0
          8.49578883    3.79896247    6.96424046    h      1.000     0
          3.16091814    5.80012632    5.81408160    h      1.000     0
          4.77992924    6.15874131    8.73649835    h      1.000     0
          3.89335542    3.10974255    7.65139193    h      1.000     0
         -3.21203059   -5.84250685    5.73399798    h      1.000     0
         -4.86155366   -6.23481190    8.63502603    h      1.000     0
         -3.97505580   -3.17238356    7.58817529    h      1.000     0
         -6.03297554   -7.10472402   -1.96163377    h      1.000     0
         -7.31650740   -8.04446925    0.99699119    h      1.000     0
         -4.04745501   -7.42383875    0.69182890    h      1.000     0
          6.05165976    7.11906884   -1.83677978    h      1.000     0
          7.32003978    8.02906108    1.13752323    h      1.000     0
          4.05123182    7.41991947    0.80779657    h      1.000     0
 
       center of nuclear mass  :    0.00420765    0.00292992   -0.86323149
       center of nuclear charge:    0.00411081    0.00282273   -0.83473908

              +--------------------------------------------------+
              |               basis set information              |
              +--------------------------------------------------+

              we will work with the 1s 3p 5d 7f 9g ... basis set
              ...i.e. with spherical basis functions...

   type   atoms  prim   cont   basis
   ---------------------------------------------------------------------------
    c       46     77     55   cc-pVQZ   [5s4p3d2f1g|21s6p3d2f1g]
    n        6     77     55   cc-pVQZ   [5s4p3d2f1g|21s6p3d2f1g]
    o        4     77     55   cc-pVQZ   [5s4p3d2f1g|21s6p3d2f1g]
    h       58     32     30   cc-pVQZ   [4s3p2d1f|6s3p2d1f]
   ---------------------------------------------------------------------------
   total:  114   6168   4820
   ---------------------------------------------------------------------------

   total number of primitive shells          :  111
   total number of contracted shells         : 1420
   total number of cartesian basis functions : 5950
   total number of SCF-basis functions       : 4820


 integral neglect threshold       :  0.56E-14
 integral storage threshold THIZE :  0.10E-04
 integral storage threshold THIME :         5

 RI-J AUXILIARY BASIS SET information:

              we will work with the 1s 3p 5d 7f 9g ... basis set
              ...i.e. with spherical basis functions...

   type   atoms  prim   cont   basis
   ---------------------------------------------------------------------------
    c       46     70     49   cc-pVQZ   [6s4p3d1f1g|12s5p4d2f1g]
    n        6     70     49   cc-pVQZ   [6s4p3d1f1g|12s5p4d2f1g]
    o        4     70     49   cc-pVQZ   [6s4p3d1f1g|12s5p4d2f1g]
    h       58     16     11   cc-pVQZ   [3s1p1d|5s2p1d]
   ---------------------------------------------------------------------------
   total:  114   4848   3382
   ---------------------------------------------------------------------------

   total number of primitive shells          :   80
   total number of contracted shells         : 1130
   total number of cartesian basis functions : 4112
   total number of SCF-basis functions       : 3382


 symmetry group of the molecule :   c1 

 the group has the following generators :
   c1(z)

    1 symmetry operations found

 there are 1 real representations :   a   

 maximum number of shells which are related by symmetry :  1


    mo occupation :
   irrep   mo's   occupied
    a     4820      204
 
 number of basis functions   :         4820
 number of occupied orbitals :          204
 
  
           ------------------
           density functional
           ------------------
 TPSS meta-GGA functional
 exchange:    LDA + TPSS
 correlation: LDA (PW) + TPSS
 grinp -> nfun, dfgga, dfhybrid 
           5 F F
 iterations will be done with small grid
  
 spherical integration : Lebedev's spherical grid
 spherical gridsize    :           5
    i.e. gridpoints    :         590
 value for diffuse not defined
 radial integration    : Chebyshev 2nd kind (scaling 3)
 radial gridsize       :           8
 integration cells     :         114
 partition function    : becke
 partition sharpness   :           3
  

 <rddim> : input of entry tasksize
           from data group '$pardft' failed !

               Default values taken

 <rddim> : input of entry memdiv
           from data group '$pardft' failed !

               Default values taken
  RIDFT: memory allocation for DFT gridpoints
  MEMORY is divided by 1 as DEFAULT
 Each node can hold at most  the            1 -th part
 of the gridpoints    

 biggest AO integral is expected to be     4.785886462
  
           ------------------------
               RI-J - INFORMATION
           ------------------------
 
 
 **************************************************
 *      MEMORY ALLOCATION FOR PARALLEL RI-DFT     *
 **************************************************
 
 
MEMORY FOR (MU NU/ ALPHA), SEQUENTIAL RUN              11904 MByte
 
            DIFFERENCE IN MEMORY NEED:       DIAG./SLAVE  
 
      TOTAL DIFFERENCE :                   1038 MByte
 
      difference in xcore:                   97 MByte
      difference in fatmat:                 316 MByte
      getcor calls skipped by slaves:       625 MByte
 
 
           Integral memory available for diagonal.     11904 MByte
 
           Integral memory available for slave             0 MByte
 
         MEMORY FOR (MU NU/ ALPHA) ON DIAGONALIZER     11904 MByte
 
         MEMORY FOR (MU NU/ ALPHA) ON ONE SLAVE            0 MByte
 
         TOTAL MEMORY FOR (MU NU/ ALPHA),ALL NODES     11904 MByte
 
 Contributions to RI integral batches: 
  neglected integral batches:      659442
  direct contribution:             259274
  memory contribution:       90194
 Memory core needed for (P|Q) and Cholesky     88 MByte
 Memory core minimum needed except of (P|Q)    12 MByte
 Total minimum memory core needed (sum)       100 MByte
     number of direct tasks:         240
  
 ****************************************
 Memory allocated for RI-J 12003 MByte
 ****************************************
                                            

          ------------------------
          nuclear repulsion energy  :   8459.68653631    
          ------------------------

 
          -----------------
          -S integrals
          -----------------

 1e-integrals will be neglected if expon. factor < 0.561674E-15
 
          -----------------
          -T+V integrals
          -----------------

 1e-integrals will be neglected if expon. factor < 0.561674E-15
 Difference densities >>NOT<< switched on in parallel ridft!

 automatic virtual orbital shift switched on 
      shift if e(lumo)-e(homo) < 0.10000000    


 DIIS switched on: error vector is FDS-SDF
 Max. Iterations for DIIS is     :   4
 DIIS matrix (see manual) 
    Scaling factor of diagonals  :  1.200
    threshold for scaling factor :  0.000

 scf convergence criterion : increment of total energy < .1000000D-08
                  and increment of one-electron energy < .1000000D-05


 <geterg> : there is no data group $energy 

  MOs are in ASCII format !


 reading orbital data $scfmo  from file mos . 

 orbital characterization : expanded
 
 mo provided and orthogonalized by Cholesky decomposition

 DSCF restart information will be dumped onto file mos


 Starting SCF iterations


 ITERATION  ENERGY          1e-ENERGY        2e-ENERGY     RMS[dD(SAO)]   TOL
   1  -2410.5169842061    -20040.000028     9169.7965072    0.000D+00 0.560D-14
                            Exc = -341.319204490     Coul =  9511.11571173    
                              N = 408.00081088    
                            current damping = 0.700
 
          max. resid. norm for Fia-block=  3.372D-01 for orbital      1a         
          max. resid. fock norm         =  7.352D+00 for orbital   4507a         

 ITERATION  ENERGY          1e-ENERGY        2e-ENERGY     RMS[dD(SAO)]   TOL
   2  -2416.9371097428    -20104.157978     9227.5343323    0.526D-02 0.560D-14
                            Exc = -345.364766651     Coul =  9572.89909895    
                              N = 408.00070842    
                            current damping = 0.650
 
          Norm of current diis error:  8.6177    
          max. resid. norm for Fia-block=  1.671D-01 for orbital      3a         
          max. resid. fock norm         =  3.260D-01 for orbital   4610a         

 ITERATION  ENERGY          1e-ENERGY        2e-ENERGY     RMS[dD(SAO)]   TOL
   3  -2418.1663566680    -20119.936381     9242.0834884    0.167D-02 0.560D-14
                            Exc = -347.236265390     Coul =  9589.31975374    
                              N = 408.00066219    
                            current damping = 0.550
 
          Norm of current diis error:  4.2494    
          max. resid. norm for Fia-block=  6.764D-02 for orbital    187a         
          max. resid. fock norm         =  6.978D-02 for orbital    187a         

 ITERATION  ENERGY          1e-ENERGY        2e-ENERGY     RMS[dD(SAO)]   TOL
   4  -2418.5745010994    -20131.554061     9253.2930237    0.658D-03 0.560D-14
                            Exc = -347.730033996     Coul =  9601.02305771    
                              N = 408.00064123    
                            current damping = 0.450
 
          Norm of current diis error:  1.7265    
          max. resid. norm for Fia-block=  5.224D-02 for orbital     66a         
          max. resid. fock norm         =  1.095D-01 for orbital   4448a         

 ITERATION  ENERGY          1e-ENERGY        2e-ENERGY     RMS[dD(SAO)]   TOL
   5  -2418.6243797619    -20132.522936     9254.2120196    0.307D-03 0.560D-14
                            Exc = -348.463971573     Coul =  9602.67599120    
                              N = 408.00062272    
                            current damping = 0.350
 
          Norm of current diis error:  1.1794    
          max. resid. norm for Fia-block=  2.665D-02 for orbital    191a         
          max. resid. fock norm         =  3.337D-02 for orbital   4755a         
          mo-orthogonalization: Cholesky decomposition

 ITERATION  ENERGY          1e-ENERGY        2e-ENERGY     RMS[dD(SAO)]   TOL
   6  -2418.6581230857    -20138.058626     9259.7139663    0.201D-03 0.560D-14
                            Exc = -348.465229352     Coul =  9608.17919566    
                              N = 408.00061885    
                            current damping = 0.250
 
          Norm of current diis error: 0.50959    
          max. resid. norm for Fia-block=  1.281D-02 for orbital    189a         
          max. resid. fock norm         =  2.298D-02 for orbital   4755a         

 ITERATION  ENERGY          1e-ENERGY        2e-ENERGY     RMS[dD(SAO)]   TOL
   7  -2418.6613577050    -20134.701322     9256.3534284    0.849D-04 0.560D-14
                            Exc = -348.394024415     Coul =  9604.74745279    
                              N = 408.00060812    
                            current damping = 0.300
 
          Norm of current diis error: 0.37621    
          max. resid. norm for Fia-block=  5.840D-03 for orbital    189a         
          max. resid. fock norm         =  8.760D-03 for orbital   4735a         

 ITERATION  ENERGY          1e-ENERGY        2e-ENERGY     RMS[dD(SAO)]   TOL
   8  -2418.6645428264    -20136.090649     9257.7395694    0.274D-04 0.560D-14
                            Exc = -348.462871322     Coul =  9606.20244072    
                              N = 408.00061007    
                            current damping = 0.350
 
          Norm of current diis error: 0.71333E-01
          max. resid. norm for Fia-block=  1.328D-03 for orbital    190a         
          max. resid. fock norm         =  2.739D-03 for orbital   4777a         

 ITERATION  ENERGY          1e-ENERGY        2e-ENERGY     RMS[dD(SAO)]   TOL
   9  -2418.6645096084    -20136.202811     9257.8517652    0.984D-05 0.560D-14
                            Exc = -348.477824587     Coul =  9606.32958975    
                              N = 408.00061003    
                            current damping = 0.400
 
          Norm of current diis error: 0.82019E-01
          max. resid. norm for Fia-block=  6.400D-04 for orbital    190a         
          max. resid. fock norm         =  1.053D-03 for orbital   4777a         

 ITERATION  ENERGY          1e-ENERGY        2e-ENERGY     RMS[dD(SAO)]   TOL
  10  -2418.6646386645    -20136.308961     9257.9577864    0.503D-05 0.560D-14
                            Exc = -348.472247868     Coul =  9606.43003424    
                              N = 408.00060991    
                            current damping = 0.250
 
          Norm of current diis error: 0.29206E-01
          max. resid. norm for Fia-block=  3.219D-04 for orbital    197a         
          max. resid. fock norm         =  5.591D-04 for orbital   4778a         
          mo-orthogonalization: Cholesky decomposition

 ITERATION  ENERGY          1e-ENERGY        2e-ENERGY     RMS[dD(SAO)]   TOL
  11  -2418.6646564258    -20136.214389     9257.8631961    0.267D-05 0.560D-14
                            Exc = -348.469840710     Coul =  9606.33303681    
                              N = 408.00060971    
                            current damping = 0.300
 
          Norm of current diis error: 0.76068E-02
          max. resid. norm for Fia-block=  1.167D-04 for orbital    200a         
          max. resid. fock norm         =  2.752D-04 for orbital   4779a         

 ITERATION  ENERGY          1e-ENERGY        2e-ENERGY     RMS[dD(SAO)]   TOL
  12  -2418.6646566796    -20136.236175     9257.8849822    0.964D-06 0.560D-14
                            Exc = -348.470046706     Coul =  9606.35502895    
                              N = 408.00060970    
                            current damping = 0.350
 
          Norm of current diis error: 0.68234E-02
          max. resid. norm for Fia-block=  6.861D-05 for orbital    197a         
          max. resid. fock norm         =  1.476D-04 for orbital   4779a         

 ITERATION  ENERGY          1e-ENERGY        2e-ENERGY     RMS[dD(SAO)]   TOL
  13  -2418.6646576566    -20136.234455     9257.8832606    0.374D-06 0.560D-14
                            Exc = -348.469733521     Coul =  9606.35299413    
                              N = 408.00060965    
                            current damping = 0.400
 
          Norm of current diis error: 0.16163E-02
          max. resid. norm for Fia-block=  2.078D-05 for orbital    190a         
          max. resid. fock norm         =  4.926D-05 for orbital   4697a         

 ITERATION  ENERGY          1e-ENERGY        2e-ENERGY     RMS[dD(SAO)]   TOL
  14  -2418.6646577084    -20136.228813     9257.8776190    0.160D-06 0.560D-14
                            Exc = -348.469812837     Coul =  9606.34743184    
                              N = 408.00060966    
                            current damping = 0.250
 
          Norm of current diis error: 0.62106E-03
          max. resid. norm for Fia-block=  9.017D-06 for orbital    197a         
          max. resid. fock norm         =  1.489D-05 for orbital   4691a         

 DENSITY CONVERGED !


 ITERATION  ENERGY          1e-ENERGY        2e-ENERGY     RMS[dD(SAO)]   TOL
  15  -2418.6646577147    -20136.230590     9257.8793956    0.578D-07 0.560D-14
                            Exc = -348.469840004     Coul =  9606.34923562    
                              N = 408.00060965    
                            current damping = 0.300
 
          Norm of current diis error: 0.32166E-03
          max. resid. norm for Fia-block=  6.090D-06 for orbital    189a         
          max. resid. fock norm         =  9.415D-06 for orbital   4755a         
          mo-orthogonalization: Cholesky decomposition

 DENSITY CONVERGED !


 ITERATION  ENERGY          1e-ENERGY        2e-ENERGY     RMS[dD(SAO)]   TOL
  16  -2418.6646577163    -20136.229882     9257.8786881    0.302D-07 0.560D-14
                            Exc = -348.469798223     Coul =  9606.34848637    
                              N = 408.00060965    
                            current damping = 0.350
 
          Norm of current diis error: 0.12570E-03
          max. resid. norm for Fia-block=  2.125D-06 for orbital    189a         
          max. resid. fock norm         =  3.437D-06 for orbital   4699a         

 DENSITY CONVERGED !


 ITERATION  ENERGY          1e-ENERGY        2e-ENERGY     RMS[dD(SAO)]   TOL
  17  -2418.6646577168    -20136.230240     9257.8790457    0.112D-07 0.560D-14
                            Exc = -348.469808853     Coul =  9606.34885456    
                              N = 408.00060965    
                            current damping = 0.400
 
          Norm of current diis error: 0.47544E-04
          max. resid. norm for Fia-block=  8.097D-07 for orbital    192a         
          max. resid. fock norm         =  1.394D-06 for orbital   4680a         

 DENSITY CONVERGED !


 ITERATION  ENERGY          1e-ENERGY        2e-ENERGY     RMS[dD(SAO)]   TOL
  18  -2418.6646577171    -20136.230062     9257.8788676    0.504D-08 0.560D-14
                            Exc = -348.469813154     Coul =  9606.34868077    
                              N = 408.00060965    
                            current damping = 0.450
 
          Norm of current diis error: 0.22034E-04
          max. resid. norm for Fia-block=  4.732D-07 for orbital    192a         
          max. resid. fock norm         =  7.641D-07 for orbital   4690a         

 ENERGY & DENSITY CONVERGED !


 ITERATION  ENERGY          1e-ENERGY        2e-ENERGY     RMS[dD(SAO)]   TOL
  19  -2418.6636835093    -20136.230111     9257.8798916    0.264D-08 0.560D-14
                            Exc = -348.468836224     Coul =  9606.34872785    
                              N = 407.99981139    
                            current damping = 0.500
 
          Norm of current diis error: 0.76747E-05
          max. resid. norm for Fia-block=  1.137D-07 for orbital    190a         
          max. resid. fock norm         =  2.159D-07 for orbital   4756a         

 End of SCF iterations

   convergence criteria satisfied after   19 iterations


                  ------------------------------------------ 
                 |  total energy      =  -2418.66368350932  |
                  ------------------------------------------ 
                 :  kinetic energy    =   2407.40930192799  :
                 :  potential energy  =  -4826.07298543731  :
                 :  virial theorem    =      1.99534685965  :
                 :  wavefunction norm =      1.00000000000  :
                  .......................................... 


 <geterg> : there is no data group $energy 


 <skperg> : $end is missing 


 orbitals $scfmo  will be written to file mos

    irrep                200a        201a        202a        203a        204a   
 eigenvalues H         -0.19955    -0.19241    -0.18946    -0.18403    -0.17115
            eV          -5.4300     -5.2358     -5.1555     -5.0078     -4.6573
 occupation              2.0000      2.0000      2.0000      2.0000      2.0000 

    irrep                205a        206a        207a        208a        209a   
 eigenvalues H         -0.06044    -0.05901    -0.05253    -0.02916    -0.01331
            eV          -1.6447     -1.6057     -1.4295     -0.7935     -0.3623
 
 
 ! grave: sending quit signal to master process
 
 
 
 
 ==============================================================================
                           electrostatic moments
 ==============================================================================

 reference point for electrostatic moments:    0.00000   0.00000   0.00000

 
              nuc           elec       ->  total
 ------------------------------------------------------------------------------
                          charge      
 ------------------------------------------------------------------------------
         408.000000    -408.000000      -0.000000
 
 ------------------------------------------------------------------------------
                       dipole moment  
 ------------------------------------------------------------------------------
   x       1.677209      -1.674151       0.003058
   y       1.151673      -1.146917       0.004756
   z    -340.573543     339.552585      -1.020958
 
   | dipole moment | =     1.0210 a.u. =     2.5951 debye 
 
 ------------------------------------------------------------------------------
                     quadrupole moment
 ------------------------------------------------------------------------------
  xx   14572.383027  -14828.649510    -256.266483
  yy   10101.803978  -10331.884766    -230.080788
  zz    9868.771860  -10138.906577    -270.134718
  xy    -506.452697     498.782469      -7.670228
  xz      16.306475     -16.265334       0.041141
  yz       0.313371      -0.151914       0.161457
 
     1/3  trace=    -252.160663
     anisotropy=      37.653000
 
 ==============================================================================
 

    ridft profiling
  --------------------------------------------------------------------
             module   cpu total (s)       %  wall total (s)       %

               RIDFT          5688.7  100.00          5727.6  100.00
         Ridft_b_scf           212.8    3.74           212.9    3.72
        b_scf_prelim             0.0    0.00             0.0    0.00
        b_scf_molinp             0.0    0.00             0.0    0.00
         b_scf_init0             0.0    0.00             0.0    0.00
        b_scf_auxbas             0.0    0.00             0.0    0.00
      b_scf_symmetry             0.0    0.00             0.0    0.00
         b_scf_cosmo             0.0    0.00             0.0    0.00
        b_scf_params            18.8    0.33            18.9    0.33
          b_scf_ri-j            75.5    1.33            75.6    1.32
    b_scf_ri-j_auxpq            75.3    1.32            75.5    1.32
     ri-j_auxpq_chol             2.1    0.04             2.1    0.04
         b_scf_1elec            10.4    0.18            10.5    0.18
       b_scf_moinput           108.0    1.90           108.0    1.88
     moinput_orthmos           106.9    1.88           106.9    1.87
    b_scf_dft-dstmax             0.0    0.00             0.0    0.00
           Ridft_scf          5473.2   96.21          5512.0   96.24
          Scf_b_loop             0.0    0.00             0.0    0.00
                noga             0.0    0.00             0.0    0.00
            Scf_loop          5460.3   95.99          5497.2   95.98
     scf_loop_mkdmat            37.6    0.66            38.3    0.67
       scf_loop_ri-j           986.0   17.33           985.9   17.21
      parlp1.bc.dens             2.3    0.04             2.3    0.04
        parlp1.gs.gp             8.2    0.14             8.2    0.14
        parlp2.bc.gq             0.0    0.00             0.0    0.00
        scf_loop_dft          3224.4   56.68          3224.7   56.30
      pardft.bc.dens             0.0    0.00             0.0    0.00
        dft_grid_con             5.0    0.09             5.0    0.09
          dft_xcmrhf          3200.3   56.26          3200.3   55.87
          dft_getval            49.8    0.88            49.8    0.87
          funct2 dst             0.8    0.01             0.8    0.01
      funct2 f2loop1             9.2    0.16             9.2    0.16
      funct2 f2loop2            25.4    0.45            25.4    0.44
          funct2 s+c            13.8    0.24            13.9    0.24
        funct2 cmf_2            12.0    0.21            12.2    0.21
          dft_mkdens          1458.8   25.64          1458.8   25.47
        dft_mgga-fun             1.3    0.02             1.3    0.02
          dft_mkfock          1689.7   29.70          1689.6   29.50
     pardft.red.fock           239.1    4.20           239.1    4.18
     scf_loop_energy             0.2    0.00             0.2    0.00
     scf_loop_mkfock             0.4    0.01             0.4    0.01
       scf_loop_diis           582.3   10.24           582.2   10.16
       scf_loop_diag           296.2    5.21           296.2    5.17
         diag_tritrn            90.4    1.59            90.4    1.58
          diag_rdiag           204.8    3.60           204.9    3.58
     scf_loop_modump           218.5    3.84           254.3    4.44
      scf_loop_ortho           106.9    1.88           106.9    1.87
          Scf_a_loop            12.9    0.23            14.8    0.26
         Ridft_a_scf             2.7    0.05             2.7    0.05
         a_scf_fanal             2.6    0.05             2.6    0.05
 


    ------------------------------------------------------------------------
         total  cpu-time :  1 hours 35 minutes and  7 seconds
         total wall-time :  1 hours 35 minutes and 46 seconds
    ------------------------------------------------------------------------


   ****  ridft : all done  ****


    2017-11-21 16:14:27.629 

