 operating system is UNIX !
 hostname is         c-8-23.local
 ridft


 hostname is    c-8-23.local

 ridftserver (c-8-23.local) : TURBOMOLE V7.0( ) 6 Jul 2015 at 19:34:44
 Copyright (C) 2015 TURBOMOLE GmbH, Karlsruhe


    2015-11-05 08:42:59.926 


                                        ridft     server


                     R.Ahlrichs, S.Brode, M.Ehrig, H.Horn


                            Quantum Chemistry Group

                        University Karlsruhe, Germany


   ***************************************************************************
$operating system unix                                                          
   ***************************************************************************
 ! Initialization MPI         :           32  tasks intended
 !                                        32  tasks spawned
 node process     1 runs on c-8-23.local           1
 node process     2 runs on c-8-23.local           2
 node process     3 runs on c-8-23.local           3
 node process     4 runs on c-8-23.local           4
 node process     5 runs on c-8-23.local           5
 node process     6 runs on c-8-23.local           6
 node process     7 runs on c-8-23.local           7
 node process     8 runs on c-8-23.local           8
 node process     9 runs on c-8-24.local           9
 node process    10 runs on c-8-24.local          10
 node process    11 runs on c-8-24.local          11
 node process    12 runs on c-8-24.local          12
 node process    13 runs on c-8-24.local          13
 node process    14 runs on c-8-24.local          14
 node process    15 runs on c-8-24.local          15
 node process    16 runs on c-8-24.local          16
 node process    17 runs on c-8-32.local          17
 node process    18 runs on c-8-32.local          18
 node process    19 runs on c-8-32.local          19
 node process    20 runs on c-8-32.local          20
 node process    21 runs on c-8-32.local          21
 node process    22 runs on c-8-32.local          22
 node process    23 runs on c-8-32.local          23
 node process    24 runs on c-8-32.local          24
 node process    25 runs on c-8-40.local          25
 node process    26 runs on c-8-40.local          26
 node process    27 runs on c-8-40.local          27
 node process    28 runs on c-8-40.local          28
 node process    29 runs on c-8-40.local          29
 node process    30 runs on c-8-40.local          30
 node process    31 runs on c-8-40.local          31
 node process    32 runs on c-8-40.local          32
 total turnaround time of ridftserver  9657.49 sec
 cpu elapsed by ridftserver process      42.18 sec 

 ***  ridft server : all done  ***



    2015-11-05 11:23:57.420 

 
