STARTING dscf ON 60 PROCESSORS!
RUNNING PROGRAM /beegfs/modfac/apps/TURBOMOLE/7.2.1-official/bin/em64t-unknown-linux-gnu_mpi/dscf_mpi.
PLEASE WAIT UNTIL dscf HAS FINISHED.
Look for the output in slave1.output.
MACHINEFILE is ./hostlist
 this is node-proc. number 1 running on node c-15-41.local
 the total number of node-proc. spawned is  61
  parallel platform: MPP or cluster with fast interconnect

 dscf (c-15-41.local) : TURBOMOLE V7.2 ( 21471 ) 7 Nov 2017 at 16:15:16
 Copyright (C) 2017 TURBOMOLE GmbH, Karlsruhe


    2018-02-20 09:00:26.986 


 SCF run will be profiled !



                             d s c f - program

                   idea & directorship : reinhart ahlrichs
                   program development : marco haeser
                                         michael baer
                           dft version : oliver treutler
           parallelized version : malte v. arnim, gina corongiu, GMD 


                          quantum chemistry group
                          universitaet  karlsruhe
                                  germany




                          References             
                                                 
          TURBOMOLE:                             
              R. Ahlrichs, M. Baer, M. Haeser, H. Horn, and
              C. Koelmel
              Electronic structure calculations on workstation
              computers: the program system TURBOMOLE
              Chem. Phys. Lett. 162: 165 (1989)
          Density Functional:                              
              O. Treutler and R. Ahlrichs                      
              Efficient Molecular Numerical Integration Schemes
              J. Chem. Phys. 102: 346 (1995)                   
          Parallel Version:                                
              Performance of parallel TURBOMOLE for Density    
              Functional Calculations                          
              M. v. Arnim and R. Ahlrichs                      
              J. Comp. Chem. 19: 1746 (1998)                   
                                         




              +--------------------------------------------------+
              | Atomic coordinate, charge and isotop information |
              +--------------------------------------------------+

                    atomic coordinates            atom    charge  isotop
          4.41838034   -2.61487186  -11.98726950    c      0.000     0
          2.83811320   -1.33048993  -10.28750999    c      0.000     0
          2.83811320    1.33048993  -10.28750999    c      0.000     0
          4.41838034    2.61487186  -11.98726950    c      0.000     0
          5.95528636    1.31742797  -13.68222526    c      0.000     0
          5.95528636   -1.31742797  -13.68222526    c      0.000     0
          1.33578336    2.86796025   -8.48215258    c      0.000     0
          2.60772072    4.56772203   -6.92173951    c      0.000     0
          1.37044715    6.32435236   -5.37247426    c      0.000     0
         -1.37044715    6.32435236   -5.37247426    c      0.000     0
         -2.60772072    4.56772203   -6.92173951    c      0.000     0
         -1.33578336    2.86796025   -8.48215258    c      0.000     0
          2.78885574    8.05370114   -3.73099407    c      0.000     0
          1.35097844    9.91334749   -2.60488531    c      0.000     0
         -1.35097844    9.91334749   -2.60488531    c      0.000     0
         -2.78885574    8.05370114   -3.73099407    c      0.000     0
         -2.17055560   11.27878858   -0.45508808    c      0.000     0
          0.00000000   12.11515003    0.87570238    c      0.000     0
          2.17055560   11.27878858   -0.45508808    c      0.000     0
          0.00000000   12.57411288    3.45500941    c      0.000     0
         -2.47682019   12.52075969    4.60783236    c      0.000     0
         -4.60635120   11.71121823    3.30382585    c      0.000     0
         -4.48416466   10.86319100    0.71008064    c      0.000     0
         -6.14647753    9.20494679   -0.66878481    c      0.000     0
         -5.33334093    7.86122768   -2.77909455    c      0.000     0
          2.47682019   12.52075969    4.60783236    c      0.000     0
          4.60635120   11.71121823    3.30382585    c      0.000     0
          4.48416466   10.86319100    0.71008064    c      0.000     0
          6.14647753    9.20494679   -0.66878481    c      0.000     0
          5.33334093    7.86122768   -2.77909455    c      0.000     0
         -2.83811320    1.33048993  -10.28750999    c      0.000     0
         -2.83811320   -1.33048993  -10.28750999    c      0.000     0
         -4.41838034   -2.61487186  -11.98726950    c      0.000     0
         -5.95528636   -1.31742797  -13.68222526    c      0.000     0
         -5.95528636    1.31742797  -13.68222526    c      0.000     0
         -4.41838034    2.61487186  -11.98726950    c      0.000     0
          1.33578336   -2.86796025   -8.48215258    c      0.000     0
          2.60772072   -4.56772203   -6.92173951    c      0.000     0
          1.37044715   -6.32435236   -5.37247426    c      0.000     0
         -1.37044715   -6.32435236   -5.37247426    c      0.000     0
         -2.60772072   -4.56772203   -6.92173951    c      0.000     0
         -1.33578336   -2.86796025   -8.48215258    c      0.000     0
         -2.78885574   -8.05370114   -3.73099407    c      0.000     0
         -1.35097844   -9.91334749   -2.60488531    c      0.000     0
          1.35097844   -9.91334749   -2.60488531    c      0.000     0
          2.78885574   -8.05370114   -3.73099407    c      0.000     0
          2.17055560  -11.27878858   -0.45508808    c      0.000     0
          0.00000000  -12.11515003    0.87570238    c      0.000     0
         -2.17055560  -11.27878858   -0.45508808    c      0.000     0
         -5.33334093   -7.86122768   -2.77909455    c      0.000     0
         -6.14647753   -9.20494679   -0.66878481    c      0.000     0
         -4.48416466  -10.86319100    0.71008064    c      0.000     0
         -4.60635120  -11.71121823    3.30382585    c      0.000     0
         -2.47682019  -12.52075969    4.60783236    c      0.000     0
          0.00000000  -12.57411288    3.45500941    c      0.000     0
          5.33334093   -7.86122768   -2.77909455    c      0.000     0
          6.14647753   -9.20494679   -0.66878481    c      0.000     0
          4.48416466  -10.86319100    0.71008064    c      0.000     0
          4.60635120  -11.71121823    3.30382585    c      0.000     0
          2.47682019  -12.52075969    4.60783236    c      0.000     0
         -8.02878913    8.82002182    0.05890052    h      0.000     0
         -6.62391717    6.48557212   -3.59048444    h      0.000     0
          6.62391717    6.48557212   -3.59048444    h      0.000     0
          8.02878913    8.82002182    0.05890052    h      0.000     0
          6.37176455   11.53633833    4.34024034    h      0.000     0
          2.66682091   12.94551392    6.60912408    h      0.000     0
         -2.66682091   12.94551392    6.60912408    h      0.000     0
         -6.37176455   11.53633833    4.34024034    h      0.000     0
         -6.37176455  -11.53633833    4.34024034    h      0.000     0
         -2.66682091  -12.94551392    6.60912408    h      0.000     0
          2.66682091  -12.94551392    6.60912408    h      0.000     0
          6.37176455  -11.53633833    4.34024034    h      0.000     0
          8.02878913   -8.82002182    0.05890052    h      0.000     0
          6.62391717   -6.48557212   -3.59048444    h      0.000     0
         -6.62391717   -6.48557212   -3.59048444    h      0.000     0
         -8.02878913   -8.82002182    0.05890052    h      0.000     0
          4.66077634    4.56215217   -6.95941216    h      0.000     0
         -4.66077634    4.56215217   -6.95941216    h      0.000     0
          4.66077634   -4.56215217   -6.95941216    h      0.000     0
         -4.66077634   -4.56215217   -6.95941216    h      0.000     0
         -4.40961230    4.66821297  -11.97085081    h      0.000     0
         -7.14193551    2.35843122  -14.99417671    h      0.000     0
         -7.14193551   -2.35843122  -14.99417671    h      0.000     0
         -4.40961230   -4.66821297  -11.97085081    h      0.000     0
          4.40961230    4.66821297  -11.97085081    h      0.000     0
          7.14193551    2.35843122  -14.99417671    h      0.000     0
          7.14193551   -2.35843122  -14.99417671    h      0.000     0
          4.40961230   -4.66821297  -11.97085081    h      0.000     0
         -6.58065103    1.31967945    5.51158394    c      6.000     0
         -5.73285989    2.69341234    3.28915692    c      6.000     0
         -4.35711531    4.91007724    4.14081518    c      6.000     0
         -4.35826430    4.91404006    6.88593044    c      6.000     0
         -2.21895782    5.71588651    2.82541127    c      6.000     0
         -4.91664222    1.37363891    1.15165670    c      6.000     0
         -5.73074287    2.69238922    7.73443689    c      6.000     0
         -6.58065103   -1.31967945    5.51158394    c      6.000     0
         -4.91459209    1.37292404    9.86959608    c      6.000     0
         -2.22254866    5.73043140    8.20673398    c      6.000     0
          0.00000000    6.56356737    4.19735611    c      6.000     0
         -1.37253789    4.34822475    0.60378548    c      6.000     0
          0.00000000    6.57360792    6.83403228    c      6.000     0
         -1.37363572    4.35656945   10.42728768    c      6.000     0
         -2.69308449    2.22122291   11.24216217    c      6.000     0
         -4.91459209   -1.37292404    9.86959608    c      6.000     0
         -5.73074287   -2.69238922    7.73443689    c      6.000     0
         -5.73285989   -2.69341234    3.28915692    c      6.000     0
         -4.91664222   -1.37363891    1.15165670    c      6.000     0
         -2.69212319    2.21833898   -0.21913358    c      6.000     0
          2.21895782    5.71588651    2.82541127    c      6.000     0
          1.37253789    4.34822475    0.60378548    c      6.000     0
         -2.69212319   -2.21833898   -0.21913358    c      6.000     0
         -1.32071373    0.00000000   -1.07686002    c      6.000     0
         -4.35826430   -4.91404006    6.88593044    c      6.000     0
         -4.35711531   -4.91007724    4.14081518    c      6.000     0
         -2.69308449   -2.22122291   11.24216217    c      6.000     0
         -1.31953892    0.00000000   12.09019010    c      6.000     0
          1.37363572    4.35656945   10.42728768    c      6.000     0
          2.22254866    5.73043140    8.20673398    c      6.000     0
          4.35826430    4.91404006    6.88593044    c      6.000     0
          4.35711531    4.91007724    4.14081518    c      6.000     0
          2.69212319    2.21833898   -0.21913358    c      6.000     0
          1.32071373    0.00000000   -1.07686002    c      6.000     0
         -2.21895782   -5.71588651    2.82541127    c      6.000     0
         -1.37253789   -4.34822475    0.60378548    c      6.000     0
         -1.37363572   -4.35656945   10.42728768    c      6.000     0
         -2.22254866   -5.73043140    8.20673398    c      6.000     0
          1.31953892    0.00000000   12.09019010    c      6.000     0
          2.69308449    2.22122291   11.24216217    c      6.000     0
          5.73285989    2.69341234    3.28915692    c      6.000     0
          4.91664222    1.37363891    1.15165670    c      6.000     0
          2.69212319   -2.21833898   -0.21913358    c      6.000     0
          1.37253789   -4.34822475    0.60378548    c      6.000     0
          0.00000000   -6.56356737    4.19735611    c      6.000     0
          0.00000000   -6.57360792    6.83403228    c      6.000     0
          1.37363572   -4.35656945   10.42728768    c      6.000     0
          2.69308449   -2.22122291   11.24216217    c      6.000     0
          4.91459209    1.37292404    9.86959608    c      6.000     0
          5.73074287    2.69238922    7.73443689    c      6.000     0
          4.91459209   -1.37292404    9.86959608    c      6.000     0
          6.58065103    1.31967945    5.51158394    c      6.000     0
          4.91664222   -1.37363891    1.15165670    c      6.000     0
          2.21895782   -5.71588651    2.82541127    c      6.000     0
          2.22254866   -5.73043140    8.20673398    c      6.000     0
          4.35826430   -4.91404006    6.88593044    c      6.000     0
          5.73074287   -2.69238922    7.73443689    c      6.000     0
          6.58065103   -1.31967945    5.51158394    c      6.000     0
          5.73285989   -2.69341234    3.28915692    c      6.000     0
          4.35711531   -4.91007724    4.14081518    c      6.000     0
 
       center of nuclear mass  :    0.00000000   -0.00000000    0.79386296
       center of nuclear charge:    0.00000000   -0.00000000    5.51278549

              +--------------------------------------------------+
              |               basis set information              |
              +--------------------------------------------------+

              we will work with the 1s 3p 5d 7f 9g ... basis set
              ...i.e. with spherical basis functions...

   type   atoms  prim   cont   basis
   ---------------------------------------------------------------------------
    c      120     50     30   cc-pVTZ   [4s3p2d1f|18s5p2d1f]
    h       28     16     14   cc-pVTZ   [3s2p1d|5s2p1d]
   ---------------------------------------------------------------------------
   total:  148   6448   3992
   ---------------------------------------------------------------------------

   total number of primitive shells          :   34
   total number of contracted shells         : 1368
   total number of cartesian basis functions : 4620
   total number of SCF-basis functions       : 3992


 integral neglect threshold       :  0.72E-12
 integral storage threshold THIZE :  0.10E-04
 integral storage threshold THIME :         5


 symmetry group of the molecule :   c2v

 the group has the following generators :
   c2(z)
   mirror plane sigma(xz)

    4 symmetry operations found

 there are 4 real representations :   a1   a2   b1   b2  

 maximum number of shells which are related by symmetry :  4


    mo occupation :
   irrep   mo's   occupied
    a1    1028       54
    a2     968       38
    b1     988       44
    b2    1008       44
 
 number of basis functions   :                   3992
 number of occupied orbitals :                    180
 

 automatic virtual orbital shift switched on 
      shift if e(lumo)-e(homo) < 0.10000000    


 keyword $2e-ints_shell_statistics missing in file <control>

 ! One task per shell generated
  No pre-computed optimal task distribution found
  ... using automatic task generation

          ------------------------
          nuclear repulsion energy  :   8327.05925710    
          ------------------------


         -----------------
         -S,T+V- integrals
         -----------------

 1e-integrals will be neglected if expon. factor < 0.723368E-13
 
   Difference densities algorithm switched on.
   The maximal number of linear combinations of
   difference densities is                    20 .

 DIIS switched on: error vector is FDS-SDF
 Max. Iterations for DIIS is     :   5
 DIIS matrix (see manual) 
    Scaling factor of diagonals  :  1.200
    threshold for scaling factor :  0.000

 scf convergence criterion : increment of total energy < .1000000D-06
                  and increment of one-electron energy < .1000000D-03

  MOs are in ASCII format !


 reading orbital data $scfmo  from file mos
 orbital characterization : expanded
 mo provided and orthogonalized by Cholesky decomposition

 DSCF restart information will be dumped onto file mos

 
                                              current damping :  0.300
 ITERATION  ENERGY          1e-ENERGY        2e-ENERGY     NORM[dD(SAO)]  TOL
   1  -2265.1232133872    -19565.132570     8972.9500990    0.000D+00 0.722D-12
          max. resid. norm for Fia-block=  3.079D-01 for orbital     17b2        
          max. resid. fock norm         =  1.410D+01 for orbital    946a1        
          Delta Eig. =  1023.2770012055 eV 
 
                                              current damping :  0.250
 ITERATION  ENERGY          1e-ENERGY        2e-ENERGY     NORM[dD(SAO)]  TOL
   2  -2271.3407527844    -19671.055869     9072.6558587    0.629D+01 0.539D-12
          Norm of current diis error:  5.6207    
          max. resid. norm for Fia-block=  1.322D-01 for orbital     17b2        
          max. resid. fock norm         =  2.072D-01 for orbital    103b1        
          Delta Eig. =   245.5886917165 eV 
 
                                              current damping :  0.200
 ITERATION  ENERGY          1e-ENERGY        2e-ENERGY     NORM[dD(SAO)]  TOL
   3  -2272.1962211711    -19653.775652     9054.5201735    0.193D+01 0.401D-12
          Norm of current diis error:  2.3093    
          max. resid. norm for Fia-block=  4.607D-02 for orbital     25b2        
          max. resid. fock norm         =  5.082D-02 for orbital     93b1        
          Delta Eig. =    51.1686845784 eV 
 
                                              current damping :  0.250
 ITERATION  ENERGY          1e-ENERGY        2e-ENERGY     NORM[dD(SAO)]  TOL
   4  -2272.3898297553    -19670.795462     9071.3463746    0.735D+00 0.369D-12
          Norm of current diis error: 0.62399    
          max. resid. norm for Fia-block=  1.359D-02 for orbital     54a1        
          max. resid. fock norm         =  1.377D-02 for orbital     54a1        
          Delta Eig. =     8.1914759757 eV 
 
                                              current damping :  0.300
 ITERATION  ENERGY          1e-ENERGY        2e-ENERGY     NORM[dD(SAO)]  TOL
   5  -2272.4091308162    -19667.719822     9068.2514341    0.217D+00 0.334D-12
          Norm of current diis error: 0.18743    
          max. resid. norm for Fia-block=  5.681D-03 for orbital     25b2        
          max. resid. fock norm         =  5.818D-03 for orbital     60a1        
 mo-orthogonalization: Cholesky decomposition
          Delta Eig. =     1.5773503785 eV 
 
                                              current damping :  0.350
 ITERATION  ENERGY          1e-ENERGY        2e-ENERGY     NORM[dD(SAO)]  TOL
   6  -2272.4118785216    -19667.805500     9068.3343645    0.230D-01 0.309D-12
          Norm of current diis error: 0.68404E-01
          max. resid. norm for Fia-block=  2.208D-03 for orbital     53a1        
          max. resid. fock norm         =  2.552D-03 for orbital     60a1        
          Delta Eig. =     0.3533084469 eV 
 
                                              current damping :  0.400
 ITERATION  ENERGY          1e-ENERGY        2e-ENERGY     NORM[dD(SAO)]  TOL
   7  -2272.4123187006    -19667.702208     9068.2306324    0.604D-02 0.286D-12
          Norm of current diis error: 0.26104E-01
          max. resid. norm for Fia-block=  1.038D-03 for orbital     52a1        
          max. resid. fock norm         =  1.193D-03 for orbital     60a1        
          Delta Eig. =     0.0870352627 eV 
 
                                              current damping :  0.250
 ITERATION  ENERGY          1e-ENERGY        2e-ENERGY     NORM[dD(SAO)]  TOL
   8  -2272.4123913683    -19667.666318     9068.1946700    0.327D-02 0.269D-12
          Norm of current diis error: 0.11194E-01
          max. resid. norm for Fia-block=  5.233D-04 for orbital     53a1        
          max. resid. fock norm         =  5.641D-04 for orbital     50b2        
          Delta Eig. =     0.0294570231 eV 
 
                                              current damping :  0.100
 ITERATION  ENERGY          1e-ENERGY        2e-ENERGY     NORM[dD(SAO)]  TOL
   9  -2272.4124066826    -19667.646917     9068.1752534    0.964D-03 0.255D-12
          Norm of current diis error: 0.49790E-02
          max. resid. norm for Fia-block=  2.333D-04 for orbital     52a1        
          max. resid. fock norm         =  2.674D-04 for orbital     60a1        
          Delta Eig. =     0.0077661590 eV 
 
                                              current damping :  0.150
 ITERATION  ENERGY          1e-ENERGY        2e-ENERGY     NORM[dD(SAO)]  TOL
  10  -2272.4124096194    -19667.650296     9068.1786295    0.231D-03 0.244D-12
          Norm of current diis error: 0.24955E-02
          max. resid. norm for Fia-block=  1.046D-04 for orbital     53a1        
          max. resid. fock norm         =  1.212D-04 for orbital     53a1        
 mo-orthogonalization: Cholesky decomposition
          Delta Eig. =     0.0032111407 eV 
 
                                              current damping :  0.200
 ITERATION  ENERGY          1e-ENERGY        2e-ENERGY     NORM[dD(SAO)]  TOL
  11  -2272.4124101869    -19667.645328     9068.1736609    0.132D-03 0.237D-12
          Norm of current diis error: 0.92845E-03
          max. resid. norm for Fia-block=  5.034D-05 for orbital     52a1        
          max. resid. fock norm         =  5.311D-05 for orbital     60a1        
          Delta Eig. =     0.0006933614 eV 
 
                                              current damping :  0.250
 ITERATION  ENERGY          1e-ENERGY        2e-ENERGY     NORM[dD(SAO)]  TOL
  12  -2272.4124103023    -19667.648398     9068.1767304    0.312D-04 0.230D-12
          Norm of current diis error: 0.33479E-03
          max. resid. norm for Fia-block=  1.961D-05 for orbital     53a1        
          max. resid. fock norm         =  2.078D-05 for orbital     53a1        
          Delta Eig. =     0.0003815757 eV 
 
                                              current damping :  0.300
 ITERATION  ENERGY          1e-ENERGY        2e-ENERGY     NORM[dD(SAO)]  TOL
  13  -2272.4124103184    -19667.647384     9068.1757168    0.162D-04 0.226D-12
          Norm of current diis error: 0.15181E-03
          max. resid. norm for Fia-block=  7.207D-06 for orbital     43b1        
          max. resid. fock norm         =  7.886D-06 for orbital     60a1        
          Delta Eig. =     0.0001184720 eV 
 
                                              current damping :  0.350
 ITERATION  ENERGY          1e-ENERGY        2e-ENERGY     NORM[dD(SAO)]  TOL
  14  -2272.4124103263    -19667.648100     9068.1764329    0.112D-04 0.223D-12
          Norm of current diis error: 0.45518E-04
          max. resid. norm for Fia-block=  2.621D-06 for orbital     53a1        
          max. resid. fock norm         =  4.144D-06 for orbital    348a2        
          Delta Eig. =     0.0000383575 eV 

 ENERGY CONVERGED !

 
                                              current damping :  0.200
 ITERATION  ENERGY          1e-ENERGY        2e-ENERGY     NORM[dD(SAO)]  TOL
  15  -2272.4124103326    -19667.648166     9068.1764983    0.106D-04 0.219D-12
          max. resid. norm for Fia-block=  5.499D-07 for orbital     44b1        
          max. resid. fock norm         =  4.496D-06 for orbital    380b2        

 convergence criteria satisfied after    15 iterations


                  ------------------------------------------ 
                 |  total energy      =  -2272.41241033263  |
                  ------------------------------------------ 
                 :  kinetic energy    =   2268.35258726204  :
                 :  potential energy  =  -4540.76499759467  :
                 :  virial theorem    =      1.99821343034  :
                 :  wavefunction norm =      1.00000000000  :
                  .......................................... 


 <geterg> : there is no data group $energy 


 <skperg> : $end is missing 


 orbitals $scfmo  will be written to file mos

    irrep                 50a1        51a1        52a1        53a1        54a1  
 eigenvalues H         -0.46091    -0.36230    -0.35309    -0.35286    -0.28699
            eV         -12.5420     -9.8586     -9.6082     -9.6018     -7.8094
 occupation              2.0000      2.0000      2.0000      2.0000      2.0000 

    irrep                 55a1        56a1        57a1        58a1        59a1  
 eigenvalues H         -0.03015     0.04747     0.06572     0.07761     0.08328
            eV          -0.8204      1.2918      1.7884      2.1118      2.2661

    irrep                 34a2        35a2        36a2        37a2        38a2  
 eigenvalues H         -0.46100    -0.36214    -0.35300    -0.28716    -0.28691
            eV         -12.5447     -9.8544     -9.6056     -7.8140     -7.8074
 occupation              2.0000      2.0000      2.0000      2.0000      2.0000 

    irrep                 39a2        40a2        41a2        42a2        43a2  
 eigenvalues H          0.03466     0.08096     0.08575     0.10372     0.12596
            eV           0.9432      2.2031      2.3333      2.8224      3.4275

    irrep                 40b1        41b1        42b1        43b1        44b1  
 eigenvalues H         -0.47883    -0.46089    -0.36228    -0.35314    -0.28715
            eV         -13.0297    -12.5416     -9.8583     -9.6094     -7.8139
 occupation              2.0000      2.0000      2.0000      2.0000      2.0000 

    irrep                 45b1        46b1        47b1        48b1        49b1  
 eigenvalues H         -0.03028     0.03435     0.07085     0.07701     0.08382
            eV          -0.8240      0.9349      1.9279      2.0955      2.2809

    irrep                 40b2        41b2        42b2        43b2        44b2  
 eigenvalues H         -0.47874    -0.46095    -0.36226    -0.35285    -0.28689
            eV         -13.0272    -12.5433     -9.8576     -9.6017     -7.8067
 occupation              2.0000      2.0000      2.0000      2.0000      2.0000 

    irrep                 45b2        46b2        47b2        48b2        49b2  
 eigenvalues H         -0.02995     0.03469     0.06064     0.07621     0.07816
            eV          -0.8151      0.9440      1.6502      2.0738      2.1269
 
 
 
 
 ==============================================================================
                           electrostatic moments
 ==============================================================================

 reference point for electrostatic moments:    0.00000   0.00000   0.00000

 
              nuc           elec       ->  total
 ------------------------------------------------------------------------------
                          charge      
 ------------------------------------------------------------------------------
         360.000000    -360.000000      -0.000000
 
 ------------------------------------------------------------------------------
                       dipole moment  
 ------------------------------------------------------------------------------
   x      -0.000000      -0.000000      -0.000000
   y      -0.000000      -0.000000      -0.000000
   z    1984.602777   -1984.536071       0.066706
 
   | dipole moment | =     0.0667 a.u. =     0.1696 debye 
 
 ------------------------------------------------------------------------------
                     quadrupole moment
 ------------------------------------------------------------------------------
  xx    5404.674455   -5658.663014    -253.988559
  yy    5392.094940   -5646.843869    -254.748929
  zz   16344.068626  -16597.650575    -253.581949
  xy      -0.000000      -0.000000      -0.000000
  xz      -0.000000      -0.000000      -0.000000
  yz      -0.000000      -0.000000      -0.000000
 
     1/3  trace=    -254.106479
     anisotropy=       1.025996
 
 ==============================================================================
 

    dscf profiling
  --------------------------------------------------------------------
             module   cpu total (s)       %  wall total (s)       %

          dscf.total          5656.3  100.00          4553.2  100.00
        dscf.prepare             6.6    0.12             6.8    0.15
      prepare.oneint             0.3    0.01             0.3    0.01
     prepare.moinput             0.3    0.01             0.3    0.01
     moinput_orthmos             5.6    0.10             5.7    0.12
            dscf.scf          5643.6   99.78          4540.2   99.71
             scf.pre             0.0    0.00             0.0    0.00
        scf.makedmat            21.0    0.37            21.2    0.46
          scf.shloop          4145.4   73.29          4147.2   91.08
          shloop_omp          4136.9   73.14          4138.7   90.90
          scf.symcar            13.7    0.24            13.7    0.30
        scf.makefock             3.5    0.06             4.1    0.09
          scf.newerg             0.2    0.00             0.2    0.00
          scf.newcnv           226.7    4.01             7.8    0.17
           scf.fdiag           725.1   12.82            24.3    0.53
         diag_tritrn           134.4    2.38             4.5    0.10
          diag_rdiag           492.0    8.70            16.4    0.36
          scf.modump           374.8    6.63           295.4    6.49
           ortho_all            89.2    1.58             3.5    0.08
            scf.post            26.8    0.47            22.1    0.49
        dscf.postscf             6.1    0.11             6.2    0.14
 


    ------------------------------------------------------------------------
         total  cpu-time :  1 hours 34 minutes and 18 seconds
         total wall-time :  1 hours 15 minutes and 56 seconds
    ------------------------------------------------------------------------

   ****  dscf : all done  ****


    2018-02-20 10:16:20.541 

