 this is node-proc. number 0 running on node c-15-41.local
 the total number of node-proc. spawned is  61

 dscfserver (c-15-41.local) : TURBOMOLE V7.2 ( 21471 ) 7 Nov 2017 at 16:15:16
 Copyright (C) 2017 TURBOMOLE GmbH, Karlsruhe


    2018-02-20 09:00:26.581 

 
    0:00:08 ---- Start global counter...
    0:08:34 ---- ... finished.
 
    0:09:00 ---- Start global counter...
    0:17:30 ---- ... finished.
 
    0:17:56 ---- Start global counter...
    0:25:56 ---- ... finished.
 
    0:26:26 ---- Start global counter...
    0:33:48 ---- ... finished.
 
    0:34:14 ---- Start global counter...
    0:40:53 ---- ... finished.
 
    0:41:21 ---- Start global counter...
    0:46:38 ---- ... finished.
 
    0:47:04 ---- Start global counter...
    0:51:31 ---- ... finished.
 
    0:51:58 ---- Start global counter...
    0:56:04 ---- ... finished.
 
    0:56:31 ---- Start global counter...
    1:00:08 ---- ... finished.
 
    1:00:36 ---- Start global counter...
    1:03:29 ---- ... finished.
 
    1:03:59 ---- Start global counter...
    1:06:34 ---- ... finished.
 
    1:07:01 ---- Start global counter...
    1:09:04 ---- ... finished.
 
    1:09:31 ---- Start global counter...
    1:11:18 ---- ... finished.
 
    1:11:46 ---- Start global counter...
    1:13:21 ---- ... finished.
 
    1:13:47 ---- Start global counter...
    1:15:22 ---- ... finished.
 
    1:15:53 ---- ByeBye Tag received


 ! Total wall-clock time in seconds  :     4552.9
 ! Time (sec) spent in global counter:     4131.0
 ! So-called SERIAL wall-clock time  :      421.9

  *** Regular termination of server ***
 total turnaround time of dscfserver  4553.66 sec
 cpu elapsed by dscfserver process    4129.16 sec 

   ***  dscf server : all done  ***


    2018-02-20 10:16:20.241 

