
   OpenMP run-time library returned nthreads =  8
 operating system is UNIX !

 dscf (c-17-4) : TURBOMOLE V7.3 ( 22142 ) 4 Jul 2018 at 18:12:42
 Copyright (C) 2018 TURBOMOLE GmbH, Karlsruhe


    2019-04-02 13:14:07.289 



                             d s c f - program

                   idea & directorship : reinhart ahlrichs
                   program development : marco haeser
                                         michael baer
                           dft version : oliver treutler


                          quantum chemistry group
                          universitaet  karlsruhe
                                  germany




                          References             
                                                 
          TURBOMOLE:                             
              R. Ahlrichs, M. Baer, M. Haeser, H. Horn, and
              C. Koelmel
              Electronic structure calculations on workstation
              computers: the program system TURBOMOLE
              Chem. Phys. Lett. 162: 165 (1989)
          Density Functional:                              
              O. Treutler and R. Ahlrichs                      
              Efficient Molecular Numerical Integration Schemes
              J. Chem. Phys. 102: 346 (1995)                   
          Parallel Version:                                
              Performance of parallel TURBOMOLE for Density    
              Functional Calculations                          
              M. v. Arnim and R. Ahlrichs                      
              J. Comp. Chem. 19: 1746 (1998)                   
                                         




              +--------------------------------------------------+
              | Atomic coordinate, charge and isotop information |
              +--------------------------------------------------+

                    atomic coordinates            atom    charge  isotop
          4.31700288   -0.08971758    0.05258204    o      8.000     0
          4.84995500    0.60938427   -1.53453106    h      1.000     0
          5.04627436    1.63292702    1.97903719    c      6.000     0
          4.43554691    0.82103893    3.76117469    h      1.000     0
          7.08917269    1.89575669    2.05281204    h      1.000     0
          4.14208848    3.47276031    1.76138509    h      1.000     0
 
       center of nuclear mass  :    4.69256844    0.78118394    0.95812895
       center of nuclear charge:    4.74057957    0.88215343    1.01865112

              +--------------------------------------------------+
              |               basis set information              |
              +--------------------------------------------------+

              we will work with the 1s 3p 5d 7f 9g ... basis set
              ...i.e. with spherical basis functions...

   type   atoms  prim   cont   basis
   ---------------------------------------------------------------------------
    o        1     77     57   def2-QZVP   [7s4p3d2f1g|15s8p3d2f1g]
    h        4     33     30   def2-QZVP   [4s3p2d1f|7s3p2d1f]
    c        1     77     57   def2-QZVP   [7s4p3d2f1g|15s8p3d2f1g]
   ---------------------------------------------------------------------------
   total:    6    286    234
   ---------------------------------------------------------------------------

   total number of primitive shells          :   71
   total number of contracted shells         :   74
   total number of cartesian basis functions :  284
   total number of SCF-basis functions       :  234


 integral neglect threshold       :  0.12E-12
 integral storage threshold THIZE :  0.10E-04
 integral storage threshold THIME :         5


 DENSITY CONVERGENCE CHECK SWITCHED ON !
 SCF CONVERGENCE IF RMS(delta[D]) <     0.1000000000E-06


 symmetry group of the molecule :   c1 

 the group has the following generators :
   c1(z)

    1 symmetry operations found

 there are 1 real representations :   a   

 maximum number of shells which are related by symmetry :  1


    mo occupation :
   irrep   mo's   occupied
    a      234        9
 
 number of basis functions   :                    234
 number of occupied orbitals :                      9
 

 automatic virtual orbital shift switched on 
      shift if e(lumo)-e(homo) < 0.10000000    


          ------------------------
          nuclear repulsion energy  :   40.3471075981    
          ------------------------


         -----------------
         -S,T+V- integrals
         -----------------

 1e-integrals will be neglected if expon. factor < 0.117675E-13
 
   Difference densities algorithm switched on.
   The maximal number of linear combinations of
   difference densities is                    20 .

 DIIS switched on: error vector is FDS-SDF
 Max. Iterations for DIIS is     :   5
 DIIS matrix (see manual) 
    Scaling factor of diagonals  :  1.200
    threshold for scaling factor :  0.000

 scf convergence criterion : increment of total energy < .1000000D-08
                  and increment of one-electron energy < .1000000D-05

  MOs are in ASCII format !


 reading orbital data $scfmo  from file mos
 orbital characterization : scfconv=9

 DSCF restart information will be dumped onto file mos

 
                                              current damping :  0.700
 ITERATION  ENERGY          1e-ENERGY        2e-ENERGY     RMS[dD(SAO)]   TOL
   1  -115.07860898613    -237.03284784     81.607131260    0.000D+00 0.117D-12
          max. resid. norm for Fia-block=  2.613D-01 for orbital      1a         
          max. resid. fock norm         =  8.016D-01 for orbital    234a         
          Delta Eig. =    62.2297643209 eV 
 
                                              current damping :  0.650
 ITERATION  ENERGY          1e-ENERGY        2e-ENERGY     RMS[dD(SAO)]   TOL
   2  -115.09655204744    -236.93030682     81.486647176    0.829D-03 0.751D-13
          Norm of current diis error: 0.43311    
          max. resid. norm for Fia-block=  1.137D-01 for orbital      1a         
          max. resid. fock norm         =  3.295D-01 for orbital    234a         
          Delta Eig. =    26.4517041694 eV 
 
                                              current damping :  0.600
 ITERATION  ENERGY          1e-ENERGY        2e-ENERGY     RMS[dD(SAO)]   TOL
   3  -115.10000623858    -236.95232440     81.505210563    0.391D-03 0.570D-13
          Norm of current diis error: 0.18337    
          max. resid. norm for Fia-block=  4.651D-02 for orbital      1a         
          max. resid. fock norm         =  1.294D-01 for orbital    234a         
          Delta Eig. =    10.5765569208 eV 
 
                                              current damping :  0.450
 ITERATION  ENERGY          1e-ENERGY        2e-ENERGY     RMS[dD(SAO)]   TOL
   4  -115.10066811954    -236.95935104     81.511575323    0.172D-03 0.501D-13
          Norm of current diis error: 0.72011E-01
          max. resid. norm for Fia-block=  1.741D-02 for orbital      1a         
          max. resid. fock norm         =  4.892D-02 for orbital    234a         
          Delta Eig. =     4.4817347216 eV 
 
                                              current damping :  0.500
 ITERATION  ENERGY          1e-ENERGY        2e-ENERGY     RMS[dD(SAO)]   TOL
   5  -115.10077879437    -236.95470814     81.506821748    0.744D-04 0.460D-13
          Norm of current diis error: 0.23946E-01
          max. resid. norm for Fia-block=  5.434D-03 for orbital      1a         
          max. resid. fock norm         =  1.513D-02 for orbital    234a         
 mo-orthogonalization: Cholesky decomposition
          Delta Eig. =     1.3224800353 eV 
 
                                              current damping :  0.550
 ITERATION  ENERGY          1e-ENERGY        2e-ENERGY     RMS[dD(SAO)]   TOL
   6  -115.10079168138    -236.95589607     81.507996787    0.246D-04 0.435D-13
          Norm of current diis error: 0.87615E-02
          max. resid. norm for Fia-block=  1.791D-03 for orbital      1a         
          max. resid. fock norm         =  5.068D-03 for orbital    234a         
          Delta Eig. =     0.4344594663 eV 
 
                                              current damping :  0.600
 ITERATION  ENERGY          1e-ENERGY        2e-ENERGY     RMS[dD(SAO)]   TOL
   7  -115.10079351851    -236.95551348     81.507612367    0.876D-05 0.414D-13
          Norm of current diis error: 0.34680E-02
          max. resid. norm for Fia-block=  6.320D-04 for orbital      1a         
          max. resid. fock norm         =  1.792D-03 for orbital    234a         
          Delta Eig. =     0.1479687403 eV 
 
                                              current damping :  0.650
 ITERATION  ENERGY          1e-ENERGY        2e-ENERGY     RMS[dD(SAO)]   TOL
   8  -115.10079383461    -236.95554543     81.507643998    0.347D-05 0.392D-13
          Norm of current diis error: 0.14881E-02
          max. resid. norm for Fia-block=  2.346D-04 for orbital      1a         
          max. resid. fock norm         =  6.712D-04 for orbital    234a         
          Delta Eig. =     0.0539927958 eV 
 
                                              current damping :  0.700
 ITERATION  ENERGY          1e-ENERGY        2e-ENERGY     RMS[dD(SAO)]   TOL
   9  -115.10079389945    -236.95551824     81.507616739    0.150D-05 0.368D-13
          Norm of current diis error: 0.67823E-03
          max. resid. norm for Fia-block=  9.134D-05 for orbital      1a         
          max. resid. fock norm         =  2.640D-04 for orbital    234a         
          Delta Eig. =     0.0206476119 eV 
 
                                              current damping :  0.550
 ITERATION  ENERGY          1e-ENERGY        2e-ENERGY     RMS[dD(SAO)]   TOL
  10  -115.10079391456    -236.95550387     81.507602358    0.697D-06 0.345D-13
          Norm of current diis error: 0.32405E-03
          max. resid. norm for Fia-block=  3.713D-05 for orbital      1a         
          max. resid. fock norm         =  1.085D-04 for orbital    234a         
 mo-orthogonalization: Cholesky decomposition
          Delta Eig. =     0.0093206346 eV 
 
                                              current damping :  0.400
 ITERATION  ENERGY          1e-ENERGY        2e-ENERGY     RMS[dD(SAO)]   TOL
  11  -115.10079391871    -236.95549485     81.507593333    0.386D-06 0.319D-13
          Norm of current diis error: 0.13962E-03
          max. resid. norm for Fia-block=  1.650D-05 for orbital      5a         
          max. resid. fock norm         =  3.842D-05 for orbital    234a         
          Delta Eig. =     0.0036621268 eV 
 
                                              current damping :  0.250
 ITERATION  ENERGY          1e-ENERGY        2e-ENERGY     RMS[dD(SAO)]   TOL
  12  -115.10079391966    -236.95548940     81.507587879    0.196D-06 0.334D-13
          Norm of current diis error: 0.52337E-04
          max. resid. norm for Fia-block=  6.924D-06 for orbital      5a         
          max. resid. fock norm         =  1.095D-05 for orbital    234a         
          Delta Eig. =     0.0011718577 eV 

 DENSITY CONVERGED !

 
                                              current damping :  0.100
 ITERATION  ENERGY          1e-ENERGY        2e-ENERGY     RMS[dD(SAO)]   TOL
  13  -115.10079391982    -236.95548664     81.507585117    0.869D-07 0.335D-13
          Norm of current diis error: 0.16386E-04
          max. resid. norm for Fia-block=  2.434D-06 for orbital      5a         
          max. resid. fock norm         =  2.529D-06 for orbital      5a         
          Delta Eig. =     0.0002668141 eV 

 ENERGY & DENSITY CONVERGED !

 
                                              current damping :  0.050
 ITERATION  ENERGY          1e-ENERGY        2e-ENERGY     RMS[dD(SAO)]   TOL
  14  -115.10079391984    -236.95548553     81.507584016    0.321D-07 0.334D-13
          max. resid. norm for Fia-block=  4.427D-07 for orbital      5a         
          max. resid. fock norm         =  4.595D-07 for orbital      5a         

 convergence criteria satisfied after    14 iterations


                  ------------------------------------------ 
                 |  total energy      =   -115.10079391984  |
                  ------------------------------------------ 
                 :  kinetic energy    =    114.98067182772  :
                 :  potential energy  =   -230.08146574756  :
                 :  virial theorem    =      1.99895637477  :
                 :  wavefunction norm =      1.00000000000  :
                  .......................................... 


 orbitals $scfmo  will be written to file mos

    irrep                  5a          6a          7a          8a          9a   
 eigenvalues H         -0.69110    -0.62084    -0.59293    -0.50505    -0.45224
            eV         -18.8059    -16.8939    -16.1346    -13.7431    -12.3061
 occupation              2.0000      2.0000      2.0000      2.0000      2.0000 

    irrep                 10a         11a         12a         13a         14a   
 eigenvalues H          0.10186     0.13700     0.17364     0.17557     0.20180
            eV           2.7717      3.7280      4.7250      4.7776      5.4912
 
 
 
 
 ==============================================================================
                           electrostatic moments
 ==============================================================================

 reference point for electrostatic moments:    0.00000   0.00000   0.00000

 
              nuc           elec       ->  total
 ------------------------------------------------------------------------------
                          charge      
 ------------------------------------------------------------------------------
          18.000000     -18.000000      -0.000000
 
 ------------------------------------------------------------------------------
                       dipole moment  
 ------------------------------------------------------------------------------
   x      85.330432     -84.987566       0.342866
   y      15.878762     -15.254153       0.624608
   z      18.335720     -18.420196      -0.084476
 
   | dipole moment | =     0.7175 a.u. =     1.8237 debye 
 
 ------------------------------------------------------------------------------
                     quadrupole moment
 ------------------------------------------------------------------------------
  xx     412.490826    -419.499095      -7.008269
  yy      32.762510     -42.430299      -9.667789
  zz      47.339384     -55.283629      -7.944245
  xy      80.763768     -77.768451       2.995317
  xz      92.825574     -93.406484      -0.580910
  yz      31.513452     -31.492752       0.020700
 
     1/3  trace=      -8.206768
     anisotropy=       5.778346
 
 ==============================================================================
 


    ------------------------------------------------------------------------
         total  cpu-time :  3 minutes and 47 seconds
         total wall-time :  37.98 seconds
    ------------------------------------------------------------------------

   ****  dscf : all done  ****


    2019-04-02 13:14:45.259 

