Using Slurm to start processes with PMI2
STARTING ridft ON 8 PROCESSORS!
RUNNING PROGRAM /modfac/apps/TURBOMOLE/7.0_intel_GA/bin/em64t-unknown-linux-gnu_mpi/ridft_mpi.
PLEASE WAIT UNTIL ridft HAS FINISHED.
Look for the output in slave1.output.
  this is node-proc. number 1 running on node c-5-35.local
  the total number of node-proc. spawned is            8
  parallel platform: MPP, or cluster with fast interconnect

 ridft (c-5-35.local) : TURBOMOLE V7.0.2( ) 15 Jan 2016 at 17:47:42
 Copyright (C) 2016 TURBOMOLE GmbH, Karlsruhe


    2016-01-31 09:58:17.033 



                                  r i d f t

                        DFT program with RI approximation 
                                for coulomb part 




                                                 
                                 References:     
                                                 
          TURBOMOLE:                             
              R. Ahlrichs, M. Baer, M. Haeser, H. Horn, and
              C. Koelmel
              Electronic structure calculations on workstation
              computers: the program system TURBOMOLE
              Chem. Phys. Lett. 162: 165 (1989)
          Density Functional:                              
              O. Treutler and R. Ahlrichs                      
              Efficient Molecular Numerical Integration Schemes
              J. Chem. Phys. 102: 346 (1995)                   
          Parallel Version:                                
              Performance of parallel TURBOMOLE for Density    
              Functional Calculations                          
              M. v. Arnim and R. Ahlrichs                      
              J. Comp. Chem. 19: 1746 (1998)                   
          RI-J Method:                                     
              Auxiliary Basis Sets to approximate Coulomb      
              Potentials                                       
              Chem. Phys. Lett. 240: 283 (1995)                
              K. Eichkorn, O. Treutler, H. Oehm, M. Haeser     
              and R. Ahlrichs                                  
              Chem. Phys. Lett. 242: 652 (1995)                
                                                           
              Auxiliary Basis Sets for Main Row Atoms and their
              Use to approximate Coulomb Potentials            
              K. Eichkorn, F. Weigend, O. Treutler and         
              R. Ahlrichs                                      
              Theo. Chem. Acc. 97: 119 (1997)                   
                                                           
              Accurate Coulomb-fitting basis sets for H to Rn 
              F. Weigend                                        
              Phys. Chem. Chem. Phys. 8: 1057 (2006)            
                                                           
          Multipole accelerated RI-J (MARI-J):             
              Fast evaluation of the Coulomb potential for     
              electron densities using multipole accelerated   
              resolution of identity approximation             
              M. Sierka, A. Hogekamp and R. Ahlrichs           
              J. Chem. Phys. 118: 9136 (2003)                  
          RI-JK Method:                                     
              A fully direct RI-HF algorithm: Implementation,
              optimised auxiliary basis sets, demonstration of
              accuracy and efficiency                         
              F. Weigend                                      
              Phys. Chem. Chem. Phys. 4: 4285 (2002)           
          Two-component HF and DFT with spin-orbit coupling:  
              Self-consistent treatment of spin-orbit         
              interactions with efficient Hartree-Fock and    
              density functional methods                      
              M. K. Armbruster, F. Weigend, C. van Wüllen and 
              W. Klopper                                      
              Phys. Chem. Chem. Phys. 10: 1748 (2008)         
          Relativistic all-electron 2c calculations           
              An efficient implementation of two-component    
              relativistic exact-decoupling methods for large 
              molecules                                       
              D. Peng, N. Middendorf, F. Weigend, M. Reiher   
              J. Chem. Phys. 138, 184105 (2013)               
                                         


 


              +--------------------------------------------------+
              |      general information about current run       |
              +--------------------------------------------------+

 

 SCF run will be profiled !


 DENSITY CONVERGENCE CHECK SWITCHED ON !
 SCF CONVERGENCE IF RMS(delta[D]) <     0.1000000000E-06

 PBE functional
 exchange:    LDA + PBE
 correlation: LDA (PW) + PBE
 A DFT calculation using the RI-J approximation will be carried out.
 Allocatable memory for RI due to $ricore (MB):        8000


              +--------------------------------------------------+
              | Atomic coordinate, charge and isotop information |
              +--------------------------------------------------+

                    atomic coordinates            atom    charge  isotop
         -1.45507023   -0.18116804   -9.52270793    c      0.000     0
          1.50694321   -0.19354575   -9.48385516    c      0.000     0
          2.12405217    2.03944913   -8.00569248    n      0.000     0
          0.01645951    3.36017873   -7.21206420    c      0.000     0
         -2.08591750    2.09778498   -8.13413717    n      0.000     0
         -2.11122093   -2.53465187   -8.30614004    n      0.000     0
         -0.00725655   -4.02169626   -7.73304279    c      0.000     0
          2.12063177   -2.59098460   -8.33444814    n      0.000     0
         -0.03645282   -6.16685667   -6.93790273    o      0.000     0
         -0.00895730    5.31224693   -5.97635338    o      0.000     0
          4.64216894   -3.65890664   -8.16070672    c      0.000     0
          4.65250574    3.05453442   -7.73168219    c      0.000     0
         -9.05653139   -0.26688602   -3.51065762    c      0.000     0
         -7.56616108   -0.22542543   -6.07306957    c      0.000     0
         -6.12363864    2.11449016   -5.91062871    n      0.000     0
         -9.37086843    3.09775246    0.00000000    c      0.000     0
         -8.30425031    2.09292838   -2.31070042    n      0.000     0
         -8.17098683   -2.54512095   -2.30450212    n      0.000     0
         -6.52184173   -3.94132621   -3.81932549    c      0.000     0
         -6.11014599   -2.52684730   -6.00348985    n      0.000     0
         -5.67367595   -6.01403452   -3.35445286    o      0.000     0
         -5.63975536    5.48396634   -3.13932644    o      0.000     0
         -4.64532478   -3.53892792   -8.09163723    c      0.000     0
         -4.58761254    3.15924415   -7.92668303    c      0.000     0
          9.10583434   -0.57311614    3.51303868    c      0.000     0
          7.58458591   -0.42533956    6.04999601    c      0.000     0
          6.13149990    1.88976393    5.75576565    n      0.000     0
          6.82701360    3.27045453    3.63360320    c      0.000     0
          8.57312055    1.83190051    2.31408303    n      0.000     0
          8.06121263   -2.79176801    2.29739675    n      0.000     0
          6.45233760   -4.16066672    3.87110398    c      0.000     0
          6.15124754   -2.74246505    6.07186014    n      0.000     0
          5.54266123   -6.21721787    3.44175821    o      0.000     0
          6.07316405    5.37345516    3.07906307    o      0.000     0
          4.64216894   -3.65890664    8.16070672    c      0.000     0
          4.65250574    3.05453442    7.73168219    c      0.000     0
          7.58458591   -0.42533956   -6.04999601    c      0.000     0
          9.10583434   -0.57311614   -3.51303868    c      0.000     0
          8.57312055    1.83190051   -2.31408303    n      0.000     0
          6.82701360    3.27045453   -3.63360320    c      0.000     0
          6.13149990    1.88976393   -5.75576565    n      0.000     0
          6.15124754   -2.74246505   -6.07186014    n      0.000     0
          6.45233760   -4.16066672   -3.87110398    c      0.000     0
          8.06121263   -2.79176801   -2.29739675    n      0.000     0
          5.54266123   -6.21721787   -3.44175821    o      0.000     0
          6.07316405    5.37345516   -3.07906307    o      0.000     0
          9.04266080   -3.90976778    0.00000000    c      0.000     0
          9.71687729    2.74495949    0.00000000    c      0.000     0
         -7.56616108   -0.22542543    6.07306957    c      0.000     0
         -9.05653139   -0.26688602    3.51065762    c      0.000     0
         -8.30425031    2.09292838    2.31070042    n      0.000     0
         -6.57074784    3.43610792    3.71760153    c      0.000     0
         -6.12363864    2.11449016    5.91062871    n      0.000     0
         -6.11014599   -2.52684730    6.00348985    n      0.000     0
         -6.52184173   -3.94132621    3.81932549    c      0.000     0
         -8.17098683   -2.54512095    2.30450212    n      0.000     0
         -5.67367595   -6.01403452    3.35445286    o      0.000     0
         -5.63975536    5.48396634    3.13932644    o      0.000     0
         -9.20056631   -3.60705255    0.00000000    c      0.000     0
         -6.57074784    3.43610792   -3.71760153    c      0.000     0
          1.50694321   -0.19354575    9.48385516    c      0.000     0
         -1.45507023   -0.18116804    9.52270793    c      0.000     0
         -2.08591750    2.09778498    8.13413717    n      0.000     0
          0.01645951    3.36017873    7.21206420    c      0.000     0
          2.12405217    2.03944913    8.00569248    n      0.000     0
          2.12063177   -2.59098460    8.33444814    n      0.000     0
         -0.00725655   -4.02169626    7.73304279    c      0.000     0
         -2.11122093   -2.53465187    8.30614004    n      0.000     0
         -0.03645282   -6.16685667    6.93790273    o      0.000     0
         -0.00895730    5.31224693    5.97635338    o      0.000     0
         -4.64532478   -3.53892792    8.09163723    c      0.000     0
         -4.58761254    3.15924415    7.92668303    c      0.000     0
         -2.26134078   -0.09000766  -11.43386356    h      0.000     0
          2.36251671   -0.04667624  -11.36963176    h      0.000     0
          5.65623377   -3.29653275   -9.93270291    h      0.000     0
          4.39138338   -5.68873706   -7.86687320    h      0.000     0
          5.63960418    2.85915564   -9.54699091    h      0.000     0
          4.45818520    5.04774196   -7.22533007    h      0.000     0
        -11.11797694   -0.30458606   -3.74736472    h      0.000     0
         -8.79102487   -0.17697285   -7.74736692    h      0.000     0
         -4.44148002   -5.56620722   -7.74468351    h      0.000     0
         -5.67764437   -3.20047797   -9.85896580    h      0.000     0
          5.63960418    2.85915564    9.54699091    h      0.000     0
         -5.58166518    2.89152665   -9.72543775    h      0.000     0
         11.15295577   -0.78688196    3.78716235    h      0.000     0
          8.79329254   -0.30078771    7.73402545    h      0.000     0
          5.65623377   -3.29653275    9.93270291    h      0.000     0
          4.39138338   -5.68873706    7.86687320    h      0.000     0
         -4.36645789    5.17032849   -7.51661246    h      0.000     0
          4.45818520    5.04774196    7.22533007    h      0.000     0
          8.79329254   -0.30078771   -7.73402545    h      0.000     0
         11.15295577   -0.78688196   -3.78716235    h      0.000     0
          8.44329636   -5.88825435    0.00000000    h      0.000     0
         11.11502896   -3.77504920    0.00000000    h      0.000     0
          9.49052589    4.79718317    0.00000000    h      0.000     0
         11.72369085    2.23367519    0.00000000    h      0.000     0
         -8.79102487   -0.17697285    7.74736692    h      0.000     0
        -11.11797694   -0.30458606    3.74736472    h      0.000     0
        -11.26238981   -3.37189503    0.00000000    h      0.000     0
         -8.69678423   -5.61186301    0.00000000    h      0.000     0
        -11.41194273    2.74206821    0.00000000    h      0.000     0
         -8.99305549    5.12697818    0.00000000    h      0.000     0
          2.36251671   -0.04667624   11.36963176    h      0.000     0
         -2.26134078   -0.09000766   11.43386356    h      0.000     0
         -4.44148002   -5.56620722    7.74468351    h      0.000     0
         -5.67764437   -3.20047797    9.85896580    h      0.000     0
         -4.36645789    5.17032849    7.51661246    h      0.000     0
         -5.58166518    2.89152665    9.72543775    h      0.000     0
          0.49539171    3.67413783    0.00000000    c      6.000     0
         -0.92366034    1.16805862    0.00000000    c      6.000     0
          0.92859252   -1.05941826    0.00000000    c      6.000     0
         -1.30209689    5.89433927    0.00000000    n      7.000     0
         -2.48357257    5.87192712    1.56883174    h      1.000     0
         -2.48357257    5.87192712   -1.56883174    h      1.000     0
         -0.30101448    7.54809530    0.00000000    h      1.000     0
         -2.14965796    1.05488292    1.66764552    h      1.000     0
         -2.14965796    1.05488292   -1.66764552    h      1.000     0
          1.67225645    3.89810817   -1.67535560    h      1.000     0
          1.67225645    3.89810817    1.67535560    h      1.000     0
         -0.07237651   -2.86559961    0.00000000    h      1.000     0
          2.14381871   -1.00455951   -1.67325800    h      1.000     0
          2.14381871   -1.00455951    1.67325800    h      1.000     0
 
       center of nuclear mass  :    0.01258556   -0.16108642    0.00000000
       center of nuclear charge:   -0.23201248    2.52229306    0.00000000

              +--------------------------------------------------+
              |               basis set information              |
              +--------------------------------------------------+

              we will work with the 1s 3p 5d 7f 9g ... basis set
              ...i.e. with spherical basis functions...

   type   atoms  prim   cont   basis
   ---------------------------------------------------------------------------
    c       39     50     30   cc-pVTZ   [4s3p2d1f|18s5p2d1f]
    n       25     50     30   cc-pVTZ   [4s3p2d1f|18s5p2d1f]
    o       12     50     30   cc-pVTZ   [4s3p2d1f|18s5p2d1f]
    h       46     16     14   cc-pVTZ   [3s2p1d|5s2p1d]
   ---------------------------------------------------------------------------
   total:  122   4536   2924
   ---------------------------------------------------------------------------

   total number of primitive shells          :   86
   total number of contracted shells         : 1036
   total number of cartesian basis functions : 3350
   total number of SCF-basis functions       : 2924


 integral neglect threshold       :  0.10E-13
 integral storage threshold THIZE :  0.10E-04
 integral storage threshold THIME :         5

 RI-J AUXILIARY BASIS SET information:

              we will work with the 1s 3p 5d 7f 9g ... basis set
              ...i.e. with spherical basis functions...

   type   atoms  prim   cont   basis
   ---------------------------------------------------------------------------
    c       39     70     49   cc-pVTZ   [6s4p3d1f1g|12s5p4d2f1g]
    n       25     70     49   cc-pVTZ   [6s4p3d1f1g|12s5p4d2f1g]
    o       12     70     49   cc-pVTZ   [6s4p3d1f1g|12s5p4d2f1g]
    h       46     16     11   cc-pVTZ   [3s1p1d|5s2p1d]
   ---------------------------------------------------------------------------
   total:  122   6056   4230
   ---------------------------------------------------------------------------

   total number of primitive shells          :   80
   total number of contracted shells         : 1370
   total number of cartesian basis functions : 5188
   total number of SCF-basis functions       : 4230


 symmetry group of the molecule :   c1 

 the group has the following generators :
   c1(z)

    1 symmetry operations found

 there are 1 real representations :   a   

 maximum number of shells which are related by symmetry :  1


    mo occupation :
   irrep   mo's   occupied
    a     2924       17
 
 number of basis functions   :         2924
 number of occupied orbitals :           17
 
  
           ------------------
           density functional
           ------------------
 Dummy atoms with grid-point found.
 DFT quadrature threshold dgrenze tightened by factor 1/10.

 PBE functional
 exchange:    LDA + PBE
 correlation: LDA (PW) + PBE
 Dummy atoms with grid-point found.
 DFT quadrature threshold dgrenze tightened by factor 1/10.

 Dummy atoms with grid-point found.
 DFT quadrature threshold dgrenze tightened by factor 1/10.

 grinp -> nfun, dfgga, dfhybrid 
           6 T F
 iterations will be done with small grid
  
 spherical integration : Lebedev's spherical grid
 spherical gridsize    :           5
    i.e. gridpoints    :         590
 value for diffuse not defined
 radial integration    : Chebyshev 2nd kind (scaling 3)
 radial gridsize       :           8
 integration cells     :         122
 partition function    : becke
 partition sharpness   :           3
  
 found dummy atom(s) with basis: included in dft

 <rddim> : input of entry tasksize
           from data group '$pardft' failed !

               Default values taken

 <rddim> : input of entry memdiv
           from data group '$pardft' failed !

               Default values taken
  RIDFT: memory allocation for DFT gridpoints
  MEMORY is divided by 1 as DEFAULT
 Each node can hold at most  the            1 -th part
 of the gridpoints    

 biggest AO integral is expected to be     4.866064444
  
           ------------------------
               RI-J - INFORMATION
           ------------------------
 
 
 **************************************************
 *      MEMORY ALLOCATION FOR PARALLEL RI-DFT     *
 **************************************************
 
 
MEMORY FOR (MU NU/ ALPHA), SEQUENTIAL RUN               7863 MByte
 
            DIFFERENCE IN MEMORY NEED:       DIAG./SLAVE  
 
      TOTAL DIFFERENCE :                    478 MByte
 
      difference in xcore:                  138 MByte
      difference in fatmat:                 125 MByte
      getcor calls skipped by slaves:       217 MByte
 
 
           Integral memory available for diagonal.      7863 MByte
 
           Integral memory available for slave             0 MByte
 
         MEMORY FOR (MU NU/ ALPHA) ON DIAGONALIZER      7863 MByte
 
         MEMORY FOR (MU NU/ ALPHA) ON ONE SLAVE            0 MByte
 
         TOTAL MEMORY FOR (MU NU/ ALPHA),ALL NODES      7863 MByte
 
 Contributions to RI integral batches: 
  neglected integral batches:      321270
  direct contribution:             156906
  memory contribution:       58990
 Memory core needed for (P|Q) and Cholesky    137 MByte
 Memory core minimum needed except of (P|Q)     2 MByte
 Total minimum memory core needed (sum)       139 MByte
     number of direct tasks:         160
  
 ****************************************
 Memory allocated for RI-J  8002 MByte
 ****************************************
                                            

          ------------------------
          nuclear repulsion energy  :   138.978749168    
          ------------------------

 
          -----------------
          -S integrals
          -----------------

 1e-integrals will be neglected if expon. factor < 0.997600E-15
 
          -----------------
          -T+V integrals
          -----------------

 1e-integrals will be neglected if expon. factor < 0.997600E-15
 Difference densities >>NOT<< switched on in parallel ridft!

 automatic virtual orbital shift switched on 
      shift if e(lumo)-e(homo) < 0.10000000    


 DIIS switched on: error vector is FDS-SDF
 Max. Iterations for DIIS is     :   4
 DIIS matrix (see manual) 
    Scaling factor of diagonals  :  1.200
    threshold for scaling factor :  0.000

 scf convergence criterion : increment of total energy < .1000000D-08
                  and increment of one-electron energy < .1000000D-05


 <geterg> : there is no data group $energy 

  MOs are in ASCII format !


 reading orbital data $scfmo  from file mos . 

 orbital characterization : expanded
 
 mo provided and orthogonalized by Cholesky decomposition

 DSCF restart information will be dumped onto file mos


 Starting SCF iterations


 ITERATION  ENERGY          1e-ENERGY        2e-ENERGY     RMS[dD(SAO)]   TOL
   1  -174.01069221450    -494.29920016     181.30975878    0.000D+00 0.995D-14
                            Exc = -25.4867654100     Coul =  206.796524190    
                              N = 34.000061728    
                            current damping = 0.700
 
          max. resid. norm for Fia-block=  2.760D-01 for orbital      1a         
          max. resid. fock norm         =  1.352D+01 for orbital   2689a         

 ITERATION  ENERGY          1e-ENERGY        2e-ENERGY     RMS[dD(SAO)]   TOL
   2  -174.52701425683    -499.45474569     185.94898226    0.276D-03 0.995D-14
                            Exc = -26.0500617744     Coul =  211.999044037    
                              N = 34.000000735    
                            current damping = 0.650
 
          Norm of current diis error:  1.7314    
          max. resid. norm for Fia-block=  1.231D-01 for orbital      1a         
          max. resid. fock norm         =  1.326D-01 for orbital     18a         

 ITERATION  ENERGY          1e-ENERGY        2e-ENERGY     RMS[dD(SAO)]   TOL
   3  -174.63306536965    -500.36969935     186.75788481    0.153D-03 0.995D-14
                            Exc = -26.2093221597     Coul =  212.967206970    
                              N = 33.999968150    
                            current damping = 0.550
 
          Norm of current diis error: 0.85690    
          max. resid. norm for Fia-block=  5.122D-02 for orbital      1a         
          max. resid. fock norm         =  5.386D-02 for orbital     18a         

 ITERATION  ENERGY          1e-ENERGY        2e-ENERGY     RMS[dD(SAO)]   TOL
   4  -174.66380715923    -501.49286861     187.85031228    0.891D-04 0.995D-14
                            Exc = -26.3535402137     Coul =  214.203852498    
                              N = 33.999947185    
                            current damping = 0.450
 
          Norm of current diis error: 0.30900    
          max. resid. norm for Fia-block=  1.844D-02 for orbital      1a         
          max. resid. fock norm         =  2.109D-02 for orbital   2027a         

 ITERATION  ENERGY          1e-ENERGY        2e-ENERGY     RMS[dD(SAO)]   TOL
   5  -174.66849670163    -501.64542965     187.99818378    0.444D-04 0.995D-14
                            Exc = -26.3868739785     Coul =  214.385057755    
                              N = 33.999941656    
                            current damping = 0.300
 
          Norm of current diis error: 0.12625    
          max. resid. norm for Fia-block=  7.096D-03 for orbital      5a         
          max. resid. fock norm         =  7.983D-03 for orbital     18a         
          mo-orthogonalization: Cholesky decomposition

 ITERATION  ENERGY          1e-ENERGY        2e-ENERGY     RMS[dD(SAO)]   TOL
   6  -174.66913857839    -501.87757690     188.22968916    0.195D-04 0.995D-14
                            Exc = -26.4166014524     Coul =  214.646290608    
                              N = 33.999936318    
                            current damping = 0.150
 
          Norm of current diis error: 0.56605E-01
          max. resid. norm for Fia-block=  2.677D-03 for orbital      9a         
          max. resid. fock norm         =  4.970D-03 for orbital   2852a         

 ITERATION  ENERGY          1e-ENERGY        2e-ENERGY     RMS[dD(SAO)]   TOL
   7  -174.66924236112    -501.85932561     188.21133408    0.582D-05 0.995D-14
                            Exc = -26.4154573069     Coul =  214.626791384    
                              N = 33.999937116    
                            current damping = 0.200
 
          Norm of current diis error: 0.18043E-01
          max. resid. norm for Fia-block=  6.865D-04 for orbital     11a         
          max. resid. fock norm         =  1.130D-03 for orbital   2852a         

 ITERATION  ENERGY          1e-ENERGY        2e-ENERGY     RMS[dD(SAO)]   TOL
   8  -174.66925126913    -501.84852058     188.20052015    0.153D-05 0.995D-14
                            Exc = -26.4153498427     Coul =  214.615869989    
                              N = 33.999936649    
                            current damping = 0.050
 
          Norm of current diis error: 0.60047E-02
          max. resid. norm for Fia-block=  2.301D-04 for orbital     15a         
          max. resid. fock norm         =  2.953D-04 for orbital     15a         

 ITERATION  ENERGY          1e-ENERGY        2e-ENERGY     RMS[dD(SAO)]   TOL
   9  -174.66925220199    -501.86702983     188.21902846    0.634D-06 0.995D-14
                            Exc = -26.4167807519     Coul =  214.635809212    
                              N = 33.999936596    
                            current damping = 0.100
 
          Norm of current diis error: 0.27562E-02
          max. resid. norm for Fia-block=  9.070D-05 for orbital     15a         
          max. resid. fock norm         =  1.246D-04 for orbital   2838a         

 ITERATION  ENERGY          1e-ENERGY        2e-ENERGY     RMS[dD(SAO)]   TOL
  10  -174.66925244078    -501.86137100     188.21336939    0.214D-06 0.995D-14
                            Exc = -26.4163492449     Coul =  214.629718637    
                              N = 33.999936636    
                            current damping = 0.150
 
          Norm of current diis error: 0.45244E-03
          max. resid. norm for Fia-block=  2.780D-05 for orbital     15a         
          max. resid. fock norm         =  5.360D-05 for orbital   2837a         
          mo-orthogonalization: Cholesky decomposition

 DENSITY CONVERGED !


 ITERATION  ENERGY          1e-ENERGY        2e-ENERGY     RMS[dD(SAO)]   TOL
  11  -174.66925244363    -501.86099492     188.21299331    0.548D-07 0.995D-14
                            Exc = -26.4163150331     Coul =  214.629308344    
                              N = 33.999936615    
                            current damping = 0.050
 
          Norm of current diis error: 0.34809E-03
          max. resid. norm for Fia-block=  1.131D-05 for orbital     13a         
          max. resid. fock norm         =  2.155D-05 for orbital   2837a         

 DENSITY CONVERGED !


 ITERATION  ENERGY          1e-ENERGY        2e-ENERGY     RMS[dD(SAO)]   TOL
  12  -174.66925244763    -501.86136776     188.21336615    0.251D-07 0.995D-14
                            Exc = -26.4163483239     Coul =  214.629714473    
                              N = 33.999936622    
                            current damping = 0.100
 
          Norm of current diis error: 0.45581E-04
          max. resid. norm for Fia-block=  2.916D-06 for orbital      9a         
          max. resid. fock norm         =  4.780D-06 for orbital   2852a         

 DENSITY CONVERGED !


 ITERATION  ENERGY          1e-ENERGY        2e-ENERGY     RMS[dD(SAO)]   TOL
  13  -174.66925244763    -501.86129559     188.21329398    0.517D-08 0.995D-14
                            Exc = -26.4163402917     Coul =  214.629634269    
                              N = 33.999936624    
                            current damping = 0.150
 
          Norm of current diis error: 0.45929E-04
          max. resid. norm for Fia-block=  1.524D-06 for orbital     11a         
          max. resid. fock norm         =  2.859D-06 for orbital   2852a         

 ENERGY & DENSITY CONVERGED !


 ITERATION  ENERGY          1e-ENERGY        2e-ENERGY     RMS[dD(SAO)]   TOL
  14  -174.66926869270    -501.86129796     188.21328010    0.276D-08 0.995D-14
                            Exc = -26.4163578453     Coul =  214.629637942    
                              N = 33.999944404    
                            current damping = 0.200
 
          Norm of current diis error: 0.69401E-05
          max. resid. norm for Fia-block=  2.992D-07 for orbital     14a         
          max. resid. fock norm         =  3.657D-07 for orbital     13a         

 End of SCF iterations

   convergence criteria satisfied after   14 iterations


                  ------------------------------------------ 
                 |  total energy      =   -174.66926869270  |
                  ------------------------------------------ 
                 :  kinetic energy    =    173.44888667572  :
                 :  potential energy  =   -348.11815536842  :
                 :  virial theorem    =      1.99301318414  :
                 :  wavefunction norm =      1.00000000000  :
                  .......................................... 


 <geterg> : there is no data group $energy 


 <skperg> : $end is missing 


 orbitals $scfmo  will be written to file mos

    irrep                 13a         14a         15a         16a         17a   
 eigenvalues H         -0.54505    -0.52211    -0.49165    -0.46885    -0.45955
            eV         -14.8317    -14.2074    -13.3786    -12.7582    -12.5050
 occupation              2.0000      2.0000      2.0000      2.0000      2.0000 

    irrep                 18a         19a         20a         21a         22a   
 eigenvalues H         -0.21826    -0.16261    -0.15724    -0.15014    -0.12203
            eV          -5.9392     -4.4250     -4.2787     -4.0857     -3.3206
 
 
 ! grave: sending quit signal to master process
 
 
 
 
 ==============================================================================
                           electrostatic moments
 ==============================================================================

 reference point for electrostatic moments:    0.00000   0.00000   0.00000

 
              nuc           elec       ->  total
 ------------------------------------------------------------------------------
                          charge      
 ------------------------------------------------------------------------------
          35.000000     -34.000000       1.000000
 
 ------------------------------------------------------------------------------
                       dipole moment  
 ------------------------------------------------------------------------------
   x      -8.120437       7.168626      -0.951810
   y      88.280257     -83.407534       4.872723
   z       0.000000      -0.000000      -0.000000
 
   | dipole moment | =     4.9648 a.u. =    12.6193 debye 
 
 ------------------------------------------------------------------------------
                     quadrupole moment
 ------------------------------------------------------------------------------
  xx      60.092240     -75.675349     -15.583110
  yy     507.897539    -495.250176      12.647362
  zz      21.697767     -38.765099     -17.067333
  xy     -82.216712      75.977396      -6.239316
  xz       0.000000       0.000000       0.000000
  yz       0.000000      -0.000000      -0.000000
 
     1/3  trace=      -6.667693
     anisotropy=      30.949152
 
 ==============================================================================
 

    ridft profiling
  --------------------------------------------------------------------
             module   cpu total (s)       %  wall total (s)       %

               RIDFT          3192.1  100.00          3197.3  100.00
         Ridft_b_scf           151.4    4.74           151.3    4.73
        b_scf_prelim             0.0    0.00             0.0    0.00
        b_scf_molinp             0.0    0.00             0.0    0.00
         b_scf_init0             0.0    0.00             0.0    0.00
        b_scf_auxbas             0.0    0.00             0.0    0.00
      b_scf_symmetry             0.0    0.00             0.0    0.00
         b_scf_cosmo             0.0    0.00             0.0    0.00
        b_scf_params             4.0    0.12             4.0    0.12
          b_scf_ri-j            87.7    2.75            87.6    2.74
    b_scf_ri-j_auxpq            87.6    2.75            87.6    2.74
     ri-j_auxpq_chol            11.3    0.35            11.3    0.35
         b_scf_1elec             1.8    0.06             1.8    0.06
       b_scf_moinput            57.8    1.81            57.8    1.81
     moinput_orthmos            57.7    1.81            57.7    1.80
    b_scf_dft-dstmax             0.0    0.00             0.0    0.00
           Ridft_scf          3039.8   95.23          3045.0   95.24
          Scf_b_loop             0.0    0.00             0.0    0.00
                noga             0.0    0.00             0.0    0.00
            Scf_loop          3033.7   95.04          3038.4   95.03
     scf_loop_mkdmat             6.1    0.19             6.3    0.20
       scf_loop_ri-j           632.5   19.81           632.0   19.77
      parlp1.bc.dens             1.3    0.04             1.3    0.04
        parlp1.gs.gp            18.3    0.57            18.3    0.57
        parlp2.bc.gq             0.0    0.00             0.0    0.00
        scf_loop_dft          1874.1   58.71          1872.8   58.57
      pardft.bc.dens             0.0    0.00             0.0    0.00
        dft_grid_con            79.9    2.50            79.9    2.50
           dft_xcrhf          1775.9   55.63          1774.6   55.50
          dft_getval           104.5    3.27           104.4    3.27
          funct2 dst             1.7    0.05             1.7    0.05
      funct2 f2loop1            15.6    0.49            15.7    0.49
      funct2 f2loop2            53.7    1.68            53.5    1.67
          funct2 s+c            32.1    1.01            32.1    1.00
        funct2 cmf_2            29.7    0.93            29.7    0.93
          dft_mkdens           856.3   26.83           855.7   26.76
         dft_gga-fun             1.0    0.03             0.9    0.03
          dft_mkfock           812.9   25.46           812.4   25.41
     pardft.red.fock           194.8    6.10           194.6    6.09
     scf_loop_energy             0.1    0.00             0.1    0.00
     scf_loop_mkfock             0.2    0.01             0.2    0.01
       scf_loop_diis           271.9    8.52           271.7    8.50
       scf_loop_diag           141.0    4.42           140.9    4.41
         diag_tritrn            48.3    1.51            48.3    1.51
          diag_rdiag            92.2    2.89            92.1    2.88
     scf_loop_modump            70.4    2.21            77.1    2.41
      scf_loop_ortho            35.0    1.10            35.0    1.09
          Scf_a_loop             6.1    0.19             6.6    0.21
         Ridft_a_scf             1.0    0.03             1.0    0.03
         a_scf_fanal             0.9    0.03             0.9    0.03
 


    ------------------------------------------------------------------------
         total  cpu-time : 53 minutes and 19 seconds
         total wall-time : 53 minutes and 24 seconds
    ------------------------------------------------------------------------


   ****  ridft : all done  ****


    2016-01-31 10:51:41.511 

