
 eiger (gplogin1.local) : TURBOMOLE V7.2 ( 21285 ) 30 Jun 2017 at 11:51:10
 Copyright (C) 2017 TURBOMOLE GmbH, Karlsruhe


    2017-11-01 16:28:19.236 

                                                                                
  
 HOMO-LUMO Separation
   HOMO:    60.    60 a     -0.18254894 H =     -4.96741 eV
   LUMO:    61.    61 a     -0.08686236 H =     -2.36365 eV
   Gap :                    +0.09568658 H =     +2.60377 eV
 
Number of MOs=    708, Electrons=    120.00, Symmetry: c1   
 
   Nr.   Orbital    Occupation       Energy
   77.    77 a                     +0.118273 H =        +3.218 eV
   76.    76 a                     +0.099237 H =        +2.700 eV
   75.    75 a                     +0.093683 H =        +2.549 eV
   74.    74 a                     +0.080376 H =        +2.187 eV
   73.    73 a                     +0.076903 H =        +2.093 eV
   72.    72 a                     +0.072472 H =        +1.972 eV
   71.    71 a                     +0.057672 H =        +1.569 eV
   70.    70 a                     +0.057063 H =        +1.553 eV
   69.    69 a                     +0.037542 H =        +1.022 eV
   68.    68 a                     +0.036080 H =        +0.982 eV
   67.    67 a                     +0.032487 H =        +0.884 eV
   66.    66 a                     +0.024982 H =        +0.680 eV
   65.    65 a                     -0.000629 H =        -0.017 eV
   64.    64 a                     -0.022595 H =        -0.615 eV
   63.    63 a                     -0.036854 H =        -1.003 eV
   62.    62 a                     -0.064766 H =        -1.762 eV
   61.    61 a                     -0.086862 H =        -2.364 eV
   60.    60 a        2.000        -0.182549 H =        -4.967 eV
   59.    59 a        2.000        -0.204249 H =        -5.558 eV
   58.    58 a        2.000        -0.229197 H =        -6.237 eV
   57.    57 a        2.000        -0.246029 H =        -6.695 eV
   56.    56 a        2.000        -0.265256 H =        -7.218 eV
   55.    55 a        2.000        -0.281800 H =        -7.668 eV
   54.    54 a        2.000        -0.285999 H =        -7.782 eV
   53.    53 a        2.000        -0.293586 H =        -7.989 eV
   52.    52 a        2.000        -0.305779 H =        -8.321 eV
   51.    51 a        2.000        -0.310357 H =        -8.445 eV
   50.    50 a        2.000        -0.317883 H =        -8.650 eV
   49.    49 a        2.000        -0.337709 H =        -9.190 eV
   48.    48 a        2.000        -0.346654 H =        -9.433 eV
   47.    47 a        2.000        -0.348719 H =        -9.489 eV
   46.    46 a        2.000        -0.363231 H =        -9.884 eV
   45.    45 a        2.000        -0.370116 H =       -10.071 eV


    ------------------------------------------------------------------------
         total  cpu-time :   0.38 seconds
         total wall-time :   0.53 seconds
    ------------------------------------------------------------------------

   ****  eiger : all done  ****


    2017-11-01 16:28:19.750 

