
   OpenMP run-time library returned nthreads = 24

 ricc2 (c-19-294.gp.local) : TURBOMOLE V7.2 ( 21471 ) 11 Oct 2017 at 17:04:51
 Copyright (C) 2017 TURBOMOLE GmbH, Karlsruhe


    2018-04-04 22:41:29.672 



                              R I C C 2 - PROGRAM

                          the quantum chemistry groups
                             at the universities in
                           Karlsruhe, Bochum & Mainz
                                   Germany



   *-----------------------------------------------------------------------*
   |                     program will use 24 thread(s)                     |
   *-----------------------------------------------------------------------*


              +--------------------------------------------------+
              | Atomic coordinate, charge and isotop information |
              +--------------------------------------------------+

                    atomic coordinates            atom    charge  isotop
          4.41838034   -2.61487186  -11.98726950    c      6.000     0
          2.83811320   -1.33048993  -10.28750999    c      6.000     0
          2.83811320    1.33048993  -10.28750999    c      6.000     0
          4.41838034    2.61487186  -11.98726950    c      6.000     0
          5.95528636    1.31742797  -13.68222526    c      6.000     0
          5.95528636   -1.31742797  -13.68222526    c      6.000     0
          1.33578336    2.86796025   -8.48215258    c      6.000     0
          2.60772072    4.56772203   -6.92173951    c      6.000     0
          1.37044715    6.32435236   -5.37247426    c      6.000     0
         -1.37044715    6.32435236   -5.37247426    c      6.000     0
         -2.60772072    4.56772203   -6.92173951    c      6.000     0
         -1.33578336    2.86796025   -8.48215258    c      6.000     0
          2.78885574    8.05370114   -3.73099407    c      6.000     0
          1.35097844    9.91334749   -2.60488531    c      6.000     0
         -1.35097844    9.91334749   -2.60488531    c      6.000     0
         -2.78885574    8.05370114   -3.73099407    c      6.000     0
         -2.17055560   11.27878858   -0.45508808    c      6.000     0
          0.00000000   12.11515003    0.87570238    c      6.000     0
          2.17055560   11.27878858   -0.45508808    c      6.000     0
          0.00000000   12.57411288    3.45500941    c      6.000     0
         -2.47682019   12.52075969    4.60783236    c      6.000     0
         -4.60635120   11.71121823    3.30382585    c      6.000     0
         -4.48416466   10.86319100    0.71008064    c      6.000     0
         -6.14647753    9.20494679   -0.66878481    c      6.000     0
         -5.33334093    7.86122768   -2.77909455    c      6.000     0
          2.47682019   12.52075969    4.60783236    c      6.000     0
          4.60635120   11.71121823    3.30382585    c      6.000     0
          4.48416466   10.86319100    0.71008064    c      6.000     0
          6.14647753    9.20494679   -0.66878481    c      6.000     0
          5.33334093    7.86122768   -2.77909455    c      6.000     0
         -2.83811320    1.33048993  -10.28750999    c      6.000     0
         -2.83811320   -1.33048993  -10.28750999    c      6.000     0
         -4.41838034   -2.61487186  -11.98726950    c      6.000     0
         -5.95528636   -1.31742797  -13.68222526    c      6.000     0
         -5.95528636    1.31742797  -13.68222526    c      6.000     0
         -4.41838034    2.61487186  -11.98726950    c      6.000     0
          1.33578336   -2.86796025   -8.48215258    c      6.000     0
          2.60772072   -4.56772203   -6.92173951    c      6.000     0
          1.37044715   -6.32435236   -5.37247426    c      6.000     0
         -1.37044715   -6.32435236   -5.37247426    c      6.000     0
         -2.60772072   -4.56772203   -6.92173951    c      6.000     0
         -1.33578336   -2.86796025   -8.48215258    c      6.000     0
         -2.78885574   -8.05370114   -3.73099407    c      6.000     0
         -1.35097844   -9.91334749   -2.60488531    c      6.000     0
          1.35097844   -9.91334749   -2.60488531    c      6.000     0
          2.78885574   -8.05370114   -3.73099407    c      6.000     0
          2.17055560  -11.27878858   -0.45508808    c      6.000     0
          0.00000000  -12.11515003    0.87570238    c      6.000     0
         -2.17055560  -11.27878858   -0.45508808    c      6.000     0
         -5.33334093   -7.86122768   -2.77909455    c      6.000     0
         -6.14647753   -9.20494679   -0.66878481    c      6.000     0
         -4.48416466  -10.86319100    0.71008064    c      6.000     0
         -4.60635120  -11.71121823    3.30382585    c      6.000     0
         -2.47682019  -12.52075969    4.60783236    c      6.000     0
          0.00000000  -12.57411288    3.45500941    c      6.000     0
          5.33334093   -7.86122768   -2.77909455    c      6.000     0
          6.14647753   -9.20494679   -0.66878481    c      6.000     0
          4.48416466  -10.86319100    0.71008064    c      6.000     0
          4.60635120  -11.71121823    3.30382585    c      6.000     0
          2.47682019  -12.52075969    4.60783236    c      6.000     0
         -8.02878913    8.82002182    0.05890052    h      1.000     0
         -6.62391717    6.48557212   -3.59048444    h      1.000     0
          6.62391717    6.48557212   -3.59048444    h      1.000     0
          8.02878913    8.82002182    0.05890052    h      1.000     0
          6.37176455   11.53633833    4.34024034    h      1.000     0
          2.66682091   12.94551392    6.60912408    h      1.000     0
         -2.66682091   12.94551392    6.60912408    h      1.000     0
         -6.37176455   11.53633833    4.34024034    h      1.000     0
         -6.37176455  -11.53633833    4.34024034    h      1.000     0
         -2.66682091  -12.94551392    6.60912408    h      1.000     0
          2.66682091  -12.94551392    6.60912408    h      1.000     0
          6.37176455  -11.53633833    4.34024034    h      1.000     0
          8.02878913   -8.82002182    0.05890052    h      1.000     0
          6.62391717   -6.48557212   -3.59048444    h      1.000     0
         -6.62391717   -6.48557212   -3.59048444    h      1.000     0
         -8.02878913   -8.82002182    0.05890052    h      1.000     0
          4.66077634    4.56215217   -6.95941216    h      1.000     0
         -4.66077634    4.56215217   -6.95941216    h      1.000     0
          4.66077634   -4.56215217   -6.95941216    h      1.000     0
         -4.66077634   -4.56215217   -6.95941216    h      1.000     0
         -4.40961230    4.66821297  -11.97085081    h      1.000     0
         -7.14193551    2.35843122  -14.99417671    h      1.000     0
         -7.14193551   -2.35843122  -14.99417671    h      1.000     0
         -4.40961230   -4.66821297  -11.97085081    h      1.000     0
          4.40961230    4.66821297  -11.97085081    h      1.000     0
          7.14193551    2.35843122  -14.99417671    h      1.000     0
          7.14193551   -2.35843122  -14.99417671    h      1.000     0
          4.40961230   -4.66821297  -11.97085081    h      1.000     0
         -6.58065103    1.31967945    5.51158394    c      0.000     0
         -5.73285989    2.69341234    3.28915692    c      0.000     0
         -4.35711531    4.91007724    4.14081518    c      0.000     0
         -4.35826430    4.91404006    6.88593044    c      0.000     0
         -2.21895782    5.71588651    2.82541127    c      0.000     0
         -4.91664222    1.37363891    1.15165670    c      0.000     0
         -5.73074287    2.69238922    7.73443689    c      0.000     0
         -6.58065103   -1.31967945    5.51158394    c      0.000     0
         -4.91459209    1.37292404    9.86959608    c      0.000     0
         -2.22254866    5.73043140    8.20673398    c      0.000     0
          0.00000000    6.56356737    4.19735611    c      0.000     0
         -1.37253789    4.34822475    0.60378548    c      0.000     0
          0.00000000    6.57360792    6.83403228    c      0.000     0
         -1.37363572    4.35656945   10.42728768    c      0.000     0
         -2.69308449    2.22122291   11.24216217    c      0.000     0
         -4.91459209   -1.37292404    9.86959608    c      0.000     0
         -5.73074287   -2.69238922    7.73443689    c      0.000     0
         -5.73285989   -2.69341234    3.28915692    c      0.000     0
         -4.91664222   -1.37363891    1.15165670    c      0.000     0
         -2.69212319    2.21833898   -0.21913358    c      0.000     0
          2.21895782    5.71588651    2.82541127    c      0.000     0
          1.37253789    4.34822475    0.60378548    c      0.000     0
         -2.69212319   -2.21833898   -0.21913358    c      0.000     0
         -1.32071373    0.00000000   -1.07686002    c      0.000     0
         -4.35826430   -4.91404006    6.88593044    c      0.000     0
         -4.35711531   -4.91007724    4.14081518    c      0.000     0
         -2.69308449   -2.22122291   11.24216217    c      0.000     0
         -1.31953892    0.00000000   12.09019010    c      0.000     0
          1.37363572    4.35656945   10.42728768    c      0.000     0
          2.22254866    5.73043140    8.20673398    c      0.000     0
          4.35826430    4.91404006    6.88593044    c      0.000     0
          4.35711531    4.91007724    4.14081518    c      0.000     0
          2.69212319    2.21833898   -0.21913358    c      0.000     0
          1.32071373    0.00000000   -1.07686002    c      0.000     0
         -2.21895782   -5.71588651    2.82541127    c      0.000     0
         -1.37253789   -4.34822475    0.60378548    c      0.000     0
         -1.37363572   -4.35656945   10.42728768    c      0.000     0
         -2.22254866   -5.73043140    8.20673398    c      0.000     0
          1.31953892    0.00000000   12.09019010    c      0.000     0
          2.69308449    2.22122291   11.24216217    c      0.000     0
          5.73285989    2.69341234    3.28915692    c      0.000     0
          4.91664222    1.37363891    1.15165670    c      0.000     0
          2.69212319   -2.21833898   -0.21913358    c      0.000     0
          1.37253789   -4.34822475    0.60378548    c      0.000     0
          0.00000000   -6.56356737    4.19735611    c      0.000     0
          0.00000000   -6.57360792    6.83403228    c      0.000     0
          1.37363572   -4.35656945   10.42728768    c      0.000     0
          2.69308449   -2.22122291   11.24216217    c      0.000     0
          4.91459209    1.37292404    9.86959608    c      0.000     0
          5.73074287    2.69238922    7.73443689    c      0.000     0
          4.91459209   -1.37292404    9.86959608    c      0.000     0
          6.58065103    1.31967945    5.51158394    c      0.000     0
          4.91664222   -1.37363891    1.15165670    c      0.000     0
          2.21895782   -5.71588651    2.82541127    c      0.000     0
          2.22254866   -5.73043140    8.20673398    c      0.000     0
          4.35826430   -4.91404006    6.88593044    c      0.000     0
          5.73074287   -2.69238922    7.73443689    c      0.000     0
          6.58065103   -1.31967945    5.51158394    c      0.000     0
          5.73285989   -2.69341234    3.28915692    c      0.000     0
          4.35711531   -4.91007724    4.14081518    c      0.000     0
 
       center of nuclear mass  :    0.00000000   -0.00000000    0.79386296
       center of nuclear charge:    0.00000000    0.00000000   -3.74863297

              +--------------------------------------------------+
              |               basis set information              |
              +--------------------------------------------------+

              we will work with the 1s 3p 5d 7f 9g ... basis set
              ...i.e. with spherical basis functions...

   type   atoms  prim   cont   basis
   ---------------------------------------------------------------------------
    c      120     77     55   cc-pVQZ   [5s4p3d2f1g|21s6p3d2f1g]
    h       28     32     30   cc-pVQZ   [4s3p2d1f|6s3p2d1f]
   ---------------------------------------------------------------------------
   total:  148  10136   7440
   ---------------------------------------------------------------------------

   total number of primitive shells          :   45
   total number of contracted shells         : 2080
   total number of cartesian basis functions : 9380
   total number of SCF-basis functions       : 7440


 symmetry group of the molecule :   c2v

 the group has the following generators :
   c2(z)
   mirror plane sigma(xz)

    4 symmetry operations found

 there are 4 real representations :   a1   a2   b1   b2  


   =========================================================================


     restricted closed shell calculation for the wavefunction models:
               MP2        - Second Order Moeller Plesset PT


     global parameters for ricc2 program:

        hard restart (reuse of interm.) :  disabled
        soft restart (reuse of vectors) :  disabled
        threshold for vector function   :    0.100000E-05
        convergence threshold energy    :    0.100000E-06
        linear dependence threshold     :    0.100000E-13
        global print level              :      1
        maximum number of iterations    :   300
        maximum number DIIS vectors     :    10
        max. dim. of reduced space      :   100
        core memory limit (MB)          : *****


     MP2 energy only: Energy will be calculated directly from T2 amplitudes!

     Scratch Directory : 


   =========================================================================

    der. integral neglect threshold  :  0.10E-07
    integral neglect threshold       :  0.36E-12
    integral storage threshold THIZE :  0.10E-04
    integral storage threshold THIME :         5


                  +------------------------------------------+
                  |     Auxiliary basis set information      |
                  +------------------------------------------+

              assign orbital basis set names as defaults
              read basis sets from /sopt/TURBOMOLE/7.2.1-official/cbasen/
              (basis sets have been saved in file auxbasis)

              we will work with the 1s 3p 5d 7f 9g ... basis set
              ...i.e. with spherical basis functions...

   type   atoms  prim   cont   basis
   ---------------------------------------------------------------------------
    c      120    132    132   cc-pVQZ   [8s7p6d5f3g1h|8s7p6d5f3g1h]
    h       28     55     55   cc-pVQZ   [5s4p3d2f1g|5s4p3d2f1g]
   ---------------------------------------------------------------------------
   total:  148  17380  17380
   ---------------------------------------------------------------------------

   total number of primitive shells          :   45
   total number of contracted shells         : 4020
   total number of cartesian basis functions :23680
   total number of SCF-basis functions       :17380


 maximum number of shells which are related by symmetry :  4


 The symmetry information takes   1 MB

*---------------------------------------------------------------------*
|      simplified algorithm for abelian symmetry will be applied      |
*---------------------------------------------------------------------*
  MOs are in ASCII format !


 reading orbital data $scfmo  from file mos
 orbital characterization : scfconv=7



              +--------------------------------------------+
              | list of orbitals that will be kept frozen: |
              +--------------------------------------------+
              |   irrep   index      energy     occ/vir    |
              +--------------------------------------------+
              |   a1        1      -11.2608     occupied   |
              |   a1        2      -11.2557     occupied   |
              |   a1        3      -11.2546     occupied   |
              |   a1        4      -11.2531     occupied   |
              |   a1        5      -11.2526     occupied   |
              |   a1        6      -11.2520     occupied   |
              |   a1        7      -11.2519     occupied   |
              |   a1        8      -11.2510     occupied   |
              |   a1        9      -11.2508     occupied   |
              |   a1       10      -11.2504     occupied   |
              |   a1       11      -11.2405     occupied   |
              |   a1       12      -11.2388     occupied   |
              |   a1       13      -11.2373     occupied   |
              |   a1       14      -11.2331     occupied   |
              |   a1       15      -11.2322     occupied   |
              |   a1       16      -11.2301     occupied   |
              |   a2        1      -11.2599     occupied   |
              |   a2        2      -11.2557     occupied   |
              |   a2        3      -11.2531     occupied   |
              |   a2        4      -11.2526     occupied   |
              |   a2        5      -11.2519     occupied   |
              |   a2        6      -11.2511     occupied   |
              |   a2        7      -11.2509     occupied   |
              |   a2        8      -11.2508     occupied   |
              |   a2        9      -11.2492     occupied   |
              |   a2       10      -11.2405     occupied   |
              |   a2       11      -11.2381     occupied   |
              |   a2       12      -11.2368     occupied   |
              |   a2       13      -11.2322     occupied   |
              |   a2       14      -11.2303     occupied   |
              |   b1        1      -11.2599     occupied   |
              |   b1        2      -11.2557     occupied   |
              |   b1        3      -11.2531     occupied   |
              |   b1        4      -11.2526     occupied   |
              |   b1        5      -11.2519     occupied   |
              |   b1        6      -11.2511     occupied   |
              |   b1        7      -11.2510     occupied   |
              |   b1        8      -11.2508     occupied   |
              |   b1        9      -11.2502     occupied   |
              |   b1       10      -11.2405     occupied   |
              |   b1       11      -11.2388     occupied   |
              |   b1       12      -11.2373     occupied   |
              |   b1       13      -11.2322     occupied   |
              |   b1       14      -11.2303     occupied   |
              |   b2        1      -11.2608     occupied   |
              |   b2        2      -11.2557     occupied   |
              |   b2        3      -11.2546     occupied   |
              |   b2        4      -11.2531     occupied   |
              |   b2        5      -11.2526     occupied   |
              |   b2        6      -11.2519     occupied   |
              |   b2        7      -11.2519     occupied   |
              |   b2        8      -11.2510     occupied   |
              |   b2        9      -11.2508     occupied   |
              |   b2       10      -11.2493     occupied   |
              |   b2       11      -11.2405     occupied   |
              |   b2       12      -11.2381     occupied   |
              |   b2       13      -11.2368     occupied   |
              |   b2       14      -11.2331     occupied   |
              |   b2       15      -11.2322     occupied   |
              |   b2       16      -11.2301     occupied   |
              +--------------------------------------------+



   Molecular Orbital Statistic:
   ============================


   ------------------------------------
    irred. repres.:   a1   a2   b1   b2
   ------------------------------------
   frozen occupied:   16   14   14   16
   active occupied:   38   29   32   35
   active virtual : 1851 1772 1799 1824
   frozen virtual :    0    0    0    0
   ------------------------------------
 

   -----------------------------
   orbitals in total:
   -----------------------------
    frozen occupied :     60
    active occupied :    134
    active virtual  :   7246
    frozen virtual  :      0
    all together    :   7440
   -----------------------------


     time in riccmos       cpu:  0 min 47 s  wall:  1 min 18 s  ratio:  0.6

     total memory allocated for calculation of (Q|P)**(-1/2) : 865 MiB


     calculation of (P|Q) ...
     time in lp2sym        cpu: 21.54 sec    wall:  0.96 sec    ratio: 22.3


     calculation of the Cholesky decomposition of (P|Q)**(-1) ...
     time in invmetri      cpu:  1 min  1 s  wall:  0 min  5 s  ratio: 12.6

   threshold for RMS(d[D]) in SCF was     :  0.10E-06
   integral neglect threshold             :  0.36E-12
   derivative integral neglect threshold  :  0.10E-07


   =========================================================================

     Energy of reference wave function is -2289.2674251019998
     Maximum orbital residual is           0.1674047846031E-04


     Number of symmetry-nonredundant auxiliary basis functions:     4741

     Block lengths for integral files:
        frozen occupied (BOI):        3 MiB
        active occupied (BJI):        5 MiB
        active virtual  (BAI):      263 MiB
        frozen virtual  (BGI):        0 MiB
               general  (BTI):      270 MiB

   =========================================================================




   **************************************************************************
   *                                                                        *
   *          OPTIMIZATION OF THE GROUND STATE CLUSTER AMPLITUDES           *
   *                                                                        *
   **************************************************************************


   Iter.   MP2 energy       Norm(Omega)    Norm(t1)  Norm(t2)     cpu    wall
   ...........................................................................
    1  -2299.1680757280     ------          0.00000   1.09730  691.73   34.14
   ...........................................................................


     time in total         cpu: 11 h 31 min  wall:  0 h 34 min  ratio: 20.3


     **********************************************************************
     *                                                                    *
     *   RHF  energy                             :  -2289.2674251020      *
     *   MP2 correlation energy (doubles)        :     -9.9006506260      *
     *                                                                    *
     *   Final MP2 energy                        :  -2299.1680757280      *
     *                                                                    *
     *    E(S)   =     -5.9924743074      E(T)   =     -3.9081763187      *
     *    E(OS)  =     -7.2951997469      E(SS)  =     -2.6054508791      *
     *                                                                    *
     *   SCS-MP2 energy                          :  -2298.8901484247      *
     *   (computed with  C(OS) =   1.2000  and  C(SS) =   0.3333)         *
     *                                                                    *
     *   SOS-MP2 energy                          :  -2298.7511847730      *
     *   (computed with  C(OS) =   1.3000)                                *
     *                                                                    *
     *   Norm of MP1 T2 amplitudes               :      1.0972989403      *
     *                                                                    *
     **********************************************************************



    ------------------------------------------------------------------------
         total  cpu-time : 13 hours 11 minutes and 38 seconds
         total wall-time : 44 minutes and 13 seconds
    ------------------------------------------------------------------------

   ****  ricc2 : all done  ****


    2018-04-04 23:25:42.836 

