STARTING ridft ON 16 PROCESSORS!
RUNNING PROGRAM /sopt/TURBOMOLE/7.3-official/bin/em64t-unknown-linux-gnu_smp/ridft_mpi.
           SMPCPUS    set: Shared-memory Parallelization with  16 CPUs.

           SMP Parallelization Reference:
           C. van Wullen, J. Comput. Chem. 32 (2011) 1195--1201
 operating system is UNIX !

 ridft (c-3-41) : TURBOMOLE V7.3 ( 22118 ) 1 Jul 2018 at 20:38:15
 Copyright (C) 2018 TURBOMOLE GmbH, Karlsruhe


    2019-03-12 12:06:16.923 



                                  r i d f t

                        DFT program with RI approximation 
                                for coulomb part 




                                                 
                                 References:     
                                                 
          TURBOMOLE:                             
              R. Ahlrichs, M. Baer, M. Haeser, H. Horn, and
              C. Koelmel
              Electronic structure calculations on workstation
              computers: the program system TURBOMOLE
              Chem. Phys. Lett. 162: 165 (1989)
          Density Functional:                              
              O. Treutler and R. Ahlrichs                      
              Efficient Molecular Numerical Integration Schemes
              J. Chem. Phys. 102: 346 (1995)                   
          Parallel Version:                                
              Performance of parallel TURBOMOLE for Density    
              Functional Calculations                          
              M. v. Arnim and R. Ahlrichs                      
              J. Comp. Chem. 19: 1746 (1998)                   
          RI-J Method:                                     
              Auxiliary Basis Sets to approximate Coulomb      
              Potentials                                       
              Chem. Phys. Lett. 240: 283 (1995)                
              K. Eichkorn, O. Treutler, H. Oehm, M. Haeser     
              and R. Ahlrichs                                  
              Chem. Phys. Lett. 242: 652 (1995)                
                                                           
              Auxiliary Basis Sets for Main Row Atoms and their
              Use to approximate Coulomb Potentials            
              K. Eichkorn, F. Weigend, O. Treutler and         
              R. Ahlrichs                                      
              Theo. Chem. Acc. 97: 119 (1997)                   
                                                           
              Accurate Coulomb-fitting basis sets for H to Rn 
              F. Weigend                                        
              Phys. Chem. Chem. Phys. 8: 1057 (2006)            
                                                           
          Multipole accelerated RI-J (MARI-J):             
              Fast evaluation of the Coulomb potential for     
              electron densities using multipole accelerated   
              resolution of identity approximation             
              M. Sierka, A. Hogekamp and R. Ahlrichs           
              J. Chem. Phys. 118: 9136 (2003)                  
          RI-JK Method:                                     
              A fully direct RI-HF algorithm: Implementation,
              optimised auxiliary basis sets, demonstration of
              accuracy and efficiency                         
              F. Weigend                                      
              Phys. Chem. Chem. Phys. 4: 4285 (2002)           
          Two-component HF and DFT with spin-orbit coupling:  
              Self-consistent treatment of spin-orbit         
              interactions with efficient Hartree-Fock and    
              density functional methods                      
              M. K. Armbruster, F. Weigend, C. van Wüllen and 
              W. Klopper                                      
              Phys. Chem. Chem. Phys. 10: 1748 (2008)         
          Two-component difference density and DIIS algorithm 
              Efficient two-component self-consistent field   
              procedures and gradients: implementation in     
              TURBOMOLE and application to Au20-              
              A. Baldes, F. Weigend                           
              Mol. Phys. 111: 2617 (2013)                     
          Relativistic all-electron 2c calculations           
              An efficient implementation of two-component    
              relativistic exact-decoupling methods for large 
              molecules                                       
              D. Peng, N. Middendorf, F. Weigend, M. Reiher   
              J. Chem. Phys. 138: 184105 (2013)               
          Finite nucleus model and SNSO approximation         
              Efficient implementation of one- and two-       
              component analytical energy gradients in exact  
              two-component theory                            
              Y. J. Franzke, N. Middendorf, F. Weigend        
              J. Chem. Phys. 148: 104110 (2018)               
                                         




              +--------------------------------------------------+
              |      general information about current run       |
              +--------------------------------------------------+

 
 PBE functional
 exchange:    LDA + PBE
 correlation: LDA (PW) + PBE
 A DFT calculation using the RI-J approximation will be carried out.
 Allocatable memory for RI due to $ricore (MB):                  8000


              +--------------------------------------------------+
              | Atomic coordinate, charge and isotop information |
              +--------------------------------------------------+

                    atomic coordinates            atom    charge  isotop
         -2.56144987   -1.57989785    1.38823995    n      7.000     0
         -1.94712124   -2.61258855    2.87872494    h      1.000     0
         -2.43310269   -2.74733730   -0.98389535    c      6.000     0
         -1.69909272   -4.92722701   -1.18292459    o      8.000     0
         -3.76052233    2.29962631   -0.18532888    n      7.000     0
         -3.22358042   -1.86542644   -4.93595627    h      1.000     0
         -3.78757176    1.32445757   -2.57833742    c      6.000     0
         -4.30116174    2.63571739   -4.05468202    h      1.000     0
         -3.19944265   -1.11160545   -3.04715924    c      6.000     0
         -3.98356913    4.16726647    0.10739148    h      1.000     0
         -3.06986919    0.92390129    1.92509860    c      6.000     0
         -2.90956559    1.84346168    4.02475582    o      8.000     0
 
       center of nuclear mass  :   -2.90722941   -0.50191366    0.00000250
       center of nuclear charge:   -2.92273142   -0.46500962   -0.05095267

              +--------------------------------------------------+
              |               basis set information              |
              +--------------------------------------------------+

              we will work with the 1s 3p 5d 7f 9g ... basis set
              ...i.e. with spherical basis functions...

   type   atoms  prim   cont   basis
   ---------------------------------------------------------------------------
    n        2     77     57   def2-QZVP   [7s4p3d2f1g|15s8p3d2f1g]
    h        4     33     30   def2-QZVP   [4s3p2d1f|7s3p2d1f]
    c        4     77     57   def2-QZVP   [7s4p3d2f1g|15s8p3d2f1g]
    o        2     77     57   def2-QZVP   [7s4p3d2f1g|15s8p3d2f1g]
   ---------------------------------------------------------------------------
   total:   12    748    576
   ---------------------------------------------------------------------------

   total number of primitive shells          :  100
   total number of contracted shells         :  176
   total number of cartesian basis functions :  716
   total number of SCF-basis functions       :  576


 integral neglect threshold       :  0.47E-11
 integral storage threshold THIZE :  0.10E-04
 integral storage threshold THIME :         5

 RI-J AUXILIARY BASIS SET information:

              we will work with the 1s 3p 5d 7f 9g ... basis set
              ...i.e. with spherical basis functions...

   type   atoms  prim   cont   basis
   ---------------------------------------------------------------------------
    n        2     70     49   def2-QZVP   [6s4p3d1f1g|12s5p4d2f1g]
    h        4     16     11   def2-QZVP   [3s1p1d|5s2p1d]
    c        4     70     49   def2-QZVP   [6s4p3d1f1g|12s5p4d2f1g]
    o        2     70     49   def2-QZVP   [6s4p3d1f1g|12s5p4d2f1g]
   ---------------------------------------------------------------------------
   total:   12    624    436
   ---------------------------------------------------------------------------

   total number of primitive shells          :   80
   total number of contracted shells         :  140
   total number of cartesian basis functions :  536
   total number of SCF-basis functions       :  436


 symmetry group of the molecule :   c1 

 the group has the following generators :
   c1(z)

    1 symmetry operations found

 there are 1 real representations :   a   

 maximum number of shells which are related by symmetry :  1


    mo occupation :
   irrep   mo's   occupied
    a      576       29
 
 number of basis functions   :                    576
 number of occupied orbitals :                     29
 
  
           ------------------
           density functional
           ------------------
 PBE functional
 exchange:    LDA + PBE
 correlation: LDA (PW) + PBE

 iterations will be done with small grid
  
 spherical integration : Lebedev's spherical grid
 spherical gridsize    :                     4
    i.e. gridpoints    :                   434
 value for diffuse not defined
 radial integration    : Chebyshev 2nd kind (scaling 3)
 radial gridsize       :                     6
 integration cells     :                    12
 partition function    : becke
 partition sharpness   :                     3
  

 biggest AO integral is expected to be     6.990327543
  
           ------------------------
               RI-J - INFORMATION
           ------------------------
 Contributions to RI integral batches: 
  neglected integral batches:                  2417
  direct contribution:                            0
  memory contribution:                 13159
 Memory core needed for (P|Q) and Cholesky      2 MByte
 Memory core minimum needed except of (P|Q)     2 MByte
 Total minimum memory core needed (sum)         4 MByte
  
 ****************************************
 Memory allocated for RI-J   920 MByte
 ****************************************
                                            

          ------------------------
          nuclear repulsion energy  :   357.160273677    
          ------------------------

   .------------------------------.
   |            DFT-D4            |
   |          ==========          |
   |  E. Caldeweyher,  S. Grimme  |
   |   University of Bonn, MCTC   |
   |     02/2018, Version 1.0     |
   '------------------------------'
  This code comes without any warranty

 Cite this work as:
   E. Caldeweyher, C. Bannwarth, and S. Grimme,
   J. Chem. Phys., 2017, 147, 034112.
   E. Caldeweyher, S. Ehlert, and S. Grimme,
   J. Chem. Phys., in preparation.

 Contributions:
   P. Shushkov - GBSA(H2O)
   S. Ehlert   - MBD, DFA fit

number of atoms            :    12
number of electrons        :    42
charge                     :  0
spin                       : 0.0
 Found param_gfn2.xtb file !
========================================================================
    G F N  parametrization, version 3
   Geometries Frequencies Non-covalent interactions
 /sopt/TURBOMOLE/7.3-official/parameter/param_gfn2.xtb
========================================================================
 method parameters:
------------------------------------------------------------------------
k(s)        :               1.8500
k(p)        :               2.2300
k(d)        :               2.2300
k(f)        :               2.0000
kEN (H0ij)  :              -2.0000
D3 a1       :               0.5200
D3 a2       :               5.0000
D3 s8       :               2.7000
D3atm       :               5.0000
alphaj      :               2.0000
AESdamp     :               4.0000
AESrad      :               3.0000
expscalexp  :               5.0000
------------------------------------------------------------------------
------------------------------------------------------------------------
 xTB basis
------------------------------------------------------------------------
  Z AO/shell   Hii/eV     exponent
  1     Wed Apr 25 08:07:45 CEST 2018   EN: 2.200 GM2: 0.406  GM3: 0.0800  RAES: 1.40
     1s    -10.707211    1.230000
  6     Wed Apr 25 08:07:45 CEST 2018   EN: 2.550 GM2: 0.538  GM3: 0.1500  RAES: 3.00
     2s    -13.970922    2.096432
     2p    -10.063292    1.800000
  7     Wed Apr 25 08:07:45 CEST 2018   EN: 3.040 GM2: 0.461  GM3:-0.0640  RAES: 1.90
     2s    -16.686243    2.339881
     2p    -12.523956    2.014332
  8     Wed Apr 25 08:07:45 CEST 2018   EN: 3.440 GM2: 0.452  GM3:-0.0517  RAES: 1.80
     2s    -20.229985    2.439742
     2p    -15.503117    2.137023
------------------------------------------------------------------------
 DFT-D4 reference setup
------------------------------------------------------------------------
 N      q(ref)        CN(ref)   cov. CN(ref)  alpha(AIM,ref)
     0.0000000      0.0000000      0.0000000      7.5385089
    -0.1797353      0.9622367      0.8575417      8.1244983
    -0.1525504      2.0397432      1.8555113      7.4399298
    -0.4289141      2.9186070      2.5786982      8.2914891
     0.0000000      0.9992288      0.9808497      5.8062716
 H      q(ref)        CN(ref)   cov. CN(ref)  alpha(AIM,ref)
     0.0000000      0.0000000      0.0000000      5.0540161
     0.0000000      0.8115055      0.8943405      2.7207580
 C      q(ref)        CN(ref)   cov. CN(ref)  alpha(AIM,ref)
     0.0000000      0.0000000      0.0000000     12.3555336
    -0.1299310      0.9367838      0.9179641     12.6203061
    -0.0788263      1.9884028      1.9096951      9.3103249
    -0.0767301      2.9881158      2.8401678      8.8356702
    -0.0945886      3.9165802      3.7567914      6.6924619
    -0.0285648      3.3673832      3.0308559      8.9184424
     0.0506204      0.9979550      0.8555886      7.7402501
 O      q(ref)        CN(ref)   cov. CN(ref)  alpha(AIM,ref)
     0.0000000      0.0000000      0.0000000      5.1967092
    -0.3306800      0.9547795      0.8033980      6.0646315
    -0.5637321      1.9239773      1.6098510      6.6505011
     0.0000000      0.9835639      0.9794547      5.1987934
 no old-style atom pair restraing (fixing) potential
------------------------------------------------------------------------
 SCC calculation
------------------------------------------------------------------------

------------------------------------------------------------------------
 Dispersion Energy Calculation
 * damping parameters for pbe-D4
 s6       :    1.0000
 s8       :    0.9516
 a1       :    0.4044
 a2       :    4.6501
========================================================================
 Edisp  /kcal,au:    -7.6595  -0.01220623
------------------------------------------------------------------------
 E(2)   /kcal,au:    -7.6580  -0.01220386
 Emany  /kcal,au:    -0.0015  -0.00000237
 Eresp  /kcal,au:     0.0000   0.00000000
========================================================================
 nuclear repulsion energy                  =     357.160273677
 empirical dispersive energy correction    =      -0.012206230
 nuclear repulsion + dispersion correction =     357.148067448


         -----------------
         -S,T+V- integrals
         -----------------

 1e-integrals will be neglected if expon. factor < 0.466754E-12
 Difference densities >>NOT<< switched on in parallel ridft!

 DIIS switched on: error vector is FDS-SDF
 Max. Iterations for DIIS is     :   4
 DIIS matrix (see manual) 
    Scaling factor of diagonals  :  1.200
    threshold for scaling factor :  0.000

 scf convergence criterion : increment of total energy < .1000000D-06
                  and increment of one-electron energy < .1000000D-03

  MOs are in ASCII format !


 automatic virtual orbital shift switched on 
      shift if e(lumo)-e(homo) < 0.10000000    


 reading orbital data $scfmo  from file mos
 orbital characterization : expanded
 mo provided and orthogonalized by Cholesky decomposition

 DSCF restart information will be dumped onto file mos


 Starting SCF iterations

          Overall gridpoints after grid construction =         35864

 ITERATION  ENERGY          1e-ENERGY        2e-ENERGY     NORM[dD(SAO)]  TOL
   1  -412.61907884462    -1261.7467670     491.97962066    0.000D+00 0.466D-11
                            Exc = -53.5663777000     Coul =  545.545998358    
                              N = 58.000142567    
                            current damping = 0.700
 
          max. resid. norm for Fia-block=  8.092D-01 for orbital     10a         
          max. resid. fock norm         =  6.633D+01 for orbital    519a         

 ITERATION  ENERGY          1e-ENERGY        2e-ENERGY     NORM[dD(SAO)]  TOL
   2  -414.28826945984    -1268.6257342     497.18939727    0.000D+00 0.466D-11
                            Exc = -53.5513542397     Coul =  550.740751506    
                              N = 58.000107505    
                            current damping = 0.650
 
          Norm of current diis error:  3.3345    
          max. resid. norm for Fia-block=  1.643D-01 for orbital      1a         
          max. resid. fock norm         =  3.516D-01 for orbital    336a         

 ITERATION  ENERGY          1e-ENERGY        2e-ENERGY     NORM[dD(SAO)]  TOL
   3  -414.49475667816    -1271.2095212     499.56669705    0.000D+00 0.466D-11
                            Exc = -53.8162068684     Coul =  553.382903916    
                              N = 58.000093074    
                            current damping = 0.550
 
          Norm of current diis error:  1.5831    
          max. resid. norm for Fia-block=  6.628D-02 for orbital      1a         
          max. resid. fock norm         =  7.917D-02 for orbital    486a         

 ITERATION  ENERGY          1e-ENERGY        2e-ENERGY     NORM[dD(SAO)]  TOL
   4  -414.55434905031    -1271.4488272     499.74641073    0.000D+00 0.466D-11
                            Exc = -53.7152869698     Coul =  553.461697700    
                              N = 58.000082496    
                            current damping = 0.400
 
          Norm of current diis error: 0.74923    
          max. resid. norm for Fia-block=  3.272D-02 for orbital     10a         
          max. resid. fock norm         =  7.497D-02 for orbital    538a         

 ITERATION  ENERGY          1e-ENERGY        2e-ENERGY     NORM[dD(SAO)]  TOL
   5  -414.56389917107    -1271.6929088     499.98094216    0.000D+00 0.466D-11
                            Exc = -53.8159843048     Coul =  553.796926462    
                              N = 58.000080562    
                            current damping = 0.250
 
          Norm of current diis error: 0.48699    
          max. resid. norm for Fia-block=  1.068D-02 for orbital     26a         
          max. resid. fock norm         =  1.291D-02 for orbital    515a         
          mo-orthogonalization: Cholesky decomposition

 ITERATION  ENERGY          1e-ENERGY        2e-ENERGY     NORM[dD(SAO)]  TOL
   6  -414.57025929002    -1272.0772990     500.35897222    0.000D+00 0.466D-11
                            Exc = -53.8095312280     Coul =  554.168503449    
                              N = 58.000077310    
                            current damping = 0.100
 
          Norm of current diis error: 0.12540    
          max. resid. norm for Fia-block=  4.244D-03 for orbital     26a         
          max. resid. fock norm         =  7.933D-03 for orbital    537a         

 ITERATION  ENERGY          1e-ENERGY        2e-ENERGY     NORM[dD(SAO)]  TOL
   7  -414.57025723140    -1271.7723131     500.05398845    0.000D+00 0.466D-11
                            Exc = -53.7825374445     Coul =  553.836525897    
                              N = 58.000076976    
                            current damping = 0.150
 
          Norm of current diis error: 0.12120    
          max. resid. norm for Fia-block=  2.223D-03 for orbital     28a         
          max. resid. fock norm         =  4.437D-03 for orbital    572a         

 ITERATION  ENERGY          1e-ENERGY        2e-ENERGY     NORM[dD(SAO)]  TOL
   8  -414.57061833207    -1271.8378075     500.11912173    0.000D+00 0.466D-11
                            Exc = -53.7924414659     Coul =  553.911563195    
                              N = 58.000077097    
                            current damping = 0.200
 
          Norm of current diis error: 0.33701E-01
          max. resid. norm for Fia-block=  1.397D-03 for orbital     29a         
          max. resid. fock norm         =  2.151D-03 for orbital    573a         

 ITERATION  ENERGY          1e-ENERGY        2e-ENERGY     NORM[dD(SAO)]  TOL
   9  -414.57061324780    -1271.9352522     500.21657150    0.000D+00 0.466D-11
                            Exc = -53.8026551135     Coul =  554.019226610    
                              N = 58.000077016    
                            current damping = 0.250
 
          Norm of current diis error: 0.32482E-01
          max. resid. norm for Fia-block=  7.347D-04 for orbital     29a         
          max. resid. fock norm         =  1.139D-03 for orbital    544a         

 ITERATION  ENERGY          1e-ENERGY        2e-ENERGY     NORM[dD(SAO)]  TOL
  10  -414.57064437335    -1271.9273364     500.20862455    0.000D+00 0.466D-11
                            Exc = -53.7998056184     Coul =  554.008430166    
                              N = 58.000077001    
                            current damping = 0.300
 
          Norm of current diis error: 0.88255E-02
          max. resid. norm for Fia-block=  1.923D-04 for orbital     28a         
          max. resid. fock norm         =  3.121D-04 for orbital     21a         
          mo-orthogonalization: Cholesky decomposition

 ITERATION  ENERGY          1e-ENERGY        2e-ENERGY     NORM[dD(SAO)]  TOL
  11  -414.57064622445    -1271.9097597     500.19104606    0.000D+00 0.466D-11
                            Exc = -53.7988655732     Coul =  553.989911633    
                              N = 58.000077019    
                            current damping = 0.150
 
          Norm of current diis error: 0.20735E-02
          max. resid. norm for Fia-block=  5.177D-05 for orbital     24a         
          max. resid. fock norm         =  8.086D-05 for orbital     21a         

 ENERGY CONVERGED !

          Overall gridpoints after grid construction =        125210

 ITERATION  ENERGY          1e-ENERGY        2e-ENERGY     NORM[dD(SAO)]  TOL
  12  -414.57054199076    -1271.9095718     500.19096233    0.000D+00 0.466D-11
                            Exc = -53.7984780050     Coul =  553.989440333    
                              N = 58.000012464    
                            current damping = 0.050
 
          Norm of current diis error: 0.11004E-02
          max. resid. norm for Fia-block=  1.677D-05 for orbital     28a         
          max. resid. fock norm         =  2.895D-05 for orbital    496a         

 End of SCF iterations

   convergence criteria satisfied after    12 iterations


                  ------------------------------------------ 
                 |  total energy      =   -414.57054199076  |
                  ------------------------------------------ 
                 :  kinetic energy    =    413.06270762816  :
                 :  potential energy  =   -827.63324961892  :
                 :  virial theorem    =      1.99636290038  :
                 :  wavefunction norm =      1.00000000000  :
                  .......................................... 


 <geterg> : there is no data group $energy 


 <skperg> : $end is missing 


 orbitals $scfmo  will be written to file mos

    irrep                 25a         26a         27a         28a         29a   
 eigenvalues H         -0.34178    -0.26327    -0.25846    -0.23482    -0.22842
            eV          -9.3003     -7.1641     -7.0330     -6.3899     -6.2157
 occupation              2.0000      2.0000      2.0000      2.0000      2.0000 

    irrep                 30a         31a         32a         33a         34a   
 eigenvalues H         -0.08764    -0.04010    -0.02495     0.01558     0.02101
            eV          -2.3850     -1.0912     -0.6790      0.4239      0.5718
 
 
 
 
 ==============================================================================
                           electrostatic moments
 ==============================================================================

 reference point for electrostatic moments:    0.00000   0.00000   0.00000

 
              nuc           elec       ->  total
 ------------------------------------------------------------------------------
                          charge      
 ------------------------------------------------------------------------------
          58.000000     -58.000000      -0.000000
 
 ------------------------------------------------------------------------------
                       dipole moment  
 ------------------------------------------------------------------------------
   x    -169.518422     169.021691      -0.496731
   y     -26.970558      28.305462       1.334904
   z      -2.955255       1.996918      -0.958337
 
   | dipole moment | =     1.7167 a.u. =     4.3635 debye 
 
 ------------------------------------------------------------------------------
                     quadrupole moment
 ------------------------------------------------------------------------------
  xx     523.846658    -555.265621     -31.418963
  yy     378.864257    -416.284372     -37.420115
  zz     327.259707    -362.605454     -35.345747
  xy     -10.648463       7.052009      -3.596454
  xz      25.696113     -21.166216       4.529896
  yz     105.819393    -112.483728      -6.664336
 
     1/3  trace=     -34.728275
     anisotropy=      16.170086
 
 ==============================================================================
 


    ------------------------------------------------------------------------
         total  cpu-time :  1 minutes and 34 seconds
         total wall-time :  22.39 seconds
    ------------------------------------------------------------------------

   ****  ridft : all done  ****


    2019-03-12 12:06:39.290 

