           Doing BLAS/Lapack in the master proc. with  8 CPUs.
           SMPCPUS    set: Shared-memory Parallelization with   8 CPUs.

           SMP Parallelization Reference:
           C. van Wullen, J. Comput. Chem. 32 (2011) 1195--1201
 operating system is UNIX !

 ridft (c-12-254.gp.local) : TURBOMOLE V7.2 ( 21454 ) 4 Oct 2017 at 12:48:15
 Copyright (C) 2017 TURBOMOLE GmbH, Karlsruhe


    2018-04-28 20:56:07.147 



                                  r i d f t

                        DFT program with RI approximation 
                                for coulomb part 




                                                 
                                 References:     
                                                 
          TURBOMOLE:                             
              R. Ahlrichs, M. Baer, M. Haeser, H. Horn, and
              C. Koelmel
              Electronic structure calculations on workstation
              computers: the program system TURBOMOLE
              Chem. Phys. Lett. 162: 165 (1989)
          Density Functional:                              
              O. Treutler and R. Ahlrichs                      
              Efficient Molecular Numerical Integration Schemes
              J. Chem. Phys. 102: 346 (1995)                   
          Parallel Version:                                
              Performance of parallel TURBOMOLE for Density    
              Functional Calculations                          
              M. v. Arnim and R. Ahlrichs                      
              J. Comp. Chem. 19: 1746 (1998)                   
          RI-J Method:                                     
              Auxiliary Basis Sets to approximate Coulomb      
              Potentials                                       
              Chem. Phys. Lett. 240: 283 (1995)                
              K. Eichkorn, O. Treutler, H. Oehm, M. Haeser     
              and R. Ahlrichs                                  
              Chem. Phys. Lett. 242: 652 (1995)                
                                                           
              Auxiliary Basis Sets for Main Row Atoms and their
              Use to approximate Coulomb Potentials            
              K. Eichkorn, F. Weigend, O. Treutler and         
              R. Ahlrichs                                      
              Theo. Chem. Acc. 97: 119 (1997)                   
                                                           
              Accurate Coulomb-fitting basis sets for H to Rn 
              F. Weigend                                        
              Phys. Chem. Chem. Phys. 8: 1057 (2006)            
                                                           
          Multipole accelerated RI-J (MARI-J):             
              Fast evaluation of the Coulomb potential for     
              electron densities using multipole accelerated   
              resolution of identity approximation             
              M. Sierka, A. Hogekamp and R. Ahlrichs           
              J. Chem. Phys. 118: 9136 (2003)                  
          RI-JK Method:                                     
              A fully direct RI-HF algorithm: Implementation,
              optimised auxiliary basis sets, demonstration of
              accuracy and efficiency                         
              F. Weigend                                      
              Phys. Chem. Chem. Phys. 4: 4285 (2002)           
          Two-component HF and DFT with spin-orbit coupling:  
              Self-consistent treatment of spin-orbit         
              interactions with efficient Hartree-Fock and    
              density functional methods                      
              M. K. Armbruster, F. Weigend, C. van Wüllen and 
              W. Klopper                                      
              Phys. Chem. Chem. Phys. 10: 1748 (2008)         
          Relativistic all-electron 2c calculations           
              An efficient implementation of two-component    
              relativistic exact-decoupling methods for large 
              molecules                                       
              D. Peng, N. Middendorf, F. Weigend, M. Reiher   
              J. Chem. Phys. 138, 184105 (2013)               
                                         




              +--------------------------------------------------+
              |      general information about current run       |
              +--------------------------------------------------+

 

 DENSITY CONVERGENCE CHECK SWITCHED ON !
 SCF CONVERGENCE IF RMS(delta[D]) <     0.1000000000E-06

 PBE functional
 exchange:    LDA + PBE
 correlation: LDA (PW) + PBE
 A DFT calculation using the RI-J approximation will be carried out.
 Allocatable memory for RI due to $ricore (MB):                  5000


              +--------------------------------------------------+
              | Atomic coordinate, charge and isotop information |
              +--------------------------------------------------+

                    atomic coordinates            atom    charge  isotop
          1.80824149   -1.68534400    2.15797277    c      0.000     0
          2.84321763   -2.41574581    0.53558654    h      0.000     0
          2.68602738   -2.48457022    3.83808188    h      0.000     0
          1.87262303    1.24440034    2.16468855    c      0.000     0
          2.85460982    1.93337212    0.49123031    h      0.000     0
          2.86531280    2.00276602    3.79936436    h      0.000     0
         -0.90603286    2.08308063    2.08602919    c      0.000     0
         -1.16457890    3.90205244    1.15947429    h      0.000     0
         -1.65302325    2.24701938    4.00257146    h      0.000     0
         -2.23385755   -0.09977103    0.74331575    c      0.000     0
         -1.79312741   -0.05070192   -1.27330615    h      0.000     0
         -4.28148546   -0.06342816    0.94727063    h      0.000     0
         -1.00280127   -2.40919208    1.96401050    c      0.000     0
         -1.30464918   -4.15176786    0.91272301    h      0.000     0
         -1.79684494   -2.67474099    3.84889559    h      0.000     0
         -2.13914195   -0.72550093    9.55439157    c      6.000     0
         -2.76867492   -0.27820537    7.64088444    h      1.000     0
         -3.65997162   -1.75180829   10.48600105    h      1.000     0
          0.34321449   -2.22886294    9.46413599    c      6.000     0
          0.43759675   -3.47181649    7.82738027    h      1.000     0
          0.49493610   -3.42195596   11.13538199    h      1.000     0
          2.47731098   -0.22063997    9.46526244    c      6.000     0
          3.65133160   -0.33530638    7.77986556    h      1.000     0
          3.71963487   -0.50387787   11.08174395    h      1.000     0
          1.13527780    2.35254105    9.66910122    c      6.000     0
          0.79538566    3.12447865    7.78693564    h      1.000     0
          2.23204453    3.74036254   10.71973843    h      1.000     0
         -1.40083381    1.72047974   10.89706767    c      6.000     0
         -2.79860482    3.21810994   10.69887074    h      1.000     0
         -1.13619669    1.35833253   12.91255311    h      1.000     0
 
       center of nuclear mass  :   -0.00233685    0.00211440    5.81659250
       center of nuclear charge:    0.08656116    0.17666037    9.80922771

              +--------------------------------------------------+
              |               basis set information              |
              +--------------------------------------------------+

              we will work with the 1s 3p 5d 7f 9g ... basis set
              ...i.e. with spherical basis functions...

   type   atoms  prim   cont   basis
   ---------------------------------------------------------------------------
    c       10     77     55   cc-pVQZ   [5s4p3d2f1g|21s6p3d2f1g]
    h       20     32     30   cc-pVQZ   [4s3p2d1f|6s3p2d1f]
   ---------------------------------------------------------------------------
   total:   30   1410   1150
   ---------------------------------------------------------------------------

   total number of primitive shells          :   45
   total number of contracted shells         :  350
   total number of cartesian basis functions : 1400
   total number of SCF-basis functions       : 1150


 integral neglect threshold       :  0.24E-13
 integral storage threshold THIZE :  0.10E-04
 integral storage threshold THIME :         5

 RI-J AUXILIARY BASIS SET information:

              we will work with the 1s 3p 5d 7f 9g ... basis set
              ...i.e. with spherical basis functions...

   type   atoms  prim   cont   basis
   ---------------------------------------------------------------------------
    c       10     70     49   cc-pVQZ   [6s4p3d1f1g|12s5p4d2f1g]
    h       20     16     11   cc-pVQZ   [3s1p1d|5s2p1d]
   ---------------------------------------------------------------------------
   total:   30   1020    710
   ---------------------------------------------------------------------------

   total number of primitive shells          :   32
   total number of contracted shells         :  250
   total number of cartesian basis functions :  850
   total number of SCF-basis functions       :  710


 symmetry group of the molecule :   c1 

 the group has the following generators :
   c1(z)

    1 symmetry operations found

 there are 1 real representations :   a   

 maximum number of shells which are related by symmetry :  1


    mo occupation :
   irrep   mo's   occupied
    a     1150       20
 
 number of basis functions   :                   1150
 number of occupied orbitals :                     20
 
  
           ------------------
           density functional
           ------------------
 Dummy atoms with grid-point found.
 DFT quadrature threshold dgrenze tightened by factor 1/10.

 PBE functional
 exchange:    LDA + PBE
 correlation: LDA (PW) + PBE
 Dummy atoms with grid-point found.
 DFT quadrature threshold dgrenze tightened by factor 1/10.

 Dummy atoms with grid-point found.
 DFT quadrature threshold dgrenze tightened by factor 1/10.


 iterations will be done with small grid
  
 spherical integration : Lebedev's spherical grid
 spherical gridsize    :                     5
    i.e. gridpoints    :                   590
 value for diffuse not defined
 radial integration    : Chebyshev 2nd kind (scaling 3)
 radial gridsize       :                     8
 integration cells     :                    30
 partition function    : becke
 partition sharpness   :                     3
  
 found dummy atom(s) with basis: included in dft

 biggest AO integral is expected to be     3.537514283
  
           ------------------------
               RI-J - INFORMATION
           ------------------------
 Contributions to RI integral batches: 
  neglected integral batches:                 16015
  direct contribution:                            0
  memory contribution:                 45410
 Memory core needed for (P|Q) and Cholesky      4 MByte
 Memory core minimum needed except of (P|Q)     6 MByte
 Total minimum memory core needed (sum)        10 MByte
  
 ****************************************
 Memory allocated for RI-J  4494 MByte
 ****************************************
                                            

          ------------------------
          nuclear repulsion energy  :   188.378652495    
          ------------------------


         -----------------
         -S,T+V- integrals
         -----------------

 1e-integrals will be neglected if expon. factor < 0.238712E-14
 Difference densities >>NOT<< switched on in parallel ridft!

 DIIS switched on: error vector is FDS-SDF
 Max. Iterations for DIIS is     :   4
 DIIS matrix (see manual) 
    Scaling factor of diagonals  :  1.200
    threshold for scaling factor :  0.000

 scf convergence criterion : increment of total energy < .1000000D-08
                  and increment of one-electron energy < .1000000D-05

  MOs are in ASCII format !


 automatic virtual orbital shift switched on 
      shift if e(lumo)-e(homo) < 0.10000000    


 reading orbital data $scfmo  from file mos
 orbital characterization : expanded
 mo provided and orthogonalized by Cholesky decomposition

 DSCF restart information will be dumped onto file mos


 Starting SCF iterations

          Overall gridpoints after grid construction =        149226

 ITERATION  ENERGY          1e-ENERGY        2e-ENERGY     RMS[dD(SAO)]   TOL
   1  -195.70998460154    -627.52837861     243.43974152    0.000D+00 0.238D-13
                            Exc = -29.6833254675     Coul =  273.123066983    
                              N = 40.000141104    
                            current damping = 0.700
 
          max. resid. norm for Fia-block=  2.429D-01 for orbital      5a         
          max. resid. fock norm         =  1.589D+01 for orbital   1129a         

 ITERATION  ENERGY          1e-ENERGY        2e-ENERGY     RMS[dD(SAO)]   TOL
   2  -196.21800411710    -633.57904862     248.98239200    0.164D-02 0.238D-13
                            Exc = -30.2991655273     Coul =  279.281557530    
                              N = 40.000109238    
                            current damping = 0.650
 
          Norm of current diis error:  2.4474    
          max. resid. norm for Fia-block=  1.025D-01 for orbital      6a         
          max. resid. fock norm         =  1.214D-01 for orbital      6a         

 ITERATION  ENERGY          1e-ENERGY        2e-ENERGY     RMS[dD(SAO)]   TOL
   3  -196.31772501388    -634.48167460     249.78529709    0.821D-03 0.238D-13
                            Exc = -30.4650975150     Coul =  280.250394608    
                              N = 40.000083395    
                            current damping = 0.550
 
          Norm of current diis error:  1.1918    
          max. resid. norm for Fia-block=  4.671D-02 for orbital      6a         
          max. resid. fock norm         =  5.431D-02 for orbital      6a         

 ITERATION  ENERGY          1e-ENERGY        2e-ENERGY     RMS[dD(SAO)]   TOL
   4  -196.34761480284    -635.85708968     251.13082238    0.404D-03 0.238D-13
                            Exc = -30.6087074949     Coul =  281.739529873    
                              N = 40.000066993    
                            current damping = 0.450
 
          Norm of current diis error: 0.42097    
          max. resid. norm for Fia-block=  1.804D-02 for orbital      6a         
          max. resid. fock norm         =  2.075D-02 for orbital      6a         

 ITERATION  ENERGY          1e-ENERGY        2e-ENERGY     RMS[dD(SAO)]   TOL
   5  -196.35191827144    -635.83553767     251.10496690    0.199D-03 0.238D-13
                            Exc = -30.6346715099     Coul =  281.739638410    
                              N = 40.000059392    
                            current damping = 0.500
 
          Norm of current diis error: 0.17947    
          max. resid. norm for Fia-block=  6.235D-03 for orbital     12a         
          max. resid. fock norm         =  6.901D-03 for orbital      6a         
          mo-orthogonalization: Cholesky decomposition

 ITERATION  ENERGY          1e-ENERGY        2e-ENERGY     RMS[dD(SAO)]   TOL
   6  -196.35266474698    -636.16745072     251.43613348    0.592D-04 0.238D-13
                            Exc = -30.6627914138     Coul =  282.098924892    
                              N = 40.000057099    
                            current damping = 0.550
 
          Norm of current diis error: 0.52286E-01
          max. resid. norm for Fia-block=  2.050D-03 for orbital      6a         
          max. resid. fock norm         =  2.849D-03 for orbital    573a         

 ITERATION  ENERGY          1e-ENERGY        2e-ENERGY     RMS[dD(SAO)]   TOL
   7  -196.35273092164    -636.11632398     251.38494056    0.270D-04 0.238D-13
                            Exc = -30.6621168686     Coul =  282.047057434    
                              N = 40.000056365    
                            current damping = 0.600
 
          Norm of current diis error: 0.17747E-01
          max. resid. norm for Fia-block=  6.820D-04 for orbital      6a         
          max. resid. fock norm         =  7.651D-04 for orbital      6a         

 ITERATION  ENERGY          1e-ENERGY        2e-ENERGY     RMS[dD(SAO)]   TOL
   8  -196.35273931605    -636.13374267     251.40235086    0.795D-05 0.238D-13
                            Exc = -30.6641112377     Coul =  282.066462098    
                              N = 40.000056090    
                            current damping = 0.650
 
          Norm of current diis error: 0.61497E-02
          max. resid. norm for Fia-block=  2.613D-04 for orbital      6a         
          max. resid. fock norm         =  2.935D-04 for orbital      6a         

 ITERATION  ENERGY          1e-ENERGY        2e-ENERGY     RMS[dD(SAO)]   TOL
   9  -196.35274035160    -636.13696618     251.40557334    0.308D-05 0.238D-13
                            Exc = -30.6646163443     Coul =  282.070189679    
                              N = 40.000055994    
                            current damping = 0.500
 
          Norm of current diis error: 0.24110E-02
          max. resid. norm for Fia-block=  1.025D-04 for orbital      6a         
          max. resid. fock norm         =  1.155D-04 for orbital      6a         

 ITERATION  ENERGY          1e-ENERGY        2e-ENERGY     RMS[dD(SAO)]   TOL
  10  -196.35274051976    -636.13868890     251.40729588    0.133D-05 0.238D-13
                            Exc = -30.6648537617     Coul =  282.072149646    
                              N = 40.000055955    
                            current damping = 0.350
 
          Norm of current diis error: 0.80163E-03
          max. resid. norm for Fia-block=  3.495D-05 for orbital      6a         
          max. resid. fock norm         =  4.873D-05 for orbital    577a         
          mo-orthogonalization: Cholesky decomposition

 ITERATION  ENERGY          1e-ENERGY        2e-ENERGY     RMS[dD(SAO)]   TOL
  11  -196.35274053681    -636.13824874     251.40685571    0.556D-06 0.238D-13
                            Exc = -30.6648751476     Coul =  282.071730857    
                              N = 40.000055937    
                            current damping = 0.400
 
          Norm of current diis error: 0.41373E-03
          max. resid. norm for Fia-block=  1.246D-05 for orbital     10a         
          max. resid. fock norm         =  1.525D-05 for orbital     12a         

 ITERATION  ENERGY          1e-ENERGY        2e-ENERGY     RMS[dD(SAO)]   TOL
  12  -196.35274054029    -636.13906741     251.40767437    0.113D-06 0.238D-13
                            Exc = -30.6649373163     Coul =  282.072611688    
                              N = 40.000055935    
                            current damping = 0.450
 
          Norm of current diis error: 0.95827E-04
          max. resid. norm for Fia-block=  2.900D-06 for orbital     20a         
          max. resid. fock norm         =  5.194D-06 for orbital    695a         

 DENSITY CONVERGED !


 ITERATION  ENERGY          1e-ENERGY        2e-ENERGY     RMS[dD(SAO)]   TOL
  13  -196.35274054049    -636.13892185     251.40752881    0.464D-07 0.238D-13
                            Exc = -30.6649305481     Coul =  282.072459360    
                              N = 40.000055934    
                            current damping = 0.500
 
          Norm of current diis error: 0.24788E-04
          max. resid. norm for Fia-block=  9.535D-07 for orbital      9a         
          max. resid. fock norm         =  1.459D-06 for orbital      4a         

 DENSITY CONVERGED !


 ITERATION  ENERGY          1e-ENERGY        2e-ENERGY     RMS[dD(SAO)]   TOL
  14  -196.35274054050    -636.13894788     251.40755485    0.112D-07 0.238D-13
                            Exc = -30.6649331871     Coul =  282.072488036    
                              N = 40.000055934    
                            current damping = 0.550
 
          Norm of current diis error: 0.10501E-04
          max. resid. norm for Fia-block=  3.031D-07 for orbital     16a         
          max. resid. fock norm         =  5.465D-07 for orbital    587a         

 ENERGY & DENSITY CONVERGED !

          Overall gridpoints after grid construction =        431521

 ITERATION  ENERGY          1e-ENERGY        2e-ENERGY     RMS[dD(SAO)]   TOL
  15  -196.35274960677    -636.13894125     251.40753915    0.421D-08 0.238D-13
                            Exc = -30.6649421630     Coul =  282.072481308    
                              N = 40.000021836    
                            current damping = 0.600
 
          Norm of current diis error: 0.21042E-05
          max. resid. norm for Fia-block=  1.006D-07 for orbital      6a         
          max. resid. fock norm         =  1.561D-07 for orbital    587a         

 End of SCF iterations

   convergence criteria satisfied after    15 iterations


                  ------------------------------------------ 
                 |  total energy      =   -196.35274960677  |
                  ------------------------------------------ 
                 :  kinetic energy    =    195.43383390554  :
                 :  potential energy  =   -391.78658351231  :
                 :  virial theorem    =      1.99532007724  :
                 :  wavefunction norm =      1.00000000000  :
                  .......................................... 


 <geterg> : there is no data group $energy 


 <skperg> : $end is missing 


 orbitals $scfmo  will be written to file mos

    irrep                 16a         17a         18a         19a         20a   
 eigenvalues H         -0.29389    -0.29291    -0.28935    -0.28065    -0.26973
            eV          -7.9972     -7.9706     -7.8737     -7.6370     -7.3398
 occupation              2.0000      2.0000      2.0000      2.0000      2.0000 

    irrep                 21a         22a         23a         24a         25a   
 eigenvalues H         -0.00573     0.01563     0.03423     0.03509     0.05841
            eV          -0.1558      0.4253      0.9316      0.9549      1.5895
 
 
 
 
 ==============================================================================
                           electrostatic moments
 ==============================================================================

 reference point for electrostatic moments:    0.00000   0.00000   0.00000

 
              nuc           elec       ->  total
 ------------------------------------------------------------------------------
                          charge      
 ------------------------------------------------------------------------------
          40.000000     -40.000000       0.000000
 
 ------------------------------------------------------------------------------
                       dipole moment  
 ------------------------------------------------------------------------------
   x       3.462447      -3.470161      -0.007715
   y       7.066415      -7.059853       0.006562
   z     392.369109    -392.364014       0.005095
 
   | dipole moment | =     0.0113 a.u. =     0.0288 debye 
 
 ------------------------------------------------------------------------------
                     quadrupole moment
 ------------------------------------------------------------------------------
  xx     147.895016    -173.289602     -25.394586
  yy     147.454005    -172.835033     -25.381028
  zz    3889.794708   -3914.175425     -24.380717
  xy       4.160992      -4.177287      -0.016295
  xz      16.360672     -16.301901       0.058770
  yz      90.712275     -90.805589      -0.093315
 
     1/3  trace=     -25.052110
     anisotropy=       1.025500
 
 ==============================================================================
 


    ------------------------------------------------------------------------
         total  cpu-time : 23 minutes and 45 seconds
         total wall-time :  4 minutes and  1 seconds
    ------------------------------------------------------------------------

   ****  ridft : all done  ****


    2018-04-28 21:00:08.589 

