Using Slurm to start processes with PMI2
STARTING ridft ON 8 PROCESSORS!
RUNNING PROGRAM /beegfs/modfac/apps/TURBOMOLE/7.0_intel_GA/bin/em64t-unknown-linux-gnu_mpi/ridft_mpi.
PLEASE WAIT UNTIL ridft HAS FINISHED.
Look for the output in slave1.output.
  this is node-proc. number 1 running on node c-6-29.local
  the total number of node-proc. spawned is            8
  parallel platform: MPP, or cluster with fast interconnect

 ridft (c-6-29.local) : TURBOMOLE V7.0.2( ) 15 Jan 2016 at 17:47:42
 Copyright (C) 2016 TURBOMOLE GmbH, Karlsruhe


    2017-10-29 13:22:19.935 



                                  r i d f t

                        DFT program with RI approximation 
                                for coulomb part 




                                                 
                                 References:     
                                                 
          TURBOMOLE:                             
              R. Ahlrichs, M. Baer, M. Haeser, H. Horn, and
              C. Koelmel
              Electronic structure calculations on workstation
              computers: the program system TURBOMOLE
              Chem. Phys. Lett. 162: 165 (1989)
          Density Functional:                              
              O. Treutler and R. Ahlrichs                      
              Efficient Molecular Numerical Integration Schemes
              J. Chem. Phys. 102: 346 (1995)                   
          Parallel Version:                                
              Performance of parallel TURBOMOLE for Density    
              Functional Calculations                          
              M. v. Arnim and R. Ahlrichs                      
              J. Comp. Chem. 19: 1746 (1998)                   
          RI-J Method:                                     
              Auxiliary Basis Sets to approximate Coulomb      
              Potentials                                       
              Chem. Phys. Lett. 240: 283 (1995)                
              K. Eichkorn, O. Treutler, H. Oehm, M. Haeser     
              and R. Ahlrichs                                  
              Chem. Phys. Lett. 242: 652 (1995)                
                                                           
              Auxiliary Basis Sets for Main Row Atoms and their
              Use to approximate Coulomb Potentials            
              K. Eichkorn, F. Weigend, O. Treutler and         
              R. Ahlrichs                                      
              Theo. Chem. Acc. 97: 119 (1997)                   
                                                           
              Accurate Coulomb-fitting basis sets for H to Rn 
              F. Weigend                                        
              Phys. Chem. Chem. Phys. 8: 1057 (2006)            
                                                           
          Multipole accelerated RI-J (MARI-J):             
              Fast evaluation of the Coulomb potential for     
              electron densities using multipole accelerated   
              resolution of identity approximation             
              M. Sierka, A. Hogekamp and R. Ahlrichs           
              J. Chem. Phys. 118: 9136 (2003)                  
          RI-JK Method:                                     
              A fully direct RI-HF algorithm: Implementation,
              optimised auxiliary basis sets, demonstration of
              accuracy and efficiency                         
              F. Weigend                                      
              Phys. Chem. Chem. Phys. 4: 4285 (2002)           
          Two-component HF and DFT with spin-orbit coupling:  
              Self-consistent treatment of spin-orbit         
              interactions with efficient Hartree-Fock and    
              density functional methods                      
              M. K. Armbruster, F. Weigend, C. van Wüllen and 
              W. Klopper                                      
              Phys. Chem. Chem. Phys. 10: 1748 (2008)         
          Relativistic all-electron 2c calculations           
              An efficient implementation of two-component    
              relativistic exact-decoupling methods for large 
              molecules                                       
              D. Peng, N. Middendorf, F. Weigend, M. Reiher   
              J. Chem. Phys. 138, 184105 (2013)               
                                         


 


              +--------------------------------------------------+
              |      general information about current run       |
              +--------------------------------------------------+

 

 SCF run will be profiled !


 DENSITY CONVERGENCE CHECK SWITCHED ON !
 SCF CONVERGENCE IF RMS(delta[D]) <     0.1000000000E-06

 PBE functional
 exchange:    LDA + PBE
 correlation: LDA (PW) + PBE
 A DFT calculation using the RI-J approximation will be carried out.
 Allocatable memory for RI due to $ricore (MB):       10000


              +--------------------------------------------------+
              | Atomic coordinate, charge and isotop information |
              +--------------------------------------------------+

                    atomic coordinates            atom    charge  isotop
          5.32392463   -1.49516900   -2.40294285    c      6.000     0
          6.18731652   -3.52966606   -0.98744084    c      6.000     0
          4.82376692   -5.71510672   -1.77930586    c      6.000     0
          3.17420547   -4.98683212   -3.67633784    c      6.000     0
          6.00623048    1.30084672   -2.38521574    c      6.000     0
          8.83970149    1.58130848   -3.10270124    c      6.000     0
          4.37227662    2.69090806   -4.29136691    c      6.000     0
          4.51174257    2.89108961   -6.89906610    c      6.000     0
          1.35221078   -6.44314688   -5.33166096    c      6.000     0
          0.75206739   -9.02020477   -4.09185518    c      6.000     0
          2.55403637   -6.91550744   -7.95239686    c      6.000     0
         -1.05525346   -4.93309984   -5.64581292    c      6.000     0
         -2.51773129   -4.33794719   -7.73452991    c      6.000     0
          3.51136005   -2.42677166   -4.01061320    n      7.000     0
          2.16807609    3.87254735   -3.57044427    n      7.000     0
         -2.27867614   -3.93393675   -3.57588096    n      7.000     0
         -3.31653021    4.92414393   -3.65307308    c      6.000     0
         -5.01890894    5.65674207   -1.80453878    c      6.000     0
         -6.38528656    3.46829669   -1.02755151    c      6.000     0
         -5.47284584    1.42827285   -2.40330205    c      6.000     0
         -1.48029780    6.38875004   -5.28641586    c      6.000     0
         -0.85848565    8.94313763   -4.00985075    c      6.000     0
         -2.67944908    6.90908267   -7.89940873    c      6.000     0
          0.91509443    4.86624140   -5.62619683    c      6.000     0
          2.33998721    4.25199702   -7.73493599    c      6.000     0
         -6.11184336   -1.37661477   -2.34124766    c      6.000     0
         -8.95603865   -1.71149971   -2.98594642    c      6.000     0
         -4.50027024   -2.76638251   -4.26675676    c      6.000     0
         -4.68149264   -2.98209206   -6.87061072    c      6.000     0
         -3.62553357    2.35860202   -3.97236025    n      7.000     0
          5.56243944    2.44316398    0.21845543    c      6.000     0
          5.74880943    4.95755089    1.03539559    c      6.000     0
          4.82696343    1.02208452    2.23616870    n      7.000     0
          5.09712296    5.00759210    3.64265296    c      6.000     0
          4.52995734    2.52391905    4.34966695    c      6.000     0
         -5.58485686   -2.47329868    0.26757915    c      6.000     0
         -5.69367849   -4.97768039    1.12841681    c      6.000     0
         -4.82156431   -1.00509774    2.24039701    n      7.000     0
         -4.96428352   -4.97189564    3.71569707    c      6.000     0
         -4.43167384   -2.46565904    4.36758544    c      6.000     0
          3.86974805    1.47659183    6.79374874    c      6.000     0
         -3.71995740   -1.36306814    6.77245038    c      6.000     0
          3.44657604    2.70577856    8.70842435    o      8.000     0
         -3.23015205   -2.54658284    8.69977230    o      8.000     0
          3.80737564   -1.10514195    6.70826337    o      8.000     0
         -3.69326723    1.21724981    6.63487550    o      8.000     0
         -3.11601839    2.55707933    8.97702921    c      6.000     0
          3.27236864   -2.39434475    9.08950815    c      6.000     0
         -4.13475632    5.21909711    8.69124607    c      6.000     0
          4.33464575   -5.04552179    8.86678210    c      6.000     0
         -4.74286359   -7.24622871    5.39267405    c      6.000     0
          4.98928078    7.31000504    5.29265789    c      6.000     0
          2.32949891    8.49047736    5.35469284    c      6.000     0
         -2.05544737   -8.36436188    5.36462719    c      6.000     0
         -6.47853106   -7.26439578   -0.35989609    c      6.000     0
          6.53495588    7.20352807   -0.51297770    c      6.000     0
          5.04552848   -7.60788104   -1.04442988    h      1.000     0
          9.40463830    3.56686967   -3.06874157    h      1.000     0
          9.16900807    0.81643591   -4.99404391    h      1.000     0
          9.99999359    0.52688532   -1.75864220    h      1.000     0
          6.00028821    2.13720639   -8.07771787    h      1.000     0
         -0.57658928  -10.06901105   -5.27735712    h      1.000     0
         -0.09154432   -8.76783076   -2.22133333    h      1.000     0
          2.47830662  -10.14188443   -3.88285945    h      1.000     0
          3.00695523   -5.13035243   -8.89241341    h      1.000     0
          1.26176311   -7.98731176   -9.16265978    h      1.000     0
          4.29951081   -7.99790386   -7.72615856    h      1.000     0
         -2.10043299   -4.84330067   -9.66870102    h      1.000     0
          1.62118194    4.06309515   -1.74551550    h      1.000     0
         -1.69820183   -4.11008488   -1.75954821    h      1.000     0
         -5.27408351    7.55456826   -1.09394951    h      1.000     0
         -7.87045408    3.40127704    0.37572437    h      1.000     0
          0.47780127    9.99851566   -5.18109353    h      1.000     0
         -0.01691243    8.65831410   -2.14301672    h      1.000     0
         -2.57536024   10.07562405   -3.78405646    h      1.000     0
         -3.14786604    5.14109049   -8.86383627    h      1.000     0
         -1.37927658    7.98828701   -9.09468780    h      1.000     0
         -4.41616896    8.00151728   -7.65556843    h      1.000     0
          1.89330265    4.74931897   -9.66451676    h      1.000     0
         -9.34194453   -0.98452516   -4.88139362    h      1.000     0
        -10.10218985   -0.65357042   -1.63234032    h      1.000     0
         -9.48813212   -3.70467596   -2.90525893    h      1.000     0
         -6.19055346   -2.23826584   -8.02939932    h      1.000     0
         -2.67671777    1.27816199   -5.23839476    h      1.000     0
          4.52467074   -0.86956392    2.17265762    h      1.000     0
         -4.57513198    0.89322231    2.14017243    h      1.000     0
         -1.06724050    2.53762041    9.24474282    h      1.000     0
         -4.00200760    1.53454253   10.53729267    h      1.000     0
          1.22491823   -2.40209104    9.36804540    h      1.000     0
          4.15197938   -1.31549499   10.61478264    h      1.000     0
         -3.29787149    6.15969717    7.05159290    h      1.000     0
         -3.66364894    6.32146671   10.37803281    h      1.000     0
         -6.19078047    5.20628832    8.46601891    h      1.000     0
          3.50038789   -6.04585038    7.26153145    h      1.000     0
          3.89684945   -6.10885657   10.58737629    h      1.000     0
          6.38826232   -5.00405885    8.62347613    h      1.000     0
         -6.09784411   -8.68616137    4.77186525    h      1.000     0
         -5.22573357   -6.72027811    7.33200352    h      1.000     0
          6.35168033    8.70899457    4.59912895    h      1.000     0
          5.53605184    6.80045296    7.21942620    h      1.000     0
          1.70050500    9.01194270    3.45164413    h      1.000     0
          2.30302838   10.19059998    6.53555486    h      1.000     0
          0.97774897    7.13670014    6.13349410    h      1.000     0
         -1.49386721   -8.90817405    3.44671263    h      1.000     0
         -1.93904251  -10.03983678    6.57480869    h      1.000     0
         -0.70379886   -6.96457904    6.05829261    h      1.000     0
         -6.41347141   -6.90296469   -2.39290412    h      1.000     0
         -8.40932355   -7.85362575    0.11806555    h      1.000     0
         -5.23601036   -8.87301876    0.03182258    h      1.000     0
          6.37824820    6.81887274   -2.53686091    h      1.000     0
          8.49847454    7.74628985   -0.12117738    h      1.000     0
          5.35194606    8.84927502   -0.09323357    h      1.000     0
          7.64619561   -3.46486501    0.44325816    h      1.000     0
          2.59692988   -1.34594449   -5.30183989    h      1.000     0
 
       center of nuclear mass  :   -0.00498592   -0.00077194    0.08075192
       center of nuclear charge:   -0.00411295   -0.00055348    0.07997689

              +--------------------------------------------------+
              |               basis set information              |
              +--------------------------------------------------+

              we will work with the 1s 3p 5d 7f 9g ... basis set
              ...i.e. with spherical basis functions...

   type   atoms  prim   cont   basis
   ---------------------------------------------------------------------------
    c       46     77     55   cc-pVQZ   [5s4p3d2f1g|21s6p3d2f1g]
    n        6     77     55   cc-pVQZ   [5s4p3d2f1g|21s6p3d2f1g]
    o        4     77     55   cc-pVQZ   [5s4p3d2f1g|21s6p3d2f1g]
    h       58     32     30   cc-pVQZ   [4s3p2d1f|6s3p2d1f]
   ---------------------------------------------------------------------------
   total:  114   6168   4820
   ---------------------------------------------------------------------------

   total number of primitive shells          :  111
   total number of contracted shells         : 1420
   total number of cartesian basis functions : 5950
   total number of SCF-basis functions       : 4820


 integral neglect threshold       :  0.56E-14
 integral storage threshold THIZE :  0.10E-04
 integral storage threshold THIME :         5

 RI-J AUXILIARY BASIS SET information:

              we will work with the 1s 3p 5d 7f 9g ... basis set
              ...i.e. with spherical basis functions...

   type   atoms  prim   cont   basis
   ---------------------------------------------------------------------------
    c       46     70     49   cc-pVQZ   [6s4p3d1f1g|12s5p4d2f1g]
    n        6     70     49   cc-pVQZ   [6s4p3d1f1g|12s5p4d2f1g]
    o        4     70     49   cc-pVQZ   [6s4p3d1f1g|12s5p4d2f1g]
    h       58     16     11   cc-pVQZ   [3s1p1d|5s2p1d]
   ---------------------------------------------------------------------------
   total:  114   4848   3382
   ---------------------------------------------------------------------------

   total number of primitive shells          :   80
   total number of contracted shells         : 1130
   total number of cartesian basis functions : 4112
   total number of SCF-basis functions       : 3382


 symmetry group of the molecule :   c1 

 the group has the following generators :
   c1(z)

    1 symmetry operations found

 there are 1 real representations :   a   

 maximum number of shells which are related by symmetry :  1


    mo occupation :
   irrep   mo's   occupied
    a     4820      204
 
 number of basis functions   :         4820
 number of occupied orbitals :          204
 
  
           ------------------
           density functional
           ------------------
 PBE functional
 exchange:    LDA + PBE
 correlation: LDA (PW) + PBE
 grinp -> nfun, dfgga, dfhybrid 
           6 T F
 iterations will be done with small grid
  
 spherical integration : Lebedev's spherical grid
 spherical gridsize    :           5
    i.e. gridpoints    :         590
 value for diffuse not defined
 radial integration    : Chebyshev 2nd kind (scaling 3)
 radial gridsize       :           8
 integration cells     :         114
 partition function    : becke
 partition sharpness   :           3
  

 <rddim> : input of entry tasksize
           from data group '$pardft' failed !

               Default values taken

 <rddim> : input of entry memdiv
           from data group '$pardft' failed !

               Default values taken
  RIDFT: memory allocation for DFT gridpoints
  MEMORY is divided by 1 as DEFAULT
 Each node can hold at most  the            1 -th part
 of the gridpoints    

 biggest AO integral is expected to be     4.785886462
  
           ------------------------
               RI-J - INFORMATION
           ------------------------
 
 
 **************************************************
 *      MEMORY ALLOCATION FOR PARALLEL RI-DFT     *
 **************************************************
 
 
MEMORY FOR (MU NU/ ALPHA), SEQUENTIAL RUN               9904 MByte
 
            DIFFERENCE IN MEMORY NEED:       DIAG./SLAVE  
 
      TOTAL DIFFERENCE :                   1038 MByte
 
      difference in xcore:                   97 MByte
      difference in fatmat:                 316 MByte
      getcor calls skipped by slaves:       625 MByte
 
 
           Integral memory available for diagonal.      9904 MByte
 
           Integral memory available for slave             0 MByte
 
         MEMORY FOR (MU NU/ ALPHA) ON DIAGONALIZER      9904 MByte
 
         MEMORY FOR (MU NU/ ALPHA) ON ONE SLAVE            0 MByte
 
         TOTAL MEMORY FOR (MU NU/ ALPHA),ALL NODES      9904 MByte
 
 Contributions to RI integral batches: 
  neglected integral batches:      633525
  direct contribution:             301622
  memory contribution:       73763
 Memory core needed for (P|Q) and Cholesky     88 MByte
 Memory core minimum needed except of (P|Q)    12 MByte
 Total minimum memory core needed (sum)        99 MByte
     number of direct tasks:         160
  
 ****************************************
 Memory allocated for RI-J 10002 MByte
 ****************************************
                                            

          ------------------------
          nuclear repulsion energy  :   8805.56736051    
          ------------------------

 
          -----------------
          -S integrals
          -----------------

 1e-integrals will be neglected if expon. factor < 0.561674E-15
 
          -----------------
          -T+V integrals
          -----------------

 1e-integrals will be neglected if expon. factor < 0.561674E-15
 Difference densities >>NOT<< switched on in parallel ridft!

 automatic virtual orbital shift switched on 
      shift if e(lumo)-e(homo) < 0.10000000    


 DIIS switched on: error vector is FDS-SDF
 Max. Iterations for DIIS is     :   4
 DIIS matrix (see manual) 
    Scaling factor of diagonals  :  1.200
    threshold for scaling factor :  0.000

 scf convergence criterion : increment of total energy < .1000000D-08
                  and increment of one-electron energy < .1000000D-05


 <geterg> : there is no data group $energy 

  MOs are in ASCII format !


 reading orbital data $scfmo  from file mos . 

 orbital characterization : expanded
 
 mo provided and orthogonalized by Cholesky decomposition

 DSCF restart information will be dumped onto file mos


 Starting SCF iterations


 ITERATION  ENERGY          1e-ENERGY        2e-ENERGY     RMS[dD(SAO)]   TOL
   1  -2407.2055774135    -20736.309436     9523.5364976    0.000D+00 0.560D-14
                            Exc = -337.988914226     Coul =  9861.52541187    
                              N = 408.00132032    
                            current damping = 0.700
 
          max. resid. norm for Fia-block=  3.499D-01 for orbital      1a         
          max. resid. fock norm         =  7.434D+00 for orbital   4216a         

 ITERATION  ENERGY          1e-ENERGY        2e-ENERGY     RMS[dD(SAO)]   TOL
   2  -2413.6440991922    -20800.211591     9581.0001318    0.544D-02 0.560D-14
                            Exc = -341.961438464     Coul =  9922.96157023    
                              N = 408.00110886    
                            current damping = 0.650
 
          Norm of current diis error:  8.3648    
          max. resid. norm for Fia-block=  1.657D-01 for orbital      3a         
          max. resid. fock norm         =  3.479D-01 for orbital   4761a         

 ITERATION  ENERGY          1e-ENERGY        2e-ENERGY     RMS[dD(SAO)]   TOL
   3  -2414.8086766821    -20814.455988     9594.0799508    0.173D-02 0.560D-14
                            Exc = -343.664856622     Coul =  9937.74480738    
                              N = 408.00098315    
                            current damping = 0.550
 
          Norm of current diis error:  4.1591    
          max. resid. norm for Fia-block=  6.697D-02 for orbital    188a         
          max. resid. fock norm         =  6.991D-02 for orbital      3a         

 ITERATION  ENERGY          1e-ENERGY        2e-ENERGY     RMS[dD(SAO)]   TOL
   4  -2415.1943683044    -20824.660649     9603.8989200    0.708D-03 0.560D-14
                            Exc = -343.997616011     Coul =  9947.89653601    
                              N = 408.00091005    
                            current damping = 0.450
 
          Norm of current diis error:  1.7409    
          max. resid. norm for Fia-block=  5.402D-02 for orbital     66a         
          max. resid. fock norm         =  1.082D-01 for orbital   4510a         

 ITERATION  ENERGY          1e-ENERGY        2e-ENERGY     RMS[dD(SAO)]   TOL
   5  -2415.2426887433    -20826.020014     9605.2099647    0.402D-03 0.560D-14
                            Exc = -344.700116655     Coul =  9949.91008132    
                              N = 408.00085929    
                            current damping = 0.350
 
          Norm of current diis error:  1.2056    
          max. resid. norm for Fia-block=  2.776D-02 for orbital    192a         
          max. resid. fock norm         =  3.594D-02 for orbital   4702a         
          mo-orthogonalization: Cholesky decomposition

 ITERATION  ENERGY          1e-ENERGY        2e-ENERGY     RMS[dD(SAO)]   TOL
   6  -2415.2769553349    -20830.509973     9609.6656571    0.241D-03 0.560D-14
                            Exc = -344.678752406     Coul =  9954.34440947    
                              N = 408.00085598    
                            current damping = 0.250
 
          Norm of current diis error: 0.53296    
          max. resid. norm for Fia-block=  1.427D-02 for orbital    189a         
          max. resid. fock norm         =  2.421D-02 for orbital   4755a         

 ITERATION  ENERGY          1e-ENERGY        2e-ENERGY     RMS[dD(SAO)]   TOL
   7  -2415.2804001842    -20827.490250     9606.6424897    0.112D-03 0.560D-14
                            Exc = -344.591104909     Coul =  9951.23359462    
                              N = 408.00084569    
                            current damping = 0.300
 
          Norm of current diis error: 0.39528    
          max. resid. norm for Fia-block=  6.370D-03 for orbital    189a         
          max. resid. fock norm         =  1.008D-02 for orbital   4737a         

 ITERATION  ENERGY          1e-ENERGY        2e-ENERGY     RMS[dD(SAO)]   TOL
   8  -2415.2839435161    -20828.744163     9607.8928588    0.334D-04 0.560D-14
                            Exc = -344.657601651     Coul =  9952.55046047    
                              N = 408.00084585    
                            current damping = 0.350
 
          Norm of current diis error: 0.75839E-01
          max. resid. norm for Fia-block=  1.453D-03 for orbital    198a         
          max. resid. fock norm         =  2.972D-03 for orbital   4778a         

 ITERATION  ENERGY          1e-ENERGY        2e-ENERGY     RMS[dD(SAO)]   TOL
   9  -2415.2839203871    -20828.984509     9608.1332283    0.119D-04 0.560D-14
                            Exc = -344.677297467     Coul =  9952.81052573    
                              N = 408.00084790    
                            current damping = 0.400
 
          Norm of current diis error: 0.83251E-01
          max. resid. norm for Fia-block=  5.677D-04 for orbital    201a         
          max. resid. fock norm         =  1.120D-03 for orbital   4778a         

 ITERATION  ENERGY          1e-ENERGY        2e-ENERGY     RMS[dD(SAO)]   TOL
  10  -2415.2840478771    -20828.971618     9608.1202097    0.525D-05 0.560D-14
                            Exc = -344.669447067     Coul =  9952.78965673    
                              N = 408.00084788    
                            current damping = 0.450
 
          Norm of current diis error: 0.29823E-01
          max. resid. norm for Fia-block=  3.197D-04 for orbital    198a         
          max. resid. fock norm         =  5.766D-04 for orbital   4778a         
          mo-orthogonalization: Cholesky decomposition

 ITERATION  ENERGY          1e-ENERGY        2e-ENERGY     RMS[dD(SAO)]   TOL
  11  -2415.2840654495    -20828.902823     9608.0513968    0.351D-05 0.560D-14
                            Exc = -344.667101912     Coul =  9952.71849868    
                              N = 408.00084741    
                            current damping = 0.300
 
          Norm of current diis error: 0.87092E-02
          max. resid. norm for Fia-block=  1.293D-04 for orbital    199a         
          max. resid. fock norm         =  2.355D-04 for orbital   4771a         

 ITERATION  ENERGY          1e-ENERGY        2e-ENERGY     RMS[dD(SAO)]   TOL
  12  -2415.2840658032    -20828.912040     9608.0606138    0.100D-05 0.560D-14
                            Exc = -344.667036105     Coul =  9952.72764990    
                              N = 408.00084731    
                            current damping = 0.350
 
          Norm of current diis error: 0.76648E-02
          max. resid. norm for Fia-block=  6.810D-05 for orbital    201a         
          max. resid. fock norm         =  1.548D-04 for orbital   4779a         

 ITERATION  ENERGY          1e-ENERGY        2e-ENERGY     RMS[dD(SAO)]   TOL
  13  -2415.2840670104    -20828.902766     9608.0513385    0.598D-06 0.560D-14
                            Exc = -344.666403693     Coul =  9952.71774222    
                              N = 408.00084733    
                            current damping = 0.400
 
          Norm of current diis error: 0.20349E-02
          max. resid. norm for Fia-block=  3.397D-05 for orbital    189a         
          max. resid. fock norm         =  6.305D-05 for orbital   4811a         

 ITERATION  ENERGY          1e-ENERGY        2e-ENERGY     RMS[dD(SAO)]   TOL
  14  -2415.2840670752    -20828.905867     9608.0544390    0.216D-06 0.560D-14
                            Exc = -344.666562535     Coul =  9952.72100153    
                              N = 408.00084734    
                            current damping = 0.450
 
          Norm of current diis error: 0.11288E-02
          max. resid. norm for Fia-block=  1.501D-05 for orbital    195a         
          max. resid. fock norm         =  2.660D-05 for orbital   4702a         

 ITERATION  ENERGY          1e-ENERGY        2e-ENERGY     RMS[dD(SAO)]   TOL
  15  -2415.2840670957    -20828.901530     9608.0501028    0.106D-06 0.560D-14
                            Exc = -344.666592222     Coul =  9952.71669498    
                              N = 408.00084734    
                            current damping = 0.500
 
          Norm of current diis error: 0.56332E-03
          max. resid. norm for Fia-block=  1.101D-05 for orbital    194a         
          max. resid. fock norm         =  1.859D-05 for orbital   4469a         
          mo-orthogonalization: Cholesky decomposition

 DENSITY CONVERGED !


 ITERATION  ENERGY          1e-ENERGY        2e-ENERGY     RMS[dD(SAO)]   TOL
  16  -2415.2840671018    -20828.904440     9608.0530126    0.666D-07 0.560D-14
                            Exc = -344.666598313     Coul =  9952.71961090    
                              N = 408.00084735    
                            current damping = 0.550
 
          Norm of current diis error: 0.24459E-03
          max. resid. norm for Fia-block=  2.909D-06 for orbital    198a         
          max. resid. fock norm         =  6.685D-06 for orbital   4777a         

 DENSITY CONVERGED !


 ITERATION  ENERGY          1e-ENERGY        2e-ENERGY     RMS[dD(SAO)]   TOL
  17  -2415.2840671033    -20828.903765     9608.0523377    0.239D-07 0.560D-14
                            Exc = -344.666581264     Coul =  9952.71891896    
                              N = 408.00084734    
                            current damping = 0.600
 
          Norm of current diis error: 0.48661E-04
          max. resid. norm for Fia-block=  9.665D-07 for orbital    198a         
          max. resid. fock norm         =  1.782D-06 for orbital   4811a         

 DENSITY CONVERGED !


 ITERATION  ENERGY          1e-ENERGY        2e-ENERGY     RMS[dD(SAO)]   TOL
  18  -2415.2840671032    -20828.903659     9608.0522315    0.535D-08 0.560D-14
                            Exc = -344.666574872     Coul =  9952.71880633    
                              N = 408.00084734    
                            current damping = 0.450
 
          Norm of current diis error: 0.26655E-04
          max. resid. norm for Fia-block=  2.614D-07 for orbital    194a         
          max. resid. fock norm         =  4.763D-07 for orbital   4771a         

 ENERGY & DENSITY CONVERGED !


 ITERATION  ENERGY          1e-ENERGY        2e-ENERGY     RMS[dD(SAO)]   TOL
  19  -2415.2839518407    -20828.903677     9608.0523648    0.190D-08 0.560D-14
                            Exc = -344.666462205     Coul =  9952.71882701    
                              N = 408.00017698    
                            current damping = 0.500
 
          Norm of current diis error: 0.11164E-04
          max. resid. norm for Fia-block=  1.723D-07 for orbital    194a         
          max. resid. fock norm         =  2.883D-07 for orbital   4811a         

 End of SCF iterations

   convergence criteria satisfied after   19 iterations


                  ------------------------------------------ 
                 |  total energy      =  -2415.28395184074  |
                  ------------------------------------------ 
                 :  kinetic energy    =   2403.92387735676  :
                 :  potential energy  =  -4819.20782919751  :
                 :  virial theorem    =      1.99529658843  :
                 :  wavefunction norm =      1.00000000000  :
                  .......................................... 


 <geterg> : there is no data group $energy 


 <skperg> : $end is missing 


 orbitals $scfmo  will be written to file mos

    irrep                200a        201a        202a        203a        204a   
 eigenvalues H         -0.19824    -0.19258    -0.18949    -0.18627    -0.18312
            eV          -5.3945     -5.2405     -5.1564     -5.0686     -4.9831
 occupation              2.0000      2.0000      2.0000      2.0000      2.0000 

    irrep                205a        206a        207a        208a        209a   
 eigenvalues H         -0.05841    -0.05464    -0.02261    -0.02074    -0.01675
            eV          -1.5895     -1.4867     -0.6154     -0.5645     -0.4558
 
 
 ! grave: sending quit signal to master process
 
 
 
 
 ==============================================================================
                           electrostatic moments
 ==============================================================================

 reference point for electrostatic moments:    0.00000   0.00000   0.00000

 
              nuc           elec       ->  total
 ------------------------------------------------------------------------------
                          charge      
 ------------------------------------------------------------------------------
         408.000000    -408.000000      -0.000000
 
 ------------------------------------------------------------------------------
                       dipole moment  
 ------------------------------------------------------------------------------
   x      -1.678082       1.663518      -0.014564
   y      -0.225818       0.217435      -0.008384
   z      32.630570     -34.268372      -1.637802
 
   | dipole moment | =     1.6379 a.u. =     4.1631 debye 
 
 ------------------------------------------------------------------------------
                     quadrupole moment
 ------------------------------------------------------------------------------
  xx    8508.042772   -8757.355992    -249.313220
  yy    9786.797321  -10028.343324    -241.546003
  zz   11793.674007  -12051.518837    -257.844830
  xy    1722.593174   -1725.721165      -3.127991
  xz     126.121176    -126.472187      -0.351011
  yz      64.578768     -64.800381      -0.221613
 
     1/3  trace=    -249.568017
     anisotropy=      15.141164
 
 ==============================================================================
 

    ridft profiling
  --------------------------------------------------------------------
             module   cpu total (s)       %  wall total (s)       %

               RIDFT          9601.4  100.00          9641.6  100.00
         Ridft_b_scf           388.8    4.05           389.1    4.04
        b_scf_prelim             0.0    0.00             0.0    0.00
        b_scf_molinp             0.0    0.00             0.0    0.00
         b_scf_init0             0.0    0.00             0.0    0.00
        b_scf_auxbas             0.0    0.00             0.0    0.00
      b_scf_symmetry             0.0    0.00             0.0    0.00
         b_scf_cosmo             0.0    0.00             0.0    0.00
        b_scf_params            27.0    0.28            27.0    0.28
          b_scf_ri-j            93.9    0.98            93.9    0.97
    b_scf_ri-j_auxpq            93.7    0.98            93.8    0.97
     ri-j_auxpq_chol             5.4    0.06             5.4    0.06
         b_scf_1elec            15.7    0.16            16.2    0.17
       b_scf_moinput           252.1    2.63           252.0    2.61
     moinput_orthmos           250.8    2.61           250.7    2.60
    b_scf_dft-dstmax             0.0    0.00             0.0    0.00
           Ridft_scf          9209.0   95.91          9248.7   95.92
          Scf_b_loop             0.0    0.00             0.0    0.00
                noga             0.0    0.00             0.0    0.00
            Scf_loop          9193.4   95.75          9232.0   95.75
     scf_loop_mkdmat            50.8    0.53            51.1    0.53
       scf_loop_ri-j          2102.8   21.90          2115.8   21.94
      parlp1.bc.dens             3.6    0.04             3.6    0.04
        parlp1.gs.gp           301.0    3.14           300.8    3.12
        parlp2.bc.gq             0.0    0.00             0.0    0.00
        scf_loop_dft          4146.1   43.18          4143.7   42.98
      pardft.bc.dens             0.0    0.00             0.0    0.00
        dft_grid_con             8.1    0.08             8.1    0.08
           dft_xcrhf          4022.8   41.90          4020.4   41.70
          dft_getval           102.0    1.06           102.0    1.06
          funct2 dst             1.1    0.01             1.2    0.01
      funct2 f2loop1            18.7    0.19            18.6    0.19
      funct2 f2loop2            47.9    0.50            47.9    0.50
          funct2 s+c            33.1    0.34            33.1    0.34
        funct2 cmf_2            30.2    0.31            30.3    0.31
          dft_mkdens          1625.2   16.93          1624.4   16.85
         dft_gga-fun             0.8    0.01             0.8    0.01
          dft_mkfock          2293.8   23.89          2292.2   23.77
     pardft.red.fock           373.5    3.89           373.4    3.87
     scf_loop_energy             0.3    0.00             0.6    0.01
     scf_loop_mkfock             0.5    0.01             0.5    0.01
       scf_loop_diis          1606.9   16.74          1607.7   16.67
       scf_loop_diag           790.4    8.23           790.2    8.20
         diag_tritrn           280.9    2.93           280.9    2.91
          diag_rdiag           508.2    5.29           507.9    5.27
     scf_loop_modump           255.4    2.66           282.3    2.93
      scf_loop_ortho           228.5    2.38           228.4    2.37
          Scf_a_loop            15.6    0.16            16.7    0.17
         Ridft_a_scf             3.6    0.04             3.8    0.04
         a_scf_fanal             3.4    0.04             3.5    0.04
 


    ------------------------------------------------------------------------
         total  cpu-time :  2 hours 40 minutes and 20 seconds
         total wall-time :  2 hours 41 minutes and  1 seconds
    ------------------------------------------------------------------------


   ****  ridft : all done  ****


    2017-10-29 16:03:20.492 

