           Doing BLAS/Lapack in the master proc. with  8 CPUs.
           SMPCPUS    set: Shared-memory Parallelization with   8 CPUs.

           SMP Parallelization Reference:
           C. van Wullen, J. Comput. Chem. 32 (2011) 1195--1201
 operating system is UNIX !

 ridft (c-18-264.gp.local) : TURBOMOLE V7.2 ( 21454 ) 4 Oct 2017 at 12:48:15
 Copyright (C) 2017 TURBOMOLE GmbH, Karlsruhe


    2018-04-24 21:11:11.597 



                                  r i d f t

                        DFT program with RI approximation 
                                for coulomb part 




                                                 
                                 References:     
                                                 
          TURBOMOLE:                             
              R. Ahlrichs, M. Baer, M. Haeser, H. Horn, and
              C. Koelmel
              Electronic structure calculations on workstation
              computers: the program system TURBOMOLE
              Chem. Phys. Lett. 162: 165 (1989)
          Density Functional:                              
              O. Treutler and R. Ahlrichs                      
              Efficient Molecular Numerical Integration Schemes
              J. Chem. Phys. 102: 346 (1995)                   
          Parallel Version:                                
              Performance of parallel TURBOMOLE for Density    
              Functional Calculations                          
              M. v. Arnim and R. Ahlrichs                      
              J. Comp. Chem. 19: 1746 (1998)                   
          RI-J Method:                                     
              Auxiliary Basis Sets to approximate Coulomb      
              Potentials                                       
              Chem. Phys. Lett. 240: 283 (1995)                
              K. Eichkorn, O. Treutler, H. Oehm, M. Haeser     
              and R. Ahlrichs                                  
              Chem. Phys. Lett. 242: 652 (1995)                
                                                           
              Auxiliary Basis Sets for Main Row Atoms and their
              Use to approximate Coulomb Potentials            
              K. Eichkorn, F. Weigend, O. Treutler and         
              R. Ahlrichs                                      
              Theo. Chem. Acc. 97: 119 (1997)                   
                                                           
              Accurate Coulomb-fitting basis sets for H to Rn 
              F. Weigend                                        
              Phys. Chem. Chem. Phys. 8: 1057 (2006)            
                                                           
          Multipole accelerated RI-J (MARI-J):             
              Fast evaluation of the Coulomb potential for     
              electron densities using multipole accelerated   
              resolution of identity approximation             
              M. Sierka, A. Hogekamp and R. Ahlrichs           
              J. Chem. Phys. 118: 9136 (2003)                  
          RI-JK Method:                                     
              A fully direct RI-HF algorithm: Implementation,
              optimised auxiliary basis sets, demonstration of
              accuracy and efficiency                         
              F. Weigend                                      
              Phys. Chem. Chem. Phys. 4: 4285 (2002)           
          Two-component HF and DFT with spin-orbit coupling:  
              Self-consistent treatment of spin-orbit         
              interactions with efficient Hartree-Fock and    
              density functional methods                      
              M. K. Armbruster, F. Weigend, C. van Wüllen and 
              W. Klopper                                      
              Phys. Chem. Chem. Phys. 10: 1748 (2008)         
          Relativistic all-electron 2c calculations           
              An efficient implementation of two-component    
              relativistic exact-decoupling methods for large 
              molecules                                       
              D. Peng, N. Middendorf, F. Weigend, M. Reiher   
              J. Chem. Phys. 138, 184105 (2013)               
                                         




              +--------------------------------------------------+
              |      general information about current run       |
              +--------------------------------------------------+

 

 DENSITY CONVERGENCE CHECK SWITCHED ON !
 SCF CONVERGENCE IF RMS(delta[D]) <     0.1000000000E-06

 PBE functional
 exchange:    LDA + PBE
 correlation: LDA (PW) + PBE
 A DFT calculation using the RI-J approximation will be carried out.
 Allocatable memory for RI due to $ricore (MB):                   500


              +--------------------------------------------------+
              | Atomic coordinate, charge and isotop information |
              +--------------------------------------------------+

                    atomic coordinates            atom    charge  isotop
         -1.07659254    1.53894091    0.19104705    n      7.000     0
          0.24732308    1.06091238   -1.11043058    h      1.000     0
         -2.76136637    0.99572467   -0.52993583    h      1.000     0
         -0.57733848    0.12417447    2.51105246    c      6.000     0
         -1.99772300    0.59388455    3.92299473    h      1.000     0
         -0.54428559   -1.93185282    2.29572672    h      1.000     0
          1.24808422    0.69638133    3.26968398    h      1.000     0
          4.26490694    5.08355208   -0.28218770    c      6.000     0
          4.50040171    5.86056349   -2.17010788    h      1.000     0
          5.22218810    6.29485245    1.07422847    h      1.000     0
          2.24968077    5.03341854    0.13056898    h      1.000     0
          5.23243101    2.40430275   -0.27785261    c      6.000     0
          4.36319500    0.76829801   -1.67469019    o      8.000     0
          7.09661366    1.88834639    1.40840805    n      7.000     0
          7.85205251    3.31496258    2.40118088    h      1.000     0
          8.20861419   -0.60531835    1.55486101    c      6.000     0
          6.71917625   -2.00622930    1.37907756    h      1.000     0
          9.57159765   -0.93034250    0.04583080    h      1.000     0
          9.14337387   -0.82427749    3.36888382    h      1.000     0
 
       center of nuclear mass  :    3.85629016    1.56268761    0.49838698
       center of nuclear charge:    3.81496367    1.55751136    0.56744146

              +--------------------------------------------------+
              |               basis set information              |
              +--------------------------------------------------+

              we will work with the 1s 3p 5d 7f 9g ... basis set
              ...i.e. with spherical basis functions...

   type   atoms  prim   cont   basis
   ---------------------------------------------------------------------------
    n        2     77     55   cc-pVQZ   [5s4p3d2f1g|21s6p3d2f1g]
    h       12     32     30   cc-pVQZ   [4s3p2d1f|6s3p2d1f]
    c        4     77     55   cc-pVQZ   [5s4p3d2f1g|21s6p3d2f1g]
    o        1     77     55   cc-pVQZ   [5s4p3d2f1g|21s6p3d2f1g]
   ---------------------------------------------------------------------------
   total:   19    923    745
   ---------------------------------------------------------------------------

   total number of primitive shells          :  111
   total number of contracted shells         :  225
   total number of cartesian basis functions :  910
   total number of SCF-basis functions       :  745


 integral neglect threshold       :  0.37E-13
 integral storage threshold THIZE :  0.10E-04
 integral storage threshold THIME :         5

 RI-J AUXILIARY BASIS SET information:

              we will work with the 1s 3p 5d 7f 9g ... basis set
              ...i.e. with spherical basis functions...

   type   atoms  prim   cont   basis
   ---------------------------------------------------------------------------
    n        2     70     49   cc-pVQZ   [6s4p3d1f1g|12s5p4d2f1g]
    h       12     16     11   cc-pVQZ   [3s1p1d|5s2p1d]
    c        4     70     49   cc-pVQZ   [6s4p3d1f1g|12s5p4d2f1g]
    o        1     70     49   cc-pVQZ   [6s4p3d1f1g|12s5p4d2f1g]
   ---------------------------------------------------------------------------
   total:   19    682    475
   ---------------------------------------------------------------------------

   total number of primitive shells          :   80
   total number of contracted shells         :  165
   total number of cartesian basis functions :  571
   total number of SCF-basis functions       :  475


 symmetry group of the molecule :   c1 

 the group has the following generators :
   c1(z)

    1 symmetry operations found

 there are 1 real representations :   a   

 maximum number of shells which are related by symmetry :  1


    mo occupation :
   irrep   mo's   occupied
    a      745       29
 
 number of basis functions   :                    745
 number of occupied orbitals :                     29
 
  
           ------------------
           density functional
           ------------------
 PBE functional
 exchange:    LDA + PBE
 correlation: LDA (PW) + PBE

 iterations will be done with small grid
  
 spherical integration : Lebedev's spherical grid
 spherical gridsize    :                     5
    i.e. gridpoints    :                   590
 value for diffuse not defined
 radial integration    : Chebyshev 2nd kind (scaling 3)
 radial gridsize       :                     8
 integration cells     :                    19
 partition function    : becke
 partition sharpness   :                     3
  

 biggest AO integral is expected to be     4.785886462
  
           ------------------------
               RI-J - INFORMATION
           ------------------------
 Contributions to RI integral batches: 
  neglected integral batches:                  5924
  direct contribution:                        10043
  memory contribution:                  9458
 Memory core needed for (P|Q) and Cholesky      2 MByte
 Memory core minimum needed except of (P|Q)     1 MByte
 Total minimum memory core needed (sum)         3 MByte
  
 ****************************************
 Memory allocated for RI-J   412 MByte
 ****************************************
                                            

          ------------------------
          nuclear repulsion energy  :   320.509769244    
          ------------------------


         -----------------
         -S,T+V- integrals
         -----------------

 1e-integrals will be neglected if expon. factor < 0.367249E-14
 Difference densities >>NOT<< switched on in parallel ridft!

 DIIS switched on: error vector is FDS-SDF
 Max. Iterations for DIIS is     :   4
 DIIS matrix (see manual) 
    Scaling factor of diagonals  :  1.200
    threshold for scaling factor :  0.000

 scf convergence criterion : increment of total energy < .1000000D-08
                  and increment of one-electron energy < .1000000D-05

  MOs are in ASCII format !


 automatic virtual orbital shift switched on 
      shift if e(lumo)-e(homo) < 0.10000000    


 reading orbital data $scfmo  from file mos
 orbital characterization : expanded
 mo provided and orthogonalized by Cholesky decomposition

 DSCF restart information will be dumped onto file mos


 Starting SCF iterations

          Overall gridpoints after grid construction =         85682

 ITERATION  ENERGY          1e-ENERGY        2e-ENERGY     RMS[dD(SAO)]   TOL
   1  -342.61444731734    -1094.7473844     431.62316786    0.000D+00 0.366D-13
                            Exc = -47.5116296581     Coul =  479.134797522    
                              N = 58.000107728    
                            current damping = 0.700
 
          max. resid. norm for Fia-block=  3.371D-01 for orbital      1a         
          max. resid. fock norm         =  9.942D+00 for orbital    669a         

 ITERATION  ENERGY          1e-ENERGY        2e-ENERGY     RMS[dD(SAO)]   TOL
   2  -343.84772827439    -1099.4073261     435.04982861    0.333D-02 0.366D-13
                            Exc = -47.8230034378     Coul =  482.872832050    
                              N = 58.000094442    
                            current damping = 0.650
 
          Norm of current diis error:  3.0257    
          max. resid. norm for Fia-block=  1.625D-01 for orbital      1a         
          max. resid. fock norm         =  3.175D-01 for orbital    378a         

 ITERATION  ENERGY          1e-ENERGY        2e-ENERGY     RMS[dD(SAO)]   TOL
   3  -344.03873340038    -1101.2569282     436.70842556    0.167D-02 0.366D-13
                            Exc = -48.1196367546     Coul =  484.828062313    
                              N = 58.000079741    
                            current damping = 0.550
 
          Norm of current diis error:  1.4551    
          max. resid. norm for Fia-block=  6.420D-02 for orbital      1a         
          max. resid. fock norm         =  6.837D-02 for orbital      1a         

 ITERATION  ENERGY          1e-ENERGY        2e-ENERGY     RMS[dD(SAO)]   TOL
   4  -344.09792564406    -1101.2146333     436.60693845    0.116D-02 0.366D-13
                            Exc = -48.1182058628     Coul =  484.725144309    
                              N = 58.000074745    
                            current damping = 0.600
 
          Norm of current diis error: 0.63991    
          max. resid. norm for Fia-block=  3.502D-02 for orbital      8a         
          max. resid. fock norm         =  7.847D-02 for orbital    704a         

 ITERATION  ENERGY          1e-ENERGY        2e-ENERGY     RMS[dD(SAO)]   TOL
   5  -344.10768962543    -1101.9339201     437.31646125    0.477D-03 0.366D-13
                            Exc = -48.2260795340     Coul =  485.542540783    
                              N = 58.000069029    
                            current damping = 0.650
 
          Norm of current diis error: 0.36677    
          max. resid. norm for Fia-block=  1.147D-02 for orbital     28a         
          max. resid. fock norm         =  1.278D-02 for orbital     30a         
          mo-orthogonalization: Cholesky decomposition

 ITERATION  ENERGY          1e-ENERGY        2e-ENERGY     RMS[dD(SAO)]   TOL
   6  -344.11167855628    -1101.9483431     437.32689527    0.316D-03 0.366D-13
                            Exc = -48.2296630828     Coul =  485.556558352    
                              N = 58.000068365    
                            current damping = 0.500
 
          Norm of current diis error: 0.10090    
          max. resid. norm for Fia-block=  4.634D-03 for orbital     27a         
          max. resid. fock norm         =  6.119D-03 for orbital    702a         

 ITERATION  ENERGY          1e-ENERGY        2e-ENERGY     RMS[dD(SAO)]   TOL
   7  -344.11200521793    -1101.8272037     437.20542920    0.167D-03 0.366D-13
                            Exc = -48.2177517877     Coul =  485.423180985    
                              N = 58.000067809    
                            current damping = 0.550
 
          Norm of current diis error: 0.52967E-01
          max. resid. norm for Fia-block=  1.805D-03 for orbital     14a         
          max. resid. fock norm         =  2.710D-03 for orbital    706a         

 ITERATION  ENERGY          1e-ENERGY        2e-ENERGY     RMS[dD(SAO)]   TOL
   8  -344.11207322225    -1101.8875926     437.26575018    0.378D-04 0.366D-13
                            Exc = -48.2250252899     Coul =  485.490775470    
                              N = 58.000067582    
                            current damping = 0.600
 
          Norm of current diis error: 0.12524E-01
          max. resid. norm for Fia-block=  6.977D-04 for orbital      8a         
          max. resid. fock norm         =  1.321D-03 for orbital    698a         

 ITERATION  ENERGY          1e-ENERGY        2e-ENERGY     RMS[dD(SAO)]   TOL
   9  -344.11207610797    -1101.9042582     437.28241282    0.119D-04 0.366D-13
                            Exc = -48.2275402233     Coul =  485.509953047    
                              N = 58.000067433    
                            current damping = 0.450
 
          Norm of current diis error: 0.90507E-02
          max. resid. norm for Fia-block=  3.035D-04 for orbital     28a         
          max. resid. fock norm         =  3.415D-04 for orbital     27a         

 ITERATION  ENERGY          1e-ENERGY        2e-ENERGY     RMS[dD(SAO)]   TOL
  10  -344.11207815106    -1101.8993692     437.27752176    0.102D-04 0.366D-13
                            Exc = -48.2269342751     Coul =  485.504456032    
                              N = 58.000067439    
                            current damping = 0.500
 
          Norm of current diis error: 0.35667E-02
          max. resid. norm for Fia-block=  1.611D-04 for orbital     27a         
          max. resid. fock norm         =  2.781D-04 for orbital    705a         
          mo-orthogonalization: Cholesky decomposition

 ITERATION  ENERGY          1e-ENERGY        2e-ENERGY     RMS[dD(SAO)]   TOL
  11  -344.11207838101    -1101.9001676     437.27832000    0.250D-05 0.366D-13
                            Exc = -48.2270607145     Coul =  485.505380712    
                              N = 58.000067418    
                            current damping = 0.550
 
          Norm of current diis error: 0.22886E-02
          max. resid. norm for Fia-block=  5.238D-05 for orbital     10a         
          max. resid. fock norm         =  8.236D-05 for orbital    690a         

 ITERATION  ENERGY          1e-ENERGY        2e-ENERGY     RMS[dD(SAO)]   TOL
  12  -344.11207848842    -1101.9007056     437.27885792    0.865D-06 0.366D-13
                            Exc = -48.2271052747     Coul =  485.505963191    
                              N = 58.000067417    
                            current damping = 0.400
 
          Norm of current diis error: 0.52490E-03
          max. resid. norm for Fia-block=  1.335D-05 for orbital     19a         
          max. resid. fock norm         =  2.482D-05 for orbital    725a         

 ITERATION  ENERGY          1e-ENERGY        2e-ENERGY     RMS[dD(SAO)]   TOL
  13  -344.11207849325    -1101.9007020     437.27885430    0.337D-06 0.366D-13
                            Exc = -48.2271231164     Coul =  485.505977414    
                              N = 58.000067416    
                            current damping = 0.450
 
          Norm of current diis error: 0.22150E-03
          max. resid. norm for Fia-block=  7.960D-06 for orbital     28a         
          max. resid. fock norm         =  1.385D-05 for orbital    722a         

 ITERATION  ENERGY          1e-ENERGY        2e-ENERGY     RMS[dD(SAO)]   TOL
  14  -344.11207849435    -1101.9006739     437.27882618    0.170D-06 0.366D-13
                            Exc = -48.2271146088     Coul =  485.505940788    
                              N = 58.000067415    
                            current damping = 0.300
 
          Norm of current diis error: 0.70718E-04
          max. resid. norm for Fia-block=  2.334D-06 for orbital     28a         
          max. resid. fock norm         =  4.294D-06 for orbital    706a         

 DENSITY CONVERGED !


 ITERATION  ENERGY          1e-ENERGY        2e-ENERGY     RMS[dD(SAO)]   TOL
  15  -344.11207849445    -1101.9007143     437.27886656    0.339D-07 0.366D-13
                            Exc = -48.2271208702     Coul =  485.505987435    
                              N = 58.000067415    
                            current damping = 0.350
 
          Norm of current diis error: 0.35461E-04
          max. resid. norm for Fia-block=  8.782D-07 for orbital     28a         
          max. resid. fock norm         =  1.209D-06 for orbital     30a         
          mo-orthogonalization: Cholesky decomposition

 DENSITY CONVERGED !


 ITERATION  ENERGY          1e-ENERGY        2e-ENERGY     RMS[dD(SAO)]   TOL
  16  -344.11207849448    -1101.9006916     437.27884389    0.196D-07 0.366D-13
                            Exc = -48.2271168200     Coul =  485.505960710    
                              N = 58.000067415    
                            current damping = 0.400
 
          Norm of current diis error: 0.93464E-05
          max. resid. norm for Fia-block=  2.496D-07 for orbital     29a         
          max. resid. fock norm         =  3.330D-07 for orbital     16a         

 ENERGY & DENSITY CONVERGED !

          Overall gridpoints after grid construction =        283875

 ITERATION  ENERGY          1e-ENERGY        2e-ENERGY     RMS[dD(SAO)]   TOL
  17  -344.11207733657    -1101.9006965     437.27884988    0.320D-08 0.366D-13
                            Exc = -48.2271168036     Coul =  485.505966680    
                              N = 57.999996689    
                            current damping = 0.450
 
          Norm of current diis error: 0.17149E-05
          max. resid. norm for Fia-block=  6.661D-08 for orbital     28a         
          max. resid. fock norm         =  7.752D-08 for orbital     27a         

 End of SCF iterations

   convergence criteria satisfied after    17 iterations


                  ------------------------------------------ 
                 |  total energy      =   -344.11207733657  |
                  ------------------------------------------ 
                 :  kinetic energy    =    342.75139748378  :
                 :  potential energy  =   -686.86347482035  :
                 :  virial theorem    =      1.99604582361  :
                 :  wavefunction norm =      1.00000000000  :
                  .......................................... 


 <geterg> : there is no data group $energy 


 <skperg> : $end is missing 


 orbitals $scfmo  will be written to file mos

    irrep                 25a         26a         27a         28a         29a   
 eigenvalues H         -0.31103    -0.30998    -0.22693    -0.20984    -0.18616
            eV          -8.4637     -8.4352     -6.1751     -5.7101     -5.0657
 occupation              2.0000      2.0000      2.0000      2.0000      2.0000 

    irrep                 30a         31a         32a         33a         34a   
 eigenvalues H         -0.01436    -0.00995     0.02015     0.02498     0.04701
            eV          -0.3907     -0.2707      0.5482      0.6797      1.2793
 
 
 
 
 ==============================================================================
                           electrostatic moments
 ==============================================================================

 reference point for electrostatic moments:    0.00000   0.00000   0.00000

 
              nuc           elec       ->  total
 ------------------------------------------------------------------------------
                          charge      
 ------------------------------------------------------------------------------
          58.000000     -58.000000       0.000000
 
 ------------------------------------------------------------------------------
                       dipole moment  
 ------------------------------------------------------------------------------
   x     221.267893    -220.391890       0.876003
   y      90.335659     -90.108328       0.227330
   z      32.911605     -32.116076       0.795529
 
   | dipole moment | =     1.2050 a.u. =     3.0627 debye 
 
 ------------------------------------------------------------------------------
                     quadrupole moment
 ------------------------------------------------------------------------------
  xx    1540.777121   -1563.159369     -22.382247
  yy     360.843893    -392.931532     -32.087639
  zz     147.620695    -181.376134     -33.755439
  xy     349.276417    -344.377649       4.898768
  xz     113.688076    -107.499281       6.188796
  yz     -10.469077      10.994075       0.524998
 
     1/3  trace=     -29.408442
     anisotropy=      17.346097
 
 ==============================================================================
 


    ------------------------------------------------------------------------
         total  cpu-time :  9 minutes and 35 seconds
         total wall-time :  1 minutes and 25 seconds
    ------------------------------------------------------------------------

   ****  ridft : all done  ****


    2018-04-24 21:12:36.210 

