
   OpenMP run-time library returned nthreads = 28
 operating system is UNIX !

 dscf (c-19-412) : TURBOMOLE V7.3 ( 22142 ) 4 Jul 2018 at 18:12:42
 Copyright (C) 2018 TURBOMOLE GmbH, Karlsruhe


    2019-03-26 14:59:27.824 



                             d s c f - program

                   idea & directorship : reinhart ahlrichs
                   program development : marco haeser
                                         michael baer
                           dft version : oliver treutler


                          quantum chemistry group
                          universitaet  karlsruhe
                                  germany




                          References             
                                                 
          TURBOMOLE:                             
              R. Ahlrichs, M. Baer, M. Haeser, H. Horn, and
              C. Koelmel
              Electronic structure calculations on workstation
              computers: the program system TURBOMOLE
              Chem. Phys. Lett. 162: 165 (1989)
          Density Functional:                              
              O. Treutler and R. Ahlrichs                      
              Efficient Molecular Numerical Integration Schemes
              J. Chem. Phys. 102: 346 (1995)                   
          Parallel Version:                                
              Performance of parallel TURBOMOLE for Density    
              Functional Calculations                          
              M. v. Arnim and R. Ahlrichs                      
              J. Comp. Chem. 19: 1746 (1998)                   
                                         




              +--------------------------------------------------+
              | Atomic coordinate, charge and isotop information |
              +--------------------------------------------------+

                    atomic coordinates            atom    charge  isotop
         39.18725082   24.74029453    4.00810913    c      6.000     0
         37.91546513   22.14948000    3.77378309    c      6.000     0
         35.03363278   22.26853275    4.05535228    c      6.000     0
         33.74294983   19.68527713    3.82102624    c      6.000     0
         30.85922775   19.81566823    4.07613927    c      6.000     0
         29.56287562   17.23808178    3.82858515    c      6.000     0
         26.67726382   17.37792152    4.05535228    c      6.000     0
         25.37335279   14.80600425    3.78890090    c      6.000     0
         22.48774098   14.95907207    3.99866050    c      6.000     0
         21.17249159   12.39093425    3.72653993    c      6.000     0
         18.28876951   12.55534043    3.93818926    c      6.000     0
         16.96218177    9.99287179    3.67551733    c      6.000     0
         14.08034942   10.16483687    3.90606392    c      6.000     0
         12.74809249    7.60425796    3.66417897    c      6.000     0
          9.86814987    7.77811276    3.92685090    c      6.000     0
          8.53400322    5.21564413    3.71142212    c      6.000     0
          5.65595032    5.38571948    4.00621940    c      6.000     0
          4.34070093    2.81380221    3.80590843    c      6.000     0
          2.28845835    3.00088510    4.00432968    h      1.000     0
         38.81875422   25.57933293    5.86570992    h      1.000     0
         41.23760367   24.59667535    3.76811391    h      1.000     0
         38.46915489   26.04798502    2.57191727    h      1.000     0
         38.38222749   21.31233133    1.93318983    h      1.000     0
         38.68647339   20.86635596    5.21186467    h      1.000     0
         34.56120124   23.10568143    5.89594553    h      1.000     0
         34.26073479   23.55165679    2.61538097    h      1.000     0
         34.22860944   18.84245927    1.98610217    h      1.000     0
         34.50073001   18.40782226    5.27044618    h      1.000     0
         30.37356813   20.65281691    5.91484280    h      1.000     0
         30.10333730   21.10257173    2.63238850    h      1.000     0
         30.06365305   16.39337420    1.99744052    h      1.000     0
         30.30175854   15.95495774    5.28556399    h      1.000     0
         26.17648639   18.21318047    5.89027636    h      1.000     0
         25.94216035   18.67049419    2.60593234    h      1.000     0
         25.88168912   13.96507612    1.95964600    h      1.000     0
         26.09711790   13.51532130    5.24776947    h      1.000     0
         21.97940465   15.79433102    5.83169485    h      1.000     0
         21.76586560   16.25353447    2.54546110    h      1.000     0
         21.67893820   11.55189585    1.89728504    h      1.000     0
         21.89247725   11.09647185    5.18351878    h      1.000     0
         17.78610236   13.39626856    5.76933388    h      1.000     0
         17.56878386   13.85169255    2.48310014    h      1.000     0
         17.45540029    9.14816421    1.84248298    h      1.000     0
         17.68594688    8.69651966    5.12871672    h      1.000     0
         13.59468980   11.01521363    5.73909827    h      1.000     0
         13.35280485   11.45740954    2.45286452    h      1.000     0
         13.21863430    6.75577093    1.82925490    h      1.000     0
         13.48697541    6.31168528    5.11359892    h      1.000     0
          9.40327724    8.63604843    5.76177498    h      1.000     0
          9.12359777    9.06312653    2.47743096    h      1.000     0
          8.98375804    4.35959819    1.87271860    h      1.000     0
          9.29178340    3.92874063    5.15517289    h      1.000     0
          5.21186467    6.24932432    5.84114348    h      1.000     0
          4.90005986    6.66506407    2.55868918    h      1.000     0
          4.72431533    1.92563093    1.97476381    h      1.000     0
          5.00966398    1.52500899    5.28367427    h      1.000     0
          9.39004915    8.90249981   -3.87960775    c      0.000     0
          8.09936621    6.31924419   -4.11393379    c      0.000     0
          5.21753385    6.43829693   -3.83236460    c      0.000     0
          3.94574817    3.84748241   -4.06669064    c      0.000     0
         12.27188151    8.77210871   -4.13661050    c      0.000     0
         13.57012336   11.35158488   -3.88716666    c      0.000     0
         16.45384544   11.20985542   -4.11393379    c      0.000     0
         17.75964620   13.78177269   -3.84748241    c      0.000     0
         20.64525800   13.62870487   -4.05724201    c      0.000     0
         21.95861766   16.19684268   -3.78512144    c      0.000     0
         24.84422947   16.03243651   -3.99677077    c      0.000     0
         26.16892749   18.59679487   -3.73409884    c      0.000     0
         29.05075984   18.42294007   -3.96464543    c      0.000     0
         30.38301676   20.98540871   -3.72276048    c      0.000     0
         33.26295939   20.80966418   -3.98732214    c      0.000     0
         34.59710604   23.37213281   -3.77000364    c      0.000     0
         37.47515894   23.20205746   -4.06480091    c      0.000     0
         38.79040833   25.77397473   -3.86637967    c      0.000     0
         40.84265091   25.58878157   -4.06480091    h      0.000     0
         38.12144528   27.06276795   -5.34414550    h      0.000     0
         37.91924458   22.33845262   -5.89972499    h      0.000     0
         38.23104939   21.92271287   -2.61727069    h      0.000     0
         34.14735122   24.23006848   -1.93318983    h      0.000     0
         33.83932586   24.65903631   -5.21564413    h      0.000     0
         33.72783202   19.95172851   -5.82035649    h      0.000     0
         34.00751149   19.52465040   -2.53601247    h      0.000     0
         29.91247496   21.83389574   -1.88783641    h      0.000     0
         29.64413385   22.27609165   -5.17218043    h      0.000     0
         29.53641946   17.57256331   -5.79767978    h      0.000     0
         29.78019413   17.13225712   -2.51144603    h      0.000     0
         25.67759869   19.43961273   -1.90106449    h      0.000     0
         25.44516238   19.89125727   -5.18729823    h      0.000     0
         25.34500689   15.19150838   -5.82791539    h      0.000     0
         25.56232540   14.73797411   -2.54168165    h      0.000     0
         21.45217106   17.03777081   -1.95586655    h      0.000     0
         21.24052173   17.49130509   -5.24210029    h      0.000     0
         21.15359433   12.79344592   -5.89027636    h      0.000     0
         21.36713338   12.33424247   -2.60404261    h      0.000     0
         17.24942014   14.62270082   -2.02011724    h      0.000     0
         17.03588109   15.07245564   -5.30635098    h      0.000     0
         16.95462286   10.37459647   -5.95074759    h      0.000     0
         17.18894890    9.91728275   -2.66451385    h      0.000     0
         13.06934594   12.19440274   -2.05791176    h      0.000     0
         12.82935072   12.63281920   -5.34414550    h      0.000     0
         12.75754112    7.93684976   -5.97531403    h      0.000     0
         13.02777196    7.48520521   -2.69285974    h      0.000     0
          8.90438954    9.74531767   -2.04468368    h      0.000     0
          8.57179774    5.48209551   -5.95641677    h      0.000     0
          8.87037447    5.03612014   -2.67585220    h      0.000     0
          4.75077150    7.27544561   -1.99177134    h      0.000     0
          4.44652559    7.72142098   -5.27044618    h      0.000     0
          1.89539531    3.99110159   -3.82858515    h      0.000     0
          4.31424476    3.00844400   -5.92618115    h      0.000     0
          4.66384410    2.53979192   -2.63238850    h      0.000     0
          8.63037925   10.17995468   -5.33091742    h      0.000     0
         38.40679392   26.66214601   -2.03334532    h      0.000     0
 
       center of nuclear mass  :   21.56596376   14.29404844   -0.02948066
       center of nuclear charge:   21.80432023   13.71994240    3.87670844

              +--------------------------------------------------+
              |               basis set information              |
              +--------------------------------------------------+

              we will work with the 1s 3p 5d 7f 9g ... basis set
              ...i.e. with spherical basis functions...

   type   atoms  prim   cont   basis
   ---------------------------------------------------------------------------
    c       36     77     55   cc-pVQZ   [5s4p3d2f1g|21s6p3d2f1g]
    h       76     32     30   cc-pVQZ   [4s3p2d1f|6s3p2d1f]
   ---------------------------------------------------------------------------
   total:  112   5204   4260
   ---------------------------------------------------------------------------

   total number of primitive shells          :   45
   total number of contracted shells         : 1300
   total number of cartesian basis functions : 5180
   total number of SCF-basis functions       : 4260


 integral neglect threshold       :  0.64E-14
 integral storage threshold THIZE :  0.10E-04
 integral storage threshold THIME :         5


 DENSITY CONVERGENCE CHECK SWITCHED ON !
 SCF CONVERGENCE IF RMS(delta[D]) <     0.1000000000E-06


 symmetry group of the molecule :   c1 

 the group has the following generators :
   c1(z)

    1 symmetry operations found

 there are 1 real representations :   a   

 maximum number of shells which are related by symmetry :  1


    mo occupation :
   irrep   mo's   occupied
    a     4260       73
 
 number of basis functions   :                   4260
 number of occupied orbitals :                     73
 

 automatic virtual orbital shift switched on 
      shift if e(lumo)-e(homo) < 0.10000000    


          ------------------------
          nuclear repulsion energy  :   1177.19691479    
          ------------------------


         -----------------
         -S,T+V- integrals
         -----------------

 1e-integrals will be neglected if expon. factor < 0.645166E-15
 
   Difference densities algorithm switched on.
   The maximal number of linear combinations of
   difference densities is                    20 .

 DIIS switched on: error vector is FDS-SDF
 Max. Iterations for DIIS is     :   5
 DIIS matrix (see manual) 
    Scaling factor of diagonals  :  1.200
    threshold for scaling factor :  0.000

 scf convergence criterion : increment of total energy < .1000000D-08
                  and increment of one-electron energy < .1000000D-05

  MOs are in ASCII format !


 reading orbital data $scfmo  from file mos
 orbital characterization : expanded
 mo provided and orthogonalized by Cholesky decomposition

 DSCF restart information will be dumped onto file mos

 
                                              current damping :  0.700
 ITERATION  ENERGY          1e-ENERGY        2e-ENERGY     RMS[dD(SAO)]   TOL
   1  -701.68216614211    -3260.7614972     1381.8824163    0.000D+00 0.644D-14
          max. resid. norm for Fia-block=  2.705D-01 for orbital     20a         
          max. resid. fock norm         =  1.440D+01 for orbital   4055a         
          Delta Eig. =  1081.5959278280 eV 
 
                                              current damping :  0.650
 ITERATION  ENERGY          1e-ENERGY        2e-ENERGY     RMS[dD(SAO)]   TOL
   2  -703.38227178690    -3275.7622420     1395.1830554    0.768D-03 0.441D-14
          Norm of current diis error:  5.8701    
          max. resid. norm for Fia-block=  1.351D-01 for orbital     22a         
          max. resid. fock norm         =  1.430D-01 for orbital     21a         
          Delta Eig. =   458.8739877610 eV 
 
                                              current damping :  0.550
 ITERATION  ENERGY          1e-ENERGY        2e-ENERGY     RMS[dD(SAO)]   TOL
   3  -703.88248158706    -3281.9560590     1400.8766626    0.336D-03 0.330D-14
          Norm of current diis error:  2.7839    
          max. resid. norm for Fia-block=  6.755D-02 for orbital     32a         
          max. resid. fock norm         =  6.843D-02 for orbital     21a         
          Delta Eig. =   192.4276366959 eV 
 
                                              current damping :  0.450
 ITERATION  ENERGY          1e-ENERGY        2e-ENERGY     RMS[dD(SAO)]   TOL
   4  -704.02740338178    -3285.1595737     1403.9352555    0.172D-03 0.274D-14
          Norm of current diis error:  1.1669    
          max. resid. norm for Fia-block=  3.087D-02 for orbital     32a         
          max. resid. fock norm         =  3.092D-02 for orbital     32a         
          Delta Eig. =    72.9889396310 eV 
 
                                              current damping :  0.350
 ITERATION  ENERGY          1e-ENERGY        2e-ENERGY     RMS[dD(SAO)]   TOL
   5  -704.05912675280    -3286.6116970     1405.3556555    0.778D-04 0.242D-14
          Norm of current diis error: 0.42976    
          max. resid. norm for Fia-block=  1.201D-02 for orbital     32a         
          max. resid. fock norm         =  1.202D-02 for orbital     32a         
 mo-orthogonalization: Cholesky decomposition
          Delta Eig. =    24.3302312268 eV 
 
                                              current damping :  0.250
 ITERATION  ENERGY          1e-ENERGY        2e-ENERGY     RMS[dD(SAO)]   TOL
   6  -704.06435560144    -3287.1510121     1405.8897417    0.313D-04 0.222D-14
          Norm of current diis error: 0.13900    
          max. resid. norm for Fia-block=  3.915D-03 for orbital     32a         
          max. resid. fock norm         =  3.917D-03 for orbital     32a         
          Delta Eig. =     6.8131582073 eV 
 
                                              current damping :  0.100
 ITERATION  ENERGY          1e-ENERGY        2e-ENERGY     RMS[dD(SAO)]   TOL
   7  -704.06500772426    -3287.3153195     1406.0533970    0.113D-04 0.207D-14
          Norm of current diis error: 0.39428E-01
          max. resid. norm for Fia-block=  1.035D-03 for orbital     32a         
          max. resid. fock norm         =  1.036D-03 for orbital     32a         
          Delta Eig. =     1.5489685980 eV 
 
                                              current damping :  0.050
 ITERATION  ENERGY          1e-ENERGY        2e-ENERGY     RMS[dD(SAO)]   TOL
   8  -704.06506965930    -3287.3569326     1406.0949481    0.402D-05 0.195D-14
          Norm of current diis error: 0.84703E-02
          max. resid. norm for Fia-block=  2.659D-04 for orbital     71a         
          max. resid. fock norm         =  2.683D-04 for orbital     71a         
          Delta Eig. =     0.1478468902 eV 
 
                                              current damping :  0.050
 ITERATION  ENERGY          1e-ENERGY        2e-ENERGY     RMS[dD(SAO)]   TOL
   9  -704.06507282268    -3287.3607719     1406.0987843    0.114D-05 0.187D-14
          Norm of current diis error: 0.17982E-02
          max. resid. norm for Fia-block=  6.980D-05 for orbital     71a         
          max. resid. fock norm         =  7.027D-05 for orbital     71a         
          Delta Eig. =     0.0071756406 eV 
 
                                              current damping :  0.100
 ITERATION  ENERGY          1e-ENERGY        2e-ENERGY     RMS[dD(SAO)]   TOL
  10  -704.06507297235    -3287.3605873     1406.0985995    0.303D-06 0.181D-14
          Norm of current diis error: 0.36640E-03
          max. resid. norm for Fia-block=  1.526D-05 for orbital     71a         
          max. resid. fock norm         =  1.529D-05 for orbital     71a         
 mo-orthogonalization: Cholesky decomposition
          Delta Eig. =     0.0003711392 eV 

 DENSITY CONVERGED !

 
                                              current damping :  0.050
 ITERATION  ENERGY          1e-ENERGY        2e-ENERGY     RMS[dD(SAO)]   TOL
  11  -704.06507297874    -3287.3604034     1406.0984156    0.667D-07 0.178D-14
          Norm of current diis error: 0.88562E-04
          max. resid. norm for Fia-block=  3.571D-06 for orbital     62a         
          max. resid. fock norm         =  3.678D-06 for orbital     62a         
          Delta Eig. =     0.0000794348 eV 

 DENSITY CONVERGED !

 
                                              current damping :  0.050
 ITERATION  ENERGY          1e-ENERGY        2e-ENERGY     RMS[dD(SAO)]   TOL
  12  -704.06507297922    -3287.3603808     1406.0983931    0.172D-07 0.175D-14
          Norm of current diis error: 0.21039E-04
          max. resid. norm for Fia-block=  1.054D-06 for orbital     72a         
          max. resid. fock norm         =  1.082D-06 for orbital     72a         
          Delta Eig. =     0.0000174945 eV 

 ENERGY & DENSITY CONVERGED !

 
                                              current damping :  0.050
 ITERATION  ENERGY          1e-ENERGY        2e-ENERGY     RMS[dD(SAO)]   TOL
  13  -704.06507297920    -3287.3603732     1406.0983854    0.344D-08 0.184D-14
          max. resid. norm for Fia-block=  2.710D-07 for orbital     55a         
          max. resid. fock norm         =  3.093D-07 for orbital     55a         

 convergence criteria satisfied after    13 iterations


                  ------------------------------------------ 
                 |  total energy      =   -704.06507297920  |
                  ------------------------------------------ 
                 :  kinetic energy    =    703.12626083695  :
                 :  potential energy  =  -1407.19133381615  :
                 :  virial theorem    =      1.99866658328  :
                 :  wavefunction norm =      1.00000000000  :
                  .......................................... 


 <geterg> : there is no data group $energy 


 orbitals $scfmo  will be written to file mos

    irrep                 69a         70a         71a         72a         73a   
 eigenvalues H         -0.45574    -0.45342    -0.45164    -0.43163    -0.40881
            eV         -12.4015    -12.3382    -12.2898    -11.7453    -11.1243
 occupation              2.0000      2.0000      2.0000      2.0000      2.0000 

    irrep                 74a         75a         76a         77a         78a   
 eigenvalues H          0.04109     0.04608     0.05444     0.06605     0.08078
            eV           1.1180      1.2539      1.4814      1.7974      2.1982
 
 
 
 
 ==============================================================================
                           electrostatic moments
 ==============================================================================

 reference point for electrostatic moments:    0.00000   0.00000   0.00000

 
              nuc           elec       ->  total
 ------------------------------------------------------------------------------
                          charge      
 ------------------------------------------------------------------------------
         146.000000    -146.000000      -0.000000
 
 ------------------------------------------------------------------------------
                       dipole moment  
 ------------------------------------------------------------------------------
   x    3183.430754   -3183.430268       0.000485
   y    2003.111591   -2003.111116       0.000475
   z     565.999433    -566.000648      -0.001215
 
   | dipole moment | =     0.0014 a.u. =     0.0035 debye 
 
 ------------------------------------------------------------------------------
                     quadrupole moment
 ------------------------------------------------------------------------------
  xx   87131.403370  -87225.588963     -94.185592
  yy   33697.710824  -33792.235750     -94.524927
  zz    2297.055801   -2386.399329     -89.343528
  xy   53924.831942  -53926.338714      -1.506772
  xz   12404.020414  -12403.836698       0.183716
  yz    7822.232217   -7822.826076      -0.593858
 
     1/3  trace=     -92.684682
     anisotropy=       5.759701
 
 ==============================================================================
 


    ------------------------------------------------------------------------
         total  cpu-time :   5 days  0 hours 25 minutes and 46 seconds
         total wall-time :  4 hours 24 minutes and 27 seconds
    ------------------------------------------------------------------------

   ****  dscf : all done  ****


    2019-03-26 19:23:54.581 

