STARTING dscf ON 32 PROCESSORS!
RUNNING PROGRAM /sopt/TURBOMOLE/7.2.1-official/bin/em64t-unknown-linux-gnu_mpi/dscf_mpi.
PLEASE WAIT UNTIL dscf HAS FINISHED.
Look for the output in slave1.output.
MACHINEFILE is ./hostlist
 this is node-proc. number 1 running on node c-12-11.gp.local
 the total number of node-proc. spawned is  33
  parallel platform: MPP or cluster with fast interconnect

 dscf (c-12-11.gp.local) : TURBOMOLE V7.2 ( 21471 ) 7 Nov 2017 at 16:15:16
 Copyright (C) 2017 TURBOMOLE GmbH, Karlsruhe


    2018-03-01 00:17:48.081 


 SCF run will be profiled !



                             d s c f - program

                   idea & directorship : reinhart ahlrichs
                   program development : marco haeser
                                         michael baer
                           dft version : oliver treutler
           parallelized version : malte v. arnim, gina corongiu, GMD 


                          quantum chemistry group
                          universitaet  karlsruhe
                                  germany




                          References             
                                                 
          TURBOMOLE:                             
              R. Ahlrichs, M. Baer, M. Haeser, H. Horn, and
              C. Koelmel
              Electronic structure calculations on workstation
              computers: the program system TURBOMOLE
              Chem. Phys. Lett. 162: 165 (1989)
          Density Functional:                              
              O. Treutler and R. Ahlrichs                      
              Efficient Molecular Numerical Integration Schemes
              J. Chem. Phys. 102: 346 (1995)                   
          Parallel Version:                                
              Performance of parallel TURBOMOLE for Density    
              Functional Calculations                          
              M. v. Arnim and R. Ahlrichs                      
              J. Comp. Chem. 19: 1746 (1998)                   
                                         




              +--------------------------------------------------+
              | Atomic coordinate, charge and isotop information |
              +--------------------------------------------------+

                    atomic coordinates            atom    charge  isotop
          5.32142290   -1.49372177   -2.39722653    c      6.000     0
          6.18149683   -3.52821720   -0.97726786    c      6.000     0
          4.81930506   -5.71608785   -1.77422942    c      6.000     0
          3.17665962   -4.98780027   -3.67861494    c      6.000     0
          6.00345721    1.30260846   -2.37858325    c      6.000     0
          8.83830198    1.58711064   -3.09296632    c      6.000     0
          4.36983530    2.69425785   -4.28360941    c      6.000     0
          4.51136757    2.88665519   -6.89229829    c      6.000     0
          1.35477607   -6.44591873   -5.33434357    c      6.000     0
          0.75664712   -9.02315049   -4.09335985    c      6.000     0
          2.55405971   -6.91871665   -7.95658304    c      6.000     0
         -1.05281988   -4.93477687   -5.64537026    c      6.000     0
         -2.51578876   -4.33414862   -7.73307762    c      6.000     0
          3.51409272   -2.42702291   -4.01051164    n      7.000     0
          2.16500150    3.87878076   -3.56656561    n      7.000     0
         -2.27452842   -3.93794109   -3.57303936    n      7.000     0
         -3.31864978    4.92565382   -3.65593424    c      6.000     0
         -5.01003136    5.65701084   -1.79551991    c      6.000     0
         -6.37412087    3.46585696   -1.01250522    c      6.000     0
         -5.46898078    1.42701934   -2.39734330    c      6.000     0
         -1.48277948    6.39192484   -5.28981797    c      6.000     0
         -0.86471335    8.94690103   -4.01224789    c      6.000     0
         -2.67913557    6.91170335   -7.90455056    c      6.000     0
          0.91353144    4.86912210   -5.62517031    c      6.000     0
          2.33853419    4.24796427   -7.73277080    c      6.000     0
         -6.10844765   -1.37806565   -2.33491392    c      6.000     0
         -8.95398743   -1.71653731   -2.97554423    c      6.000     0
         -4.49727741   -2.76894315   -4.25990110    c      6.000     0
         -4.68093729   -2.97809522   -6.86470000    c      6.000     0
         -3.63064940    2.36006079   -3.97597141    n      7.000     0
          5.56133946    2.44402997    0.22607004    c      6.000     0
          5.75256475    4.96120125    1.04045827    c      6.000     0
          4.83634003    1.02402277    2.24522556    n      7.000     0
          5.11430209    5.01412252    3.64842922    c      6.000     0
          4.55386919    2.52596158    4.36468000    c      6.000     0
         -5.58274129   -2.47441138    0.27473544    c      6.000     0
         -5.69749810   -4.98162699    1.13354716    c      6.000     0
         -4.83016462   -1.00766325    2.24946625    n      7.000     0
         -4.98144678   -4.97892253    3.72205654    c      6.000     0
         -4.45499143   -2.46819642    4.38309770    c      6.000     0
          3.92503651    1.47003517    6.80650574    c      6.000     0
         -3.77460100   -1.35667216    6.78626026    c      6.000     0
          3.56882170    2.69463315    8.74958381    o      8.000     0
         -3.34811309   -2.53474725    8.74354167    o      8.000     0
          3.80808114   -1.10193538    6.71184655    o      8.000     0
         -3.69677445    1.21454091    6.63772245    o      8.000     0
         -3.14144230    2.57781718    8.97511910    c      6.000     0
          3.29490672   -2.41509685    9.08821202    c      6.000     0
         -4.14751747    5.24042190    8.66765313    c      6.000     0
          4.34516090   -5.06730303    8.84363917    c      6.000     0
         -4.75314708   -7.26855878    5.37779264    c      6.000     0
          4.99879038    7.33201821    5.27664005    c      6.000     0
          2.33005221    8.49398270    5.34367018    c      6.000     0
         -2.05685510   -8.36793721    5.35437786    c      6.000     0
         -6.47597054   -7.26846471   -0.35784500    c      6.000     0
          6.53203339    7.20744163   -0.51073571    c      6.000     0
          5.02992401   -7.60788375   -1.03214550    h      1.000     0
          9.40273744    3.57293962   -3.04943774    h      1.000     0
          9.16265250    0.83436115   -4.98983497    h      1.000     0
          9.99936736    0.52618303   -1.75406766    h      1.000     0
          5.99423203    2.11765506   -8.06966898    h      1.000     0
         -0.55992673  -10.07856629   -5.28667223    h      1.000     0
         -0.09911665   -8.77273599   -2.22743066    h      1.000     0
          2.48645033  -10.13637891   -3.87359047    h      1.000     0
          3.01733069   -5.13519977   -8.89555867    h      1.000     0
          1.25414109   -7.98069537   -9.16676244    h      1.000     0
          4.29086323   -8.01569291   -7.73067869    h      1.000     0
         -2.09472478   -4.82874231   -9.67008562    h      1.000     0
          1.61511412    4.08106793   -1.74444367    h      1.000     0
         -1.69095133   -4.12543994   -1.75952673    h      1.000     0
         -5.25261532    7.55359087   -1.07573190    h      1.000     0
         -7.85096006    3.39572001    0.40049615    h      1.000     0
          0.46014571   10.00924379   -5.19025409    h      1.000     0
         -0.01210704    8.66396741   -2.14948288    h      1.000     0
         -2.58580084   10.07014318   -3.77683587    h      1.000     0
         -3.15686131    5.14512604   -8.86789504    h      1.000     0
         -1.37189298    7.98137892   -9.10002545    h      1.000     0
         -4.40756949    8.01795576   -7.66100178    h      1.000     0
          1.88797673    4.73317438   -9.66540905    h      1.000     0
         -9.33545405   -1.00187307   -4.87641406    h      1.000     0
        -10.10035648   -0.65154860   -1.62709814    h      1.000     0
         -9.48570729   -3.70970462   -2.88460646    h      1.000     0
         -6.18534622   -2.22077474   -8.02226342    h      1.000     0
         -2.69156542    1.28178917   -5.25120352    h      1.000     0
          4.54559130   -0.87015537    2.17860565    h      1.000     0
         -4.59417275    0.89277562    2.14662463    h      1.000     0
         -1.09386929    2.55245898    9.25248285    h      1.000     0
         -4.04465851    1.57781043   10.53855845    h      1.000     0
          1.24865762   -2.41733775    9.37612268    h      1.000     0
          4.19128978   -1.35878028   10.61782359    h      1.000     0
         -3.30310531    6.17039010    7.02550635    h      1.000     0
         -3.67581444    6.34153791   10.35505128    h      1.000     0
         -6.20259105    5.23127774    8.44081774    h      1.000     0
          3.50414732   -6.05655691    7.23475137    h      1.000     0
          3.90556204   -6.12999922   10.56411216    h      1.000     0
          6.39796923   -5.02903086    8.59977780    h      1.000     0
         -6.08908817   -8.71302484    4.73056023    h      1.000     0
         -5.25867165   -6.77407479    7.31973199    h      1.000     0
          6.34054403    8.73585773    4.55627766    h      1.000     0
          5.56939668    6.85406329    7.20478533    h      1.000     0
          1.70300996    9.02137146    3.44258983    h      1.000     0
          2.29572604   10.18878093    6.53197378    h      1.000     0
          0.98065050    7.12858916    6.10887129    h      1.000     0
         -1.49710044   -8.91733278    3.43859980    h      1.000     0
         -1.93226849  -10.03790943    6.57141370    h      1.000     0
         -0.70935591   -6.95654872    6.03514015    h      1.000     0
         -6.41821272   -6.89922275   -2.38909389    h      1.000     0
         -8.40414956   -7.86029781    0.12402608    h      1.000     0
         -5.22655595   -8.87213380    0.02873439    h      1.000     0
          6.38295428    6.81474700   -2.53306541    h      1.000     0
          8.49303784    7.75308219   -0.11426401    h      1.000     0
          5.34137740    8.84816109   -0.09594624    h      1.000     0
          7.63409471   -3.46134981    0.46074116    h      1.000     0
          2.60994926   -1.34838802   -5.31089312    h      1.000     0
 
       center of nuclear mass  :   -0.00483990   -0.00070975    0.08420315
       center of nuclear charge:   -0.00398895   -0.00049971    0.08294131

              +--------------------------------------------------+
              |               basis set information              |
              +--------------------------------------------------+

              we will work with the 1s 3p 5d 7f 9g ... basis set
              ...i.e. with spherical basis functions...

   type   atoms  prim   cont   basis
   ---------------------------------------------------------------------------
    c       46     77     57   def2-QZVP   [7s4p3d2f1g|15s8p3d2f1g]
    n        6     77     57   def2-QZVP   [7s4p3d2f1g|15s8p3d2f1g]
    o        4     77     57   def2-QZVP   [7s4p3d2f1g|15s8p3d2f1g]
    h       58     33     30   def2-QZVP   [4s3p2d1f|7s3p2d1f]
   ---------------------------------------------------------------------------
   total:  114   6226   4932
   ---------------------------------------------------------------------------

   total number of primitive shells          :  100
   total number of contracted shells         : 1532
   total number of cartesian basis functions : 6062
   total number of SCF-basis functions       : 4932


 integral neglect threshold       :  0.55E-12
 integral storage threshold THIZE :  0.10E-04
 integral storage threshold THIME :         5


 DENSITY CONVERGENCE CHECK SWITCHED ON !
 SCF CONVERGENCE IF RMS(delta[D]) <     0.1000000000E-06


 symmetry group of the molecule :   c1 

 the group has the following generators :
   c1(z)

    1 symmetry operations found

 there are 1 real representations :   a   

 maximum number of shells which are related by symmetry :  1


    mo occupation :
   irrep   mo's   occupied
    a     4932      204
 
 number of basis functions   :                   4932
 number of occupied orbitals :                    204
 

 automatic virtual orbital shift switched on 
      shift if e(lumo)-e(homo) < 0.10000000    


 keyword $2e-ints_shell_statistics missing in file <control>

 ! One task per shell generated
  No pre-computed optimal task distribution found
  ... using automatic task generation

          ------------------------
          nuclear repulsion energy  :   8799.45706603    
          ------------------------


         -----------------
         -S,T+V- integrals
         -----------------

 1e-integrals will be neglected if expon. factor < 0.551297E-13
 
   Difference densities algorithm switched on.
   The maximal number of linear combinations of
   difference densities is                    20 .

 DIIS switched on: error vector is FDS-SDF
 Max. Iterations for DIIS is     :   5
 DIIS matrix (see manual) 
    Scaling factor of diagonals  :  1.200
    threshold for scaling factor :  0.000

 scf convergence criterion : increment of total energy < .1000000D-06
                  and increment of one-electron energy < .1000000D-03

  MOs are in ASCII format !


 reading orbital data $scfmo  from file mos
 orbital characterization : expanded
 mo provided and orthogonalized by Cholesky decomposition

 DSCF restart information will be dumped onto file mos

 
                                              current damping :  0.300
 ITERATION  ENERGY          1e-ENERGY        2e-ENERGY     RMS[dD(SAO)]   TOL
   1  -2394.2344184663    -20723.896084     9530.2045999    0.000D+00 0.550D-12
          max. resid. norm for Fia-block=  9.025D-01 for orbital     59a         
          max. resid. fock norm         =  4.667D+01 for orbital   4019a         
          Delta Eig. =  5340.3350615773 eV 
 
                                              current damping :  0.250
 ITERATION  ENERGY          1e-ENERGY        2e-ENERGY     RMS[dD(SAO)]   TOL
   2  -2401.7265209089    -20798.764084     9597.5804968    0.957D-02 0.549D-12
          Norm of current diis error:  7.2782    
          max. resid. norm for Fia-block=  1.354D-01 for orbital      3a         
          max. resid. fock norm         =  3.622D-01 for orbital   4809a         
          Delta Eig. =  1267.7974262789 eV 
 
                                              current damping :  0.150
 ITERATION  ENERGY          1e-ENERGY        2e-ENERGY     RMS[dD(SAO)]   TOL
   3  -2402.6282844718    -20801.822696     9599.7373452    0.175D-02 0.350D-12
          Norm of current diis error:  2.5476    
          max. resid. norm for Fia-block=  4.714D-02 for orbital    191a         
          max. resid. fock norm         =  6.600D-02 for orbital   4810a         
          Delta Eig. =   282.6380999206 eV 
 
                                              current damping :  0.100
 ITERATION  ENERGY          1e-ENERGY        2e-ENERGY     RMS[dD(SAO)]   TOL
   4  -2402.7931488141    -20810.329836     9608.0796215    0.455D-03 0.277D-12
          Norm of current diis error: 0.79076    
          max. resid. norm for Fia-block=  2.318D-02 for orbital     66a         
          max. resid. fock norm         =  5.439D-02 for orbital   4931a         
          Delta Eig. =    36.1293270449 eV 
 
                                              current damping :  0.150
 ITERATION  ENERGY          1e-ENERGY        2e-ENERGY     RMS[dD(SAO)]   TOL
   5  -2402.8119722914    -20808.620043     9606.3510042    0.130D-03 0.248D-12
          Norm of current diis error: 0.30225    
          max. resid. norm for Fia-block=  6.426D-03 for orbital    203a         
          max. resid. fock norm         =  1.915D-02 for orbital   4930a         
 mo-orthogonalization: Cholesky decomposition
          Delta Eig. =     3.6967697841 eV 
 
                                              current damping :  0.200
 ITERATION  ENERGY          1e-ENERGY        2e-ENERGY     RMS[dD(SAO)]   TOL
   6  -2402.8150973514    -20809.896095     9607.6239318    0.387D-04 0.233D-12
          Norm of current diis error: 0.11051    
          max. resid. norm for Fia-block=  2.686D-03 for orbital    201a         
          max. resid. fock norm         =  4.442D-03 for orbital   4932a         
          Delta Eig. =     0.6348800862 eV 
 
                                              current damping :  0.250
 ITERATION  ENERGY          1e-ENERGY        2e-ENERGY     RMS[dD(SAO)]   TOL
   7  -2402.8156547955    -20809.566343     9607.2936221    0.186D-04 0.220D-12
          Norm of current diis error: 0.48578E-01
          max. resid. norm for Fia-block=  1.764D-03 for orbital    201a         
          max. resid. fock norm         =  2.016D-03 for orbital   4765a         
          Delta Eig. =     0.1222326120 eV 
 
                                              current damping :  0.300
 ITERATION  ENERGY          1e-ENERGY        2e-ENERGY     RMS[dD(SAO)]   TOL
   8  -2402.8157984142    -20809.677504     9607.4046399    0.816D-05 0.210D-12
          Norm of current diis error: 0.22410E-01
          max. resid. norm for Fia-block=  1.064D-03 for orbital    201a         
          max. resid. fock norm         =  1.116D-03 for orbital    201a         
          Delta Eig. =     0.0287277726 eV 
 
                                              current damping :  0.350
 ITERATION  ENERGY          1e-ENERGY        2e-ENERGY     RMS[dD(SAO)]   TOL
   9  -2402.8158374953    -20809.655969     9607.3830654    0.382D-05 0.200D-12
          Norm of current diis error: 0.11176E-01
          max. resid. norm for Fia-block=  7.274D-04 for orbital    201a         
          max. resid. fock norm         =  7.317D-04 for orbital    201a         
          Delta Eig. =     0.0129508354 eV 
 
                                              current damping :  0.400
 ITERATION  ENERGY          1e-ENERGY        2e-ENERGY     RMS[dD(SAO)]   TOL
  10  -2402.8158489895    -20809.659861     9607.3869457    0.165D-05 0.191D-12
          Norm of current diis error: 0.67633E-02
          max. resid. norm for Fia-block=  4.312D-04 for orbital    201a         
          max. resid. fock norm         =  4.428D-04 for orbital    201a         
 mo-orthogonalization: Cholesky decomposition
          Delta Eig. =     0.0107711323 eV 
 
                                              current damping :  0.450
 ITERATION  ENERGY          1e-ENERGY        2e-ENERGY     RMS[dD(SAO)]   TOL
  11  -2402.8158531171    -20809.657460     9607.3845409    0.995D-06 0.182D-12
          Norm of current diis error: 0.35219E-02
          max. resid. norm for Fia-block=  2.933D-04 for orbital    201a         
          max. resid. fock norm         =  2.955D-04 for orbital    201a         
          Delta Eig. =     0.0029767179 eV 
 
                                              current damping :  0.500
 ITERATION  ENERGY          1e-ENERGY        2e-ENERGY     RMS[dD(SAO)]   TOL
  12  -2402.8158544441    -20809.659993     9607.3870727    0.558D-06 0.174D-12
          Norm of current diis error: 0.20455E-02
          max. resid. norm for Fia-block=  1.743D-04 for orbital    201a         
          max. resid. fock norm         =  1.763D-04 for orbital    201a         
          Delta Eig. =     0.0029348942 eV 
 
                                              current damping :  0.550
 ITERATION  ENERGY          1e-ENERGY        2e-ENERGY     RMS[dD(SAO)]   TOL
  13  -2402.8158548759    -20809.657280     9607.3843596    0.352D-06 0.167D-12
          Norm of current diis error: 0.10312E-02
          max. resid. norm for Fia-block=  9.434D-05 for orbital    201a         
          max. resid. fock norm         =  9.483D-05 for orbital    201a         
          Delta Eig. =     0.0012052889 eV 
 
                                              current damping :  0.600
 ITERATION  ENERGY          1e-ENERGY        2e-ENERGY     RMS[dD(SAO)]   TOL
  14  -2402.8158549797    -20809.658602     9607.3856806    0.185D-06 0.162D-12
          Norm of current diis error: 0.54372E-03
          max. resid. norm for Fia-block=  4.931D-05 for orbital    201a         
          max. resid. fock norm         =  4.972D-05 for orbital    201a         
          Delta Eig. =     0.0005865493 eV 

 DENSITY CONVERGED !

 
                                              current damping :  0.650
 ITERATION  ENERGY          1e-ENERGY        2e-ENERGY     RMS[dD(SAO)]   TOL
  15  -2402.8158549950    -20809.657969     9607.3850479    0.994D-07 0.157D-12
          Norm of current diis error: 0.27701E-03
          max. resid. norm for Fia-block=  2.469D-05 for orbital    197a         
          max. resid. fock norm         =  2.483D-05 for orbital    197a         
 mo-orthogonalization: Cholesky decomposition
          Delta Eig. =     0.0002475177 eV 

 ENERGY & DENSITY CONVERGED !

 
                                              current damping :  0.700
 ITERATION  ENERGY          1e-ENERGY        2e-ENERGY     RMS[dD(SAO)]   TOL
  16  -2402.8158549972    -20809.658081     9607.3851597    0.543D-07 0.157D-12
          max. resid. norm for Fia-block=  6.029D-06 for orbital    197a         
          max. resid. fock norm         =  1.051D-05 for orbital   1148a         

 convergence criteria satisfied after    16 iterations


                  ------------------------------------------ 
                 |  total energy      =  -2402.81585499718  |
                  ------------------------------------------ 
                 :  kinetic energy    =   2399.16789248177  :
                 :  potential energy  =  -4801.98374747895  :
                 :  virial theorem    =      1.99848179689  :
                 :  wavefunction norm =      1.00000000000  :
                  .......................................... 


 <geterg> : there is no data group $energy 


 <skperg> : $end is missing 


 orbitals $scfmo  will be written to file mos

    irrep                200a        201a        202a        203a        204a   
 eigenvalues H         -0.30683    -0.29873    -0.29533    -0.29107    -0.28611
            eV          -8.3494     -8.1289     -8.0364     -7.9206     -7.7856
 occupation              2.0000      2.0000      2.0000      2.0000      2.0000 

    irrep                205a        206a        207a        208a        209a   
 eigenvalues H          0.08285     0.09099     0.09597     0.09659     0.10306
            eV           2.2545      2.4759      2.6115      2.6284      2.8045
 
 
 
 
 ==============================================================================
                           electrostatic moments
 ==============================================================================

 reference point for electrostatic moments:    0.00000   0.00000   0.00000

 
              nuc           elec       ->  total
 ------------------------------------------------------------------------------
                          charge      
 ------------------------------------------------------------------------------
         408.000000    -408.000000       0.000000
 
 ------------------------------------------------------------------------------
                       dipole moment  
 ------------------------------------------------------------------------------
   x      -1.627493       1.609643      -0.017850
   y      -0.203883       0.191438      -0.012445
   z      33.840054     -35.706870      -1.866815
 
   | dipole moment | =     1.8669 a.u. =     4.7453 debye 
 
 ------------------------------------------------------------------------------
                     quadrupole moment
 ------------------------------------------------------------------------------
  xx    8533.558463   -8784.416215    -250.857752
  yy    9803.410840  -10045.339437    -241.928597
  zz   11795.991973  -12056.477393    -260.485420
  xy    1729.349277   -1733.092148      -3.742872
  xz     125.379989    -125.783127      -0.403139
  yz      64.249594     -64.484658      -0.235064
 
     1/3  trace=    -251.090590
     anisotropy=      17.351350
 
 ==============================================================================
 

    dscf profiling
  --------------------------------------------------------------------
             module   cpu total (s)       %  wall total (s)       %

          dscf.total         52662.0  100.00         49236.2  100.00
        dscf.prepare           137.6    0.26           137.8    0.28
      prepare.oneint             1.5    0.00             1.5    0.00
     prepare.moinput             0.8    0.00             0.8    0.00
     moinput_orthmos           134.2    0.25           134.2    0.27
            dscf.scf         52518.4   99.73         49092.3   99.71
             scf.pre             0.0    0.00             0.0    0.00
        scf.makedmat            46.5    0.09            49.8    0.10
          scf.shloop         47013.7   89.27         47024.5   95.51
          shloop_omp         47009.5   89.27         47020.3   95.50
          scf.symcar             6.2    0.01             6.2    0.01
        scf.makefock            10.5    0.02            13.5    0.03
          scf.newerg             0.5    0.00             0.5    0.00
          scf.newcnv           966.3    1.84           126.4    0.26
           scf.fdiag          2850.4    5.41           357.6    0.73
         diag_tritrn           726.4    1.38            91.1    0.19
          diag_rdiag          2114.0    4.01           264.8    0.54
          scf.modump          1290.7    2.45          1309.1    2.66
           ortho_all           244.1    0.46           116.6    0.24
            scf.post            88.8    0.17            87.9    0.18
        dscf.postscf             5.9    0.01             6.1    0.01
 


    ------------------------------------------------------------------------
         total  cpu-time : 14 hours 37 minutes and 42 seconds
         total wall-time : 13 hours 40 minutes and 37 seconds
    ------------------------------------------------------------------------

   ****  dscf : all done  ****


    2018-03-01 13:58:24.375 

