           Doing BLAS/Lapack in the master proc. with  8 CPUs.
           SMPCPUS    set: Shared-memory Parallelization with   8 CPUs.

           SMP Parallelization Reference:
           C. van Wullen, J. Comput. Chem. 32 (2011) 1195--1201
 operating system is UNIX !

 ridft (c-18-134.gp.local) : TURBOMOLE V7.2 ( 21454 ) 4 Oct 2017 at 12:48:15
 Copyright (C) 2017 TURBOMOLE GmbH, Karlsruhe


    2018-04-28 21:02:36.658 



                                  r i d f t

                        DFT program with RI approximation 
                                for coulomb part 




                                                 
                                 References:     
                                                 
          TURBOMOLE:                             
              R. Ahlrichs, M. Baer, M. Haeser, H. Horn, and
              C. Koelmel
              Electronic structure calculations on workstation
              computers: the program system TURBOMOLE
              Chem. Phys. Lett. 162: 165 (1989)
          Density Functional:                              
              O. Treutler and R. Ahlrichs                      
              Efficient Molecular Numerical Integration Schemes
              J. Chem. Phys. 102: 346 (1995)                   
          Parallel Version:                                
              Performance of parallel TURBOMOLE for Density    
              Functional Calculations                          
              M. v. Arnim and R. Ahlrichs                      
              J. Comp. Chem. 19: 1746 (1998)                   
          RI-J Method:                                     
              Auxiliary Basis Sets to approximate Coulomb      
              Potentials                                       
              Chem. Phys. Lett. 240: 283 (1995)                
              K. Eichkorn, O. Treutler, H. Oehm, M. Haeser     
              and R. Ahlrichs                                  
              Chem. Phys. Lett. 242: 652 (1995)                
                                                           
              Auxiliary Basis Sets for Main Row Atoms and their
              Use to approximate Coulomb Potentials            
              K. Eichkorn, F. Weigend, O. Treutler and         
              R. Ahlrichs                                      
              Theo. Chem. Acc. 97: 119 (1997)                   
                                                           
              Accurate Coulomb-fitting basis sets for H to Rn 
              F. Weigend                                        
              Phys. Chem. Chem. Phys. 8: 1057 (2006)            
                                                           
          Multipole accelerated RI-J (MARI-J):             
              Fast evaluation of the Coulomb potential for     
              electron densities using multipole accelerated   
              resolution of identity approximation             
              M. Sierka, A. Hogekamp and R. Ahlrichs           
              J. Chem. Phys. 118: 9136 (2003)                  
          RI-JK Method:                                     
              A fully direct RI-HF algorithm: Implementation,
              optimised auxiliary basis sets, demonstration of
              accuracy and efficiency                         
              F. Weigend                                      
              Phys. Chem. Chem. Phys. 4: 4285 (2002)           
          Two-component HF and DFT with spin-orbit coupling:  
              Self-consistent treatment of spin-orbit         
              interactions with efficient Hartree-Fock and    
              density functional methods                      
              M. K. Armbruster, F. Weigend, C. van Wüllen and 
              W. Klopper                                      
              Phys. Chem. Chem. Phys. 10: 1748 (2008)         
          Relativistic all-electron 2c calculations           
              An efficient implementation of two-component    
              relativistic exact-decoupling methods for large 
              molecules                                       
              D. Peng, N. Middendorf, F. Weigend, M. Reiher   
              J. Chem. Phys. 138, 184105 (2013)               
                                         




              +--------------------------------------------------+
              |      general information about current run       |
              +--------------------------------------------------+

 

 DENSITY CONVERGENCE CHECK SWITCHED ON !
 SCF CONVERGENCE IF RMS(delta[D]) <     0.1000000000E-06

 TPSS meta-GGA functional
 exchange:    LDA + TPSS
 correlation: LDA (PW) + TPSS
 A DFT calculation using the RI-J approximation will be carried out.
 Allocatable memory for RI due to $ricore (MB):                  5000


              +--------------------------------------------------+
              | Atomic coordinate, charge and isotop information |
              +--------------------------------------------------+

                    atomic coordinates            atom    charge  isotop
         -0.10479206   -1.79144318    0.01891668    n      7.000     0
         -0.10831172   -3.69954198    0.10403484    h      1.000     0
         -2.48302399   -0.63333223   -0.12205027    c      6.000     0
         -4.40097685   -1.90465661   -0.23263045    o      8.000     0
         -2.35905620    2.10903246   -0.12568305    c      6.000     0
         -4.09002757    3.16592051   -0.27798333    h      1.000     0
         -0.10030686    3.27192377    0.06461996    c      6.000     0
          0.09091575    5.30338385    0.08205130    h      1.000     0
          2.10879506    1.94186570    0.25543226    n      7.000     0
          3.77313142    2.82944869    0.49439070    h      1.000     0
          2.22108394   -0.66859398    0.33290579    c      6.000     0
          4.18504694   -1.82635496    0.63338423    o      8.000     0
 
       center of nuclear mass  :   -0.07501397   -0.00832738    0.11115685
       center of nuclear charge:   -0.07519878    0.05652166    0.11082278

              +--------------------------------------------------+
              |               basis set information              |
              +--------------------------------------------------+

              we will work with the 1s 3p 5d 7f 9g ... basis set
              ...i.e. with spherical basis functions...

   type   atoms  prim   cont   basis
   ---------------------------------------------------------------------------
    n        2     77     55   cc-pVQZ   [5s4p3d2f1g|21s6p3d2f1g]
    h        4     32     30   cc-pVQZ   [4s3p2d1f|6s3p2d1f]
    c        4     77     55   cc-pVQZ   [5s4p3d2f1g|21s6p3d2f1g]
    o        2     77     55   cc-pVQZ   [5s4p3d2f1g|21s6p3d2f1g]
   ---------------------------------------------------------------------------
   total:   12    744    560
   ---------------------------------------------------------------------------

   total number of primitive shells          :  111
   total number of contracted shells         :  160
   total number of cartesian basis functions :  700
   total number of SCF-basis functions       :  560


 integral neglect threshold       :  0.48E-13
 integral storage threshold THIZE :  0.10E-04
 integral storage threshold THIME :         5

 RI-J AUXILIARY BASIS SET information:

              we will work with the 1s 3p 5d 7f 9g ... basis set
              ...i.e. with spherical basis functions...

   type   atoms  prim   cont   basis
   ---------------------------------------------------------------------------
    n        2     70     49   cc-pVQZ   [6s4p3d1f1g|12s5p4d2f1g]
    h        4     16     11   cc-pVQZ   [3s1p1d|5s2p1d]
    c        4     70     49   cc-pVQZ   [6s4p3d1f1g|12s5p4d2f1g]
    o        2     70     49   cc-pVQZ   [6s4p3d1f1g|12s5p4d2f1g]
   ---------------------------------------------------------------------------
   total:   12    624    436
   ---------------------------------------------------------------------------

   total number of primitive shells          :   80
   total number of contracted shells         :  140
   total number of cartesian basis functions :  536
   total number of SCF-basis functions       :  436


 symmetry group of the molecule :   c1 

 the group has the following generators :
   c1(z)

    1 symmetry operations found

 there are 1 real representations :   a   

 maximum number of shells which are related by symmetry :  1


    mo occupation :
   irrep   mo's   occupied
    a      560       29
 
 number of basis functions   :                    560
 number of occupied orbitals :                     29
 
  
           ------------------
           density functional
           ------------------
 TPSS meta-GGA functional
 exchange:    LDA + TPSS
 correlation: LDA (PW) + TPSS

 iterations will be done with small grid
  
 spherical integration : Lebedev's spherical grid
 spherical gridsize    :                     5
    i.e. gridpoints    :                   590
 value for diffuse not defined
 radial integration    : Chebyshev 2nd kind (scaling 3)
 radial gridsize       :                     8
 integration cells     :                    12
 partition function    : becke
 partition sharpness   :                     3
  

 biggest AO integral is expected to be     4.785886462
  
           ------------------------
               RI-J - INFORMATION
           ------------------------
 Contributions to RI integral batches: 
  neglected integral batches:                  1729
  direct contribution:                            0
  memory contribution:                 11151
 Memory core needed for (P|Q) and Cholesky      2 MByte
 Memory core minimum needed except of (P|Q)     2 MByte
 Total minimum memory core needed (sum)         4 MByte
  
 ****************************************
 Memory allocated for RI-J   879 MByte
 ****************************************
                                            

          ------------------------
          nuclear repulsion energy  :   357.249950397    
          ------------------------


         -----------------
         -S,T+V- integrals
         -----------------

 1e-integrals will be neglected if expon. factor < 0.477423E-14
 Difference densities >>NOT<< switched on in parallel ridft!

 DIIS switched on: error vector is FDS-SDF
 Max. Iterations for DIIS is     :   4
 DIIS matrix (see manual) 
    Scaling factor of diagonals  :  1.200
    threshold for scaling factor :  0.000

 scf convergence criterion : increment of total energy < .1000000D-08
                  and increment of one-electron energy < .1000000D-05

  MOs are in ASCII format !


 automatic virtual orbital shift switched on 
      shift if e(lumo)-e(homo) < 0.10000000    


 reading orbital data $scfmo  from file mos
 orbital characterization : expanded
 mo provided and orthogonalized by Cholesky decomposition

 DSCF restart information will be dumped onto file mos


 Starting SCF iterations

          Overall gridpoints after grid construction =         63480

 ITERATION  ENERGY          1e-ENERGY        2e-ENERGY     RMS[dD(SAO)]   TOL
   1  -413.16438086642    -1261.8968989     491.48256767    0.000D+00 0.476D-13
                            Exc = -54.0913365723     Coul =  545.573904241    
                              N = 58.000004008    
                            current damping = 0.700
 
          max. resid. norm for Fia-block=  4.512D-01 for orbital     20a         
          max. resid. fock norm         =  1.111D+01 for orbital    503a         

 ITERATION  ENERGY          1e-ENERGY        2e-ENERGY     RMS[dD(SAO)]   TOL
   2  -414.78365296333    -1268.7526235     496.71902014    0.461D-02 0.476D-13
                            Exc = -54.1157786662     Coul =  550.834798810    
                              N = 58.000001450    
                            current damping = 0.650
 
          Norm of current diis error:  3.2091    
          max. resid. norm for Fia-block=  1.660D-01 for orbital      1a         
          max. resid. fock norm         =  3.662D-01 for orbital    509a         

 ITERATION  ENERGY          1e-ENERGY        2e-ENERGY     RMS[dD(SAO)]   TOL
   3  -414.99522581692    -1271.4119006     499.16672437    0.272D-02 0.476D-13
                            Exc = -54.3888971065     Coul =  553.555621474    
                              N = 58.000001173    
                            current damping = 0.550
 
          Norm of current diis error:  1.5140    
          max. resid. norm for Fia-block=  6.461D-02 for orbital      1a         
          max. resid. fock norm         =  8.598D-02 for orbital    282a         

 ITERATION  ENERGY          1e-ENERGY        2e-ENERGY     RMS[dD(SAO)]   TOL
   4  -415.05521719854    -1271.8189617     499.51379413    0.213D-02 0.476D-13
                            Exc = -54.3233546765     Coul =  553.837148811    
                              N = 58.000001422    
                            current damping = 0.400
 
          Norm of current diis error: 0.66689    
          max. resid. norm for Fia-block=  3.140D-02 for orbital     10a         
          max. resid. fock norm         =  7.274D-02 for orbital    501a         

 ITERATION  ENERGY          1e-ENERGY        2e-ENERGY     RMS[dD(SAO)]   TOL
   5  -415.06359591086    -1272.1041293     499.79058303    0.778D-03 0.476D-13
                            Exc = -54.4162357528     Coul =  554.206818786    
                              N = 58.000001872    
                            current damping = 0.250
 
          Norm of current diis error: 0.43158    
          max. resid. norm for Fia-block=  9.968D-03 for orbital     27a         
          max. resid. fock norm         =  1.365D-02 for orbital    552a         
          mo-orthogonalization: Cholesky decomposition

 ITERATION  ENERGY          1e-ENERGY        2e-ENERGY     RMS[dD(SAO)]   TOL
   6  -415.06872563061    -1272.4378992     500.11922316    0.680D-03 0.476D-13
                            Exc = -54.4081901346     Coul =  554.527413299    
                              N = 58.000002004    
                            current damping = 0.100
 
          Norm of current diis error: 0.10590    
          max. resid. norm for Fia-block=  3.384D-03 for orbital     26a         
          max. resid. fock norm         =  6.801D-03 for orbital    516a         

 ITERATION  ENERGY          1e-ENERGY        2e-ENERGY     RMS[dD(SAO)]   TOL
   7  -415.06878693826    -1272.2087279     499.88999054    0.154D-03 0.476D-13
                            Exc = -54.3917853864     Coul =  554.281775923    
                              N = 58.000001926    
                            current damping = 0.150
 
          Norm of current diis error: 0.90787E-01
          max. resid. norm for Fia-block=  2.282D-03 for orbital     28a         
          max. resid. fock norm         =  4.130D-03 for orbital    534a         

 ITERATION  ENERGY          1e-ENERGY        2e-ENERGY     RMS[dD(SAO)]   TOL
   8  -415.06898097084    -1272.2858200     499.96688859    0.693D-04 0.476D-13
                            Exc = -54.4014913904     Coul =  554.368379985    
                              N = 58.000001990    
                            current damping = 0.200
 
          Norm of current diis error: 0.31481E-01
          max. resid. norm for Fia-block=  1.005D-03 for orbital     29a         
          max. resid. fock norm         =  2.061D-03 for orbital    515a         

 ITERATION  ENERGY          1e-ENERGY        2e-ENERGY     RMS[dD(SAO)]   TOL
   9  -415.06899551113    -1272.3397699     500.02082399    0.527D-04 0.476D-13
                            Exc = -54.4056617027     Coul =  554.426485697    
                              N = 58.000001999    
                            current damping = 0.050
 
          Norm of current diis error: 0.21418E-01
          max. resid. norm for Fia-block=  7.023D-04 for orbital     29a         
          max. resid. fock norm         =  1.345D-03 for orbital    483a         

 ITERATION  ENERGY          1e-ENERGY        2e-ENERGY     RMS[dD(SAO)]   TOL
  10  -415.06900513462    -1272.3192630     500.00030742    0.376D-04 0.476D-13
                            Exc = -54.4018961575     Coul =  554.402203580    
                              N = 58.000001983    
                            current damping = 0.100
 
          Norm of current diis error: 0.12912E-01
          max. resid. norm for Fia-block=  2.823D-04 for orbital     23a         
          max. resid. fock norm         =  5.026D-04 for orbital    483a         
          mo-orthogonalization: Cholesky decomposition

 ITERATION  ENERGY          1e-ENERGY        2e-ENERGY     RMS[dD(SAO)]   TOL
  11  -415.06900959368    -1272.3138943     499.99493431    0.111D-04 0.476D-13
                            Exc = -54.4029179563     Coul =  554.397852269    
                              N = 58.000001989    
                            current damping = 0.050
 
          Norm of current diis error: 0.27033E-02
          max. resid. norm for Fia-block=  6.784D-05 for orbital     24a         
          max. resid. fock norm         =  9.052D-05 for orbital     23a         

 ITERATION  ENERGY          1e-ENERGY        2e-ENERGY     RMS[dD(SAO)]   TOL
  12  -415.06900971781    -1272.3180729     499.99911282    0.123D-05 0.476D-13
                            Exc = -54.4028854558     Coul =  554.401998275    
                              N = 58.000001989    
                            current damping = 0.100
 
          Norm of current diis error: 0.14730E-02
          max. resid. norm for Fia-block=  3.467D-05 for orbital     25a         
          max. resid. fock norm         =  6.801D-05 for orbital    556a         

 ITERATION  ENERGY          1e-ENERGY        2e-ENERGY     RMS[dD(SAO)]   TOL
  13  -415.06900975504    -1272.3170349     499.99807478    0.730D-06 0.476D-13
                            Exc = -54.4028829200     Coul =  554.400957696    
                              N = 58.000001988    
                            current damping = 0.150
 
          Norm of current diis error: 0.67314E-03
          max. resid. norm for Fia-block=  1.658D-05 for orbital     28a         
          max. resid. fock norm         =  3.711D-05 for orbital    533a         

 ITERATION  ENERGY          1e-ENERGY        2e-ENERGY     RMS[dD(SAO)]   TOL
  14  -415.06900976302    -1272.3165705     499.99761035    0.643D-06 0.476D-13
                            Exc = -54.4028712532     Coul =  554.400481608    
                              N = 58.000001989    
                            current damping = 0.050
 
          Norm of current diis error: 0.33722E-03
          max. resid. norm for Fia-block=  1.110D-05 for orbital     29a         
          max. resid. fock norm         =  2.763D-05 for orbital    534a         

 ITERATION  ENERGY          1e-ENERGY        2e-ENERGY     RMS[dD(SAO)]   TOL
  15  -415.06900976484    -1272.3167340     499.99777385    0.589D-06 0.476D-13
                            Exc = -54.4028789175     Coul =  554.400652765    
                              N = 58.000001988    
                            current damping = 0.100
 
          Norm of current diis error: 0.23677E-03
          max. resid. norm for Fia-block=  5.409D-06 for orbital     29a         
          max. resid. fock norm         =  1.272D-05 for orbital    534a         
          mo-orthogonalization: Cholesky decomposition

 ITERATION  ENERGY          1e-ENERGY        2e-ENERGY     RMS[dD(SAO)]   TOL
  16  -415.06900976654    -1272.3167970     499.99783686    0.262D-06 0.476D-13
                            Exc = -54.4028798634     Coul =  554.400716723    
                              N = 58.000001988    
                            current damping = 0.050
 
          Norm of current diis error: 0.44731E-04
          max. resid. norm for Fia-block=  1.620D-06 for orbital     28a         
          max. resid. fock norm         =  2.754D-06 for orbital    558a         

 DENSITY CONVERGED !


 ITERATION  ENERGY          1e-ENERGY        2e-ENERGY     RMS[dD(SAO)]   TOL
  17  -415.06900976654    -1272.3167266     499.99776639    0.363D-07 0.476D-13
                            Exc = -54.4028768353     Coul =  554.400643225    
                              N = 58.000001988    
                            current damping = 0.100
 
          Norm of current diis error: 0.44130E-04
          max. resid. norm for Fia-block=  9.265D-07 for orbital     28a         
          max. resid. fock norm         =  1.829D-06 for orbital    556a         

 ENERGY & DENSITY CONVERGED !

          Overall gridpoints after grid construction =        199894

 ITERATION  ENERGY          1e-ENERGY        2e-ENERGY     RMS[dD(SAO)]   TOL
  18  -415.06891584056    -1272.3167422     499.99787596    0.144D-07 0.476D-13
                            Exc = -54.4027838502     Coul =  554.400659810    
                              N = 58.000000444    
                            current damping = 0.150
 
          Norm of current diis error: 0.11720E-04
          max. resid. norm for Fia-block=  2.269D-07 for orbital     24a         
          max. resid. fock norm         =  5.005D-07 for orbital    555a         

 End of SCF iterations

   convergence criteria satisfied after    18 iterations


                  ------------------------------------------ 
                 |  total energy      =   -415.06891584056  |
                  ------------------------------------------ 
                 :  kinetic energy    =    413.59187611558  :
                 :  potential energy  =   -828.66079195614  :
                 :  virial theorem    =      1.99644145907  :
                 :  wavefunction norm =      1.00000000000  :
                  .......................................... 


 <geterg> : there is no data group $energy 


 <skperg> : $end is missing 


 orbitals $scfmo  will be written to file mos

    irrep                 25a         26a         27a         28a         29a   
 eigenvalues H         -0.34174    -0.26260    -0.25901    -0.23299    -0.23006
            eV          -9.2993     -7.1456     -7.0482     -6.3399     -6.2604
 occupation              2.0000      2.0000      2.0000      2.0000      2.0000 

    irrep                 30a         31a         32a         33a         34a   
 eigenvalues H         -0.07949    -0.03023    -0.01019     0.03251     0.03597
            eV          -2.1631     -0.8226     -0.2772      0.8847      0.9789
 
 
 
 
 ==============================================================================
                           electrostatic moments
 ==============================================================================

 reference point for electrostatic moments:    0.00000   0.00000   0.00000

 
              nuc           elec       ->  total
 ------------------------------------------------------------------------------
                          charge      
 ------------------------------------------------------------------------------
          58.000000     -58.000000       0.000000
 
 ------------------------------------------------------------------------------
                       dipole moment  
 ------------------------------------------------------------------------------
   x      -4.361529       4.870179       0.508650
   y       3.278256      -1.643244       1.635012
   z       6.427721      -6.413078       0.014643
 
   | dipole moment | =     1.7124 a.u. =     4.3524 debye 
 
 ------------------------------------------------------------------------------
                     quadrupole moment
 ------------------------------------------------------------------------------
  xx     457.299528    -499.869011     -42.569484
  yy     260.418199    -288.659540     -28.241341
  zz       5.314984     -39.476350     -34.161366
  xy       3.205192      -1.792725       1.412467
  xz      44.146470     -44.919846      -0.773376
  yz      -3.099200       3.564476       0.465276
 
     1/3  trace=     -34.990730
     anisotropy=      12.804233
 
 ==============================================================================
 


    ------------------------------------------------------------------------
         total  cpu-time :  8 minutes and 14 seconds
         total wall-time :  1 minutes and  6 seconds
    ------------------------------------------------------------------------

   ****  ridft : all done  ****


    2018-04-28 21:03:42.973 

