
   OpenMP run-time library returned nthreads = 28

 ricc2 (c-13-37) : TURBOMOLE V7.3 ( 22142 ) 4 Jul 2018 at 18:12:42
 Copyright (C) 2018 TURBOMOLE GmbH, Karlsruhe


    2019-04-01 22:39:03.329 



                              R I C C 2 - PROGRAM

                          the quantum chemistry groups
                             at the universities in
                           Karlsruhe, Bochum & Mainz
                                   Germany



   *-----------------------------------------------------------------------*
   |                     program will use 28 thread(s)                     |
   *-----------------------------------------------------------------------*


              +--------------------------------------------------+
              | Atomic coordinate, charge and isotop information |
              +--------------------------------------------------+

                    atomic coordinates            atom    charge  isotop
          4.78772944    0.55750952    8.52852274    c      6.000     0
          4.85308465    1.69097991    6.81014649    h      1.000     0
          4.84537235    1.84858284   10.13241801    h      1.000     0
          6.48976928   -0.59805292    8.58560936    h      1.000     0
          2.40322350   -1.05232412    8.60279701    c      6.000     0
          2.39293637   -2.20454251   10.31582801    h      1.000     0
          2.40108714   -2.37391117    7.01621874    h      1.000     0
         -0.00008294    0.52767420    8.51659443    c      6.000     0
         -0.00037571    1.85484772   10.10204532    h      1.000     0
          0.00006237    1.67809491    6.79870179    h      1.000     0
         -2.40336263   -1.05240515    8.60214524    c      6.000     0
         -2.39319167   -2.20534492   10.31470974    h      1.000     0
         -2.40127195   -2.37336698    7.01503295    h      1.000     0
         -4.78766643    0.55772903    8.52848805    c      6.000     0
         -4.85228241    1.69257319    6.81095989    h      1.000     0
         -6.48993547   -0.59745745    8.58425988    h      1.000     0
         -4.84537779    1.84763008   10.13335949    h      1.000     0
 
       center of nuclear mass  :   -0.00002819   -0.07324658    8.55502182
       center of nuclear charge:   -0.00002565   -0.05978253    8.55453749

              +--------------------------------------------------+
              |               basis set information              |
              +--------------------------------------------------+

              we will work with the 1s 3p 5d 7f 9g ... basis set
              ...i.e. with spherical basis functions...

   type   atoms  prim   cont   basis
   ---------------------------------------------------------------------------
    c        5     77     55   cc-pVQZ   [5s4p3d2f1g|21s6p3d2f1g]
    h       12     32     30   cc-pVQZ   [4s3p2d1f|6s3p2d1f]
   ---------------------------------------------------------------------------
   total:   17    769    635
   ---------------------------------------------------------------------------

   total number of primitive shells          :   45
   total number of contracted shells         :  195
   total number of cartesian basis functions :  770
   total number of SCF-basis functions       :  635


 symmetry group of the molecule :   c1 

 the group has the following generators :
   c1(z)

    1 symmetry operations found

 there are 1 real representations :   a   


   =========================================================================


     restricted closed shell calculation for the wavefunction models:
               MP2        - Second Order Moeller Plesset PT


     global parameters for ricc2 program:

        hard restart (reuse of interm.) :  disabled
        soft restart (reuse of vectors) :  disabled
        threshold for vector function   :    0.100000E-05
        convergence threshold energy    :    0.100000E-06
        linear dependence threshold     :    0.100000E-13
        global print level              :      1
        maximum number of iterations    :   300
        maximum number DIIS vectors     :    10
        max. dim. of reduced space      :   100
        core memory limit (MB)          : *****


     MP2 energy only: Energy will be calculated directly from T2 amplitudes!

     Scratch Directory : 


   =========================================================================

    der. integral neglect threshold  :  0.10E-07
    integral neglect threshold       :  0.43E-11
    integral storage threshold THIZE :  0.10E-04
    integral storage threshold THIME :         5


                  +------------------------------------------+
                  |     Auxiliary basis set information      |
                  +------------------------------------------+

              we will work with the 1s 3p 5d 7f 9g ... basis set
              ...i.e. with spherical basis functions...

   type   atoms  prim   cont   basis
   ---------------------------------------------------------------------------
    c        5    132    132   cc-pVQZ   [8s7p6d5f3g1h|8s7p6d5f3g1h]
    h       12     55     55   cc-pVQZ   [5s4p3d2f1g|5s4p3d2f1g]
   ---------------------------------------------------------------------------
   total:   17   1320   1320
   ---------------------------------------------------------------------------

   total number of primitive shells          :   45
   total number of contracted shells         :  330
   total number of cartesian basis functions : 1745
   total number of SCF-basis functions       : 1320


 maximum number of shells which are related by symmetry :  1


 The symmetry information takes   1 MB

*---------------------------------------------------------------------*
|               simplified C1 algorithm will be applied               |
*---------------------------------------------------------------------*
  MOs are in ASCII format !


 reading orbital data $scfmo  from file mos
 orbital characterization : scfconv=9



              +--------------------------------------------+
              | list of orbitals that will be kept frozen: |
              +--------------------------------------------+
              |   irrep   index      energy     occ/vir    |
              +--------------------------------------------+
              |   a         1      -11.2115     occupied   |
              |   a         2      -11.2114     occupied   |
              |   a         3      -11.2091     occupied   |
              |   a         4      -11.2060     occupied   |
              |   a         5      -11.2060     occupied   |
              +--------------------------------------------+



   Molecular Orbital Statistic:
   ============================

   -----------------------------
   orbitals in total:
   -----------------------------
    frozen occupied :      5
    active occupied :     16
    active virtual  :    614
    frozen virtual  :      0
    all together    :    635
   -----------------------------


     time in riccmos       cpu:  6.60 sec    wall:  0.52 sec    ratio: 12.6

     total memory allocated for calculation of (Q|P)**(-1/2) : 20 MiB


     calculation of (P|Q) ...
     time in lp2sym        cpu:  2.99 sec    wall:  0.11 sec    ratio: 26.7


     calculation of the Cholesky decomposition of (P|Q)**(-1) ...
     time in invmetri      cpu:  7.26 sec    wall:  0.26 sec    ratio: 27.8

   threshold for RMS(d[D]) in SCF was     :  0.10E-06
   integral neglect threshold             :  0.43E-11
   derivative integral neglect threshold  :  0.10E-07


   =========================================================================

     Energy of reference wave function is  -196.4158823929000
     Maximum orbital residual is           0.7268356539850E-07


     Number of symmetry-nonredundant auxiliary basis functions:     1320

     Block lengths for integral files:
        frozen occupied (BOI):        1 MiB
        active occupied (BJI):        1 MiB
        active virtual  (BAI):        7 MiB
        frozen virtual  (BGI):        0 MiB
               general  (BTI):        7 MiB

   =========================================================================




   **************************************************************************
   *                                                                        *
   *          OPTIMIZATION OF THE GROUND STATE CLUSTER AMPLITUDES           *
   *                                                                        *
   **************************************************************************


   Iter.   MP2 energy       Norm(Omega)   Norm(t1)  Norm(t2)     cpu    wall
   ...........................................................................
    1   -197.3624967583     ------          0.00000   0.32585    1.35    0.05
   ...........................................................................


     time in total         cpu:  1 min 21 s  wall:  0 min  3 s  ratio: 27.3


     **********************************************************************
     *                                                                    *
     *   RHF  energy                             :   -196.4158823929      *
     *   MP2 correlation energy (doubles)        :     -0.9466143654      *
     *                                                                    *
     *   Final MP2 energy                        :   -197.3624967583      *
     *                                                                    *
     *    E(S)   =     -0.6484270737      E(T)   =     -0.2981872917      *
     *    E(OS)  =     -0.7478228376      E(SS)  =     -0.1987915278      *
     *                                                                    *
     *   SCS-MP2 energy                          :   -197.3795336407      *
     *   (computed with  C(OS) =   1.2000  and  C(SS) =   0.3333)         *
     *                                                                    *
     *   SOS-MP2 energy                          :   -197.3880520818      *
     *   (computed with  C(OS) =   1.3000)                                *
     *                                                                    *
     *   Norm of MP1 T2 amplitudes               :      0.3258506770      *
     *                                                                    *
     **********************************************************************



    ------------------------------------------------------------------------
         total  cpu-time :  2 minutes and 42 seconds
         total wall-time :   6.55 seconds
    ------------------------------------------------------------------------

   ****  ricc2 : all done  ****


    2019-04-01 22:39:09.801 

