 operating system is UNIX !

 ridft (c-9-412.gp.local) : TURBOMOLE V7.2 ( 21454 ) 4 Oct 2017 at 12:48:15
 Copyright (C) 2017 TURBOMOLE GmbH, Karlsruhe


    2018-05-18 15:36:14.391 



                                  r i d f t

                        DFT program with RI approximation 
                                for coulomb part 




                                                 
                                 References:     
                                                 
          TURBOMOLE:                             
              R. Ahlrichs, M. Baer, M. Haeser, H. Horn, and
              C. Koelmel
              Electronic structure calculations on workstation
              computers: the program system TURBOMOLE
              Chem. Phys. Lett. 162: 165 (1989)
          Density Functional:                              
              O. Treutler and R. Ahlrichs                      
              Efficient Molecular Numerical Integration Schemes
              J. Chem. Phys. 102: 346 (1995)                   
          Parallel Version:                                
              Performance of parallel TURBOMOLE for Density    
              Functional Calculations                          
              M. v. Arnim and R. Ahlrichs                      
              J. Comp. Chem. 19: 1746 (1998)                   
          RI-J Method:                                     
              Auxiliary Basis Sets to approximate Coulomb      
              Potentials                                       
              Chem. Phys. Lett. 240: 283 (1995)                
              K. Eichkorn, O. Treutler, H. Oehm, M. Haeser     
              and R. Ahlrichs                                  
              Chem. Phys. Lett. 242: 652 (1995)                
                                                           
              Auxiliary Basis Sets for Main Row Atoms and their
              Use to approximate Coulomb Potentials            
              K. Eichkorn, F. Weigend, O. Treutler and         
              R. Ahlrichs                                      
              Theo. Chem. Acc. 97: 119 (1997)                   
                                                           
              Accurate Coulomb-fitting basis sets for H to Rn 
              F. Weigend                                        
              Phys. Chem. Chem. Phys. 8: 1057 (2006)            
                                                           
          Multipole accelerated RI-J (MARI-J):             
              Fast evaluation of the Coulomb potential for     
              electron densities using multipole accelerated   
              resolution of identity approximation             
              M. Sierka, A. Hogekamp and R. Ahlrichs           
              J. Chem. Phys. 118: 9136 (2003)                  
          RI-JK Method:                                     
              A fully direct RI-HF algorithm: Implementation,
              optimised auxiliary basis sets, demonstration of
              accuracy and efficiency                         
              F. Weigend                                      
              Phys. Chem. Chem. Phys. 4: 4285 (2002)           
          Two-component HF and DFT with spin-orbit coupling:  
              Self-consistent treatment of spin-orbit         
              interactions with efficient Hartree-Fock and    
              density functional methods                      
              M. K. Armbruster, F. Weigend, C. van Wüllen and 
              W. Klopper                                      
              Phys. Chem. Chem. Phys. 10: 1748 (2008)         
          Relativistic all-electron 2c calculations           
              An efficient implementation of two-component    
              relativistic exact-decoupling methods for large 
              molecules                                       
              D. Peng, N. Middendorf, F. Weigend, M. Reiher   
              J. Chem. Phys. 138, 184105 (2013)               
                                         




              +--------------------------------------------------+
              |      general information about current run       |
              +--------------------------------------------------+

 
 PBE functional
 exchange:    LDA + PBE
 correlation: LDA (PW) + PBE
 A DFT calculation using the RI-J approximation will be carried out.
 Allocatable memory for RI due to $ricore (MB):                   500


              +--------------------------------------------------+
              | Atomic coordinate, charge and isotop information |
              +--------------------------------------------------+

                    atomic coordinates            atom    charge  isotop
          3.97367278   -0.11037319   -0.29305247    o      8.000     0
          5.04132512   -1.45766972   -0.86979576    h      1.000     0
          5.06924457    1.33374336   -0.24789086    h      1.000     0
 
       center of nuclear mass  :    4.09470658   -0.10495604   -0.32279481
       center of nuclear charge:    4.18999519   -0.10069118   -0.34621063

              +--------------------------------------------------+
              |               basis set information              |
              +--------------------------------------------------+

              we will work with the 1s 3p 5d 7f 9g ... basis set
              ...i.e. with spherical basis functions...

   type   atoms  prim   cont   basis
   ---------------------------------------------------------------------------
    o        1     77     57   def2-QZVP   [7s4p3d2f1g|15s8p3d2f1g]
    h        2     33     30   def2-QZVP   [4s3p2d1f|7s3p2d1f]
   ---------------------------------------------------------------------------
   total:    3    143    117
   ---------------------------------------------------------------------------

   total number of primitive shells          :   42
   total number of contracted shells         :   37
   total number of cartesian basis functions :  142
   total number of SCF-basis functions       :  117


 integral neglect threshold       :  0.23E-12
 integral storage threshold THIZE :  0.10E-04
 integral storage threshold THIME :         5

 RI-J AUXILIARY BASIS SET information:

              we will work with the 1s 3p 5d 7f 9g ... basis set
              ...i.e. with spherical basis functions...

   type   atoms  prim   cont   basis
   ---------------------------------------------------------------------------
    o        1     70     49   def2-QZVP   [6s4p3d1f1g|12s5p4d2f1g]
    h        2     16     11   def2-QZVP   [3s1p1d|5s2p1d]
   ---------------------------------------------------------------------------
   total:    3    102     71
   ---------------------------------------------------------------------------

   total number of primitive shells          :   32
   total number of contracted shells         :   25
   total number of cartesian basis functions :   85
   total number of SCF-basis functions       :   71


 symmetry group of the molecule :   c1 

 the group has the following generators :
   c1(z)

    1 symmetry operations found

 there are 1 real representations :   a   

 maximum number of shells which are related by symmetry :  1


    mo occupation :
   irrep   mo's   occupied
    a      117        5
 
 number of basis functions   :                    117
 number of occupied orbitals :                      5
 
  
           ------------------
           density functional
           ------------------
 PBE functional
 exchange:    LDA + PBE
 correlation: LDA (PW) + PBE

 iterations will be done with small grid
  
 spherical integration : Lebedev's spherical grid
 spherical gridsize    :                     5
    i.e. gridpoints    :                   590
 value for diffuse not defined
 radial integration    : Chebyshev 2nd kind (scaling 3)
 radial gridsize       :                     8
 integration cells     :                     3
 partition function    : becke
 partition sharpness   :                     3
  

 biggest AO integral is expected to be     6.990327543
  
           ------------------------
               RI-J - INFORMATION
           ------------------------
 Contributions to RI integral batches: 
  neglected integral batches:                     0
  direct contribution:                            0
  memory contribution:                   703
 Memory core needed for (P|Q) and Cholesky      1 MByte
 Memory core minimum needed except of (P|Q)     1 MByte
 Total minimum memory core needed (sum)         1 MByte
  
 ****************************************
 Memory allocated for RI-J     7 MByte
 ****************************************
                                            

          ------------------------
          nuclear repulsion energy  :   9.17374715928    
          ------------------------


         -----------------
         -S,T+V- integrals
         -----------------

 1e-integrals will be neglected if expon. factor < 0.235349E-13
 
   Difference densities algorithm switched on.
   The maximal number of linear combinations of
   difference densities is                    20 .

 DIIS switched on: error vector is FDS-SDF
 Max. Iterations for DIIS is     :   4
 DIIS matrix (see manual) 
    Scaling factor of diagonals  :  1.200
    threshold for scaling factor :  0.000

 scf convergence criterion : increment of total energy < .1000000D-08
                  and increment of one-electron energy < .1000000D-05

  MOs are in ASCII format !


 automatic virtual orbital shift switched on 
      shift if e(lumo)-e(homo) < 0.10000000    


 reading orbital data $scfmo  from file mos
 orbital characterization : expanded
 mo provided and orthogonalized by Cholesky decomposition

 DSCF restart information will be dumped onto file mos


 Starting SCF iterations

          Overall gridpoints after grid construction =         13745

 ITERATION  ENERGY          1e-ENERGY        2e-ENERGY     NORM[dD(SAO)]  TOL
   1  -76.124231303646    -124.38013076     39.082152297    0.000D+00 0.235D-12
                            Exc = -9.42089389922     Coul =  48.5030461964    
                              N = 10.000000821    
                            current damping = 0.700
 
          max. resid. norm for Fia-block=  8.751D-01 for orbital      2a         
          max. resid. fock norm         =  1.074D+02 for orbital    112a         

 ITERATION  ENERGY          1e-ENERGY        2e-ENERGY     NORM[dD(SAO)]  TOL
   2  -76.338058866750    -123.19474958     37.682943558    0.431D+00 0.161D-12
                            Exc = -9.24678648367     Coul =  46.9297300417    
                              N = 10.000000802    
                            current damping = 0.650
 
          Norm of current diis error:  1.2948    
          max. resid. norm for Fia-block=  1.414D-01 for orbital      1a         
          max. resid. fock norm         =  1.447D-01 for orbital      1a         

 ITERATION  ENERGY          1e-ENERGY        2e-ENERGY     NORM[dD(SAO)]  TOL
   3  -76.374642654594    -123.30862458     37.760234763    0.158D+00 0.125D-12
                            Exc = -9.27540677652     Coul =  47.0356415400    
                              N = 10.000000840    
                            current damping = 0.600
 
          Norm of current diis error: 0.57095    
          max. resid. norm for Fia-block=  5.763D-02 for orbital      1a         
          max. resid. fock norm         =  5.992D-02 for orbital      1a         

 ITERATION  ENERGY          1e-ENERGY        2e-ENERGY     NORM[dD(SAO)]  TOL
   4  -76.384910551256    -122.93841008     37.379752374    0.483D-01 0.105D-12
                            Exc = -9.23049422106     Coul =  46.6102465947    
                              N = 10.000000880    
                            current damping = 0.650
 
          Norm of current diis error: 0.21673    
          max. resid. norm for Fia-block=  2.121D-02 for orbital      1a         
          max. resid. fock norm         =  2.508D-02 for orbital     60a         

 ITERATION  ENERGY          1e-ENERGY        2e-ENERGY     NORM[dD(SAO)]  TOL
   5  -76.386492018324    -123.04232700     37.482087817    0.182D-01 0.963D-13
                            Exc = -9.24752427373     Coul =  46.7296120912    
                              N = 10.000000928    
                            current damping = 0.700
 
          Norm of current diis error: 0.85098E-01
          max. resid. norm for Fia-block=  8.734D-03 for orbital      1a         
          max. resid. fock norm         =  9.062D-03 for orbital      1a         
          mo-orthogonalization: Cholesky decomposition

 ITERATION  ENERGY          1e-ENERGY        2e-ENERGY     NORM[dD(SAO)]  TOL
   6  -76.386802361907    -122.98845537     37.427905851    0.238D-02 0.910D-13
                            Exc = -9.24115683005     Coul =  46.6690626807    
                              N = 10.000000947    
                            current damping = 0.750
 
          Norm of current diis error: 0.34004E-01
          max. resid. norm for Fia-block=  3.547D-03 for orbital      1a         
          max. resid. fock norm         =  3.651D-03 for orbital     96a         

 ITERATION  ENERGY          1e-ENERGY        2e-ENERGY     NORM[dD(SAO)]  TOL
   7  -76.386848794597    -122.99333589     37.432739939    0.359D-03 0.873D-13
                            Exc = -9.24227063679     Coul =  46.6750105762    
                              N = 10.000000957    
                            current damping = 0.800
 
          Norm of current diis error: 0.14228E-01
          max. resid. norm for Fia-block=  1.521D-03 for orbital      1a         
          max. resid. fock norm         =  1.571D-03 for orbital      1a         

 ITERATION  ENERGY          1e-ENERGY        2e-ENERGY     NORM[dD(SAO)]  TOL
   8  -76.386857606593    -122.99098795     37.430383180    0.113D-03 0.840D-13
                            Exc = -9.24213963139     Coul =  46.6725228111    
                              N = 10.000000961    
                            current damping = 0.850
 
          Norm of current diis error: 0.63688E-02
          max. resid. norm for Fia-block=  6.743D-04 for orbital      1a         
          max. resid. fock norm         =  6.944D-04 for orbital     96a         

 ITERATION  ENERGY          1e-ENERGY        2e-ENERGY     NORM[dD(SAO)]  TOL
   9  -76.386859272876    -122.99173281     37.431126376    0.123D-04 0.817D-13
                            Exc = -9.24232300413     Coul =  46.6734493802    
                              N = 10.000000963    
                            current damping = 0.900
 
          Norm of current diis error: 0.28876E-02
          max. resid. norm for Fia-block=  3.139D-04 for orbital      1a         
          max. resid. fock norm         =  3.254D-04 for orbital      1a         

 ITERATION  ENERGY          1e-ENERGY        2e-ENERGY     NORM[dD(SAO)]  TOL
  10  -76.386859635834    -122.99030431     37.429697515    0.302D-05 0.800D-13
                            Exc = -9.24216411678     Coul =  46.6718616314    
                              N = 10.000000964    
                            current damping = 0.950
 
          Norm of current diis error: 0.15255E-02
          max. resid. norm for Fia-block=  1.520D-04 for orbital      2a         
          max. resid. fock norm         =  1.859D-04 for orbital     60a         
          mo-orthogonalization: Cholesky decomposition

 ITERATION  ENERGY          1e-ENERGY        2e-ENERGY     NORM[dD(SAO)]  TOL
  11  -76.386859713554    -122.99113555     37.430528679    0.172D-05 0.782D-13
                            Exc = -9.24229381502     Coul =  46.6728224937    
                              N = 10.000000964    
                            current damping = 1.000
 
          Norm of current diis error: 0.67903E-03
          max. resid. norm for Fia-block=  7.252D-05 for orbital      1a         
          max. resid. fock norm         =  7.532D-05 for orbital      1a         

 ITERATION  ENERGY          1e-ENERGY        2e-ENERGY     NORM[dD(SAO)]  TOL
  12  -76.386859733636    -122.99079406     37.430187167    0.173D-06 0.765D-13
                            Exc = -9.24225497921     Coul =  46.6724421458    
                              N = 10.000000964    
                            current damping = 1.050
 
          Norm of current diis error: 0.33454E-03
          max. resid. norm for Fia-block=  3.598D-05 for orbital      1a         
          max. resid. fock norm         =  3.829D-05 for orbital     55a         

 ITERATION  ENERGY          1e-ENERGY        2e-ENERGY     NORM[dD(SAO)]  TOL
  13  -76.386859737962    -122.99081924     37.430212340    0.361D-07 0.745D-13
                            Exc = -9.24226209797     Coul =  46.6724744376    
                              N = 10.000000964    
                            current damping = 1.100
 
          Norm of current diis error: 0.16785E-03
          max. resid. norm for Fia-block=  1.849D-05 for orbital      1a         
          max. resid. fock norm         =  1.908D-05 for orbital      1a         

 ITERATION  ENERGY          1e-ENERGY        2e-ENERGY     NORM[dD(SAO)]  TOL
  14  -76.386859739085    -122.99080330     37.430196404    0.474D-08 0.723D-13
                            Exc = -9.24226175832     Coul =  46.6724581627    
                              N = 10.000000964    
                            current damping = 1.150
 
          Norm of current diis error: 0.88715E-04
          max. resid. norm for Fia-block=  9.653D-06 for orbital      1a         
          max. resid. fock norm         =  1.064D-05 for orbital     55a         

 ITERATION  ENERGY          1e-ENERGY        2e-ENERGY     NORM[dD(SAO)]  TOL
  15  -76.386859739381    -122.99081616     37.430209266    0.807D-09 0.702D-13
                            Exc = -9.24226444179     Coul =  46.6724737073    
                              N = 10.000000965    
                            current damping = 1.200
 
          Norm of current diis error: 0.46510E-04
          max. resid. norm for Fia-block=  5.221D-06 for orbital      1a         
          max. resid. fock norm         =  5.421D-06 for orbital      1a         
          mo-orthogonalization: Cholesky decomposition

 ITERATION  ENERGY          1e-ENERGY        2e-ENERGY     NORM[dD(SAO)]  TOL
  16  -76.386859739468    -122.99079578     37.430188877    0.533D-09 0.684D-13
                            Exc = -9.24226214550     Coul =  46.6724510225    
                              N = 10.000000965    
                            current damping = 1.250
 
          Norm of current diis error: 0.27587E-04
          max. resid. norm for Fia-block=  2.815D-06 for orbital      1a         
          max. resid. fock norm         =  3.479D-06 for orbital     96a         

 ITERATION  ENERGY          1e-ENERGY        2e-ENERGY     NORM[dD(SAO)]  TOL
  17  -76.386859739493    -122.99080620     37.430199304    0.184D-09 0.670D-13
                            Exc = -9.24226381811     Coul =  46.6724631224    
                              N = 10.000000965    
                            current damping = 1.300
 
          Norm of current diis error: 0.13981E-04
          max. resid. norm for Fia-block=  1.581D-06 for orbital      1a         
          max. resid. fock norm         =  1.638D-06 for orbital      1a         

 ENERGY CONVERGED !

          Overall gridpoints after grid construction =         46267

 ITERATION  ENERGY          1e-ENERGY        2e-ENERGY     NORM[dD(SAO)]  TOL
  18  -76.386861669492    -122.99080239     37.430193558    0.845D-09 0.669D-13
                            Exc = -9.24226536371     Coul =  46.6724589215    
                              N = 9.9999999924    
                            current damping = 1.350
 
          Norm of current diis error: 0.80649E-05
          max. resid. norm for Fia-block=  8.883D-07 for orbital      1a         
          max. resid. fock norm         =  9.828D-07 for orbital     55a         

 End of SCF iterations

   convergence criteria satisfied after    18 iterations


                  ------------------------------------------ 
                 |  total energy      =    -76.38686166949  |
                  ------------------------------------------ 
                 :  kinetic energy    =     76.14018855431  :
                 :  potential energy  =   -152.52705022380  :
                 :  virial theorem    =      1.99677073898  :
                 :  wavefunction norm =      1.00000000000  :
                  .......................................... 


 <geterg> : there is no data group $energy 


 <skperg> : $end is missing 


 orbitals $scfmo  will be written to file mos

    irrep                  1a          2a          3a          4a          5a   
 eigenvalues H        -18.75332    -0.92887    -0.48149    -0.34046    -0.26307
            eV        -510.3078    -25.2760    -13.1022     -9.2644     -7.1587
 occupation              2.0000      2.0000      2.0000      2.0000      2.0000 

    irrep                  6a          7a          8a          9a         10a   
 eigenvalues H         -0.01190     0.05413     0.21535     0.23327     0.23705
            eV          -0.3239      1.4731      5.8600      6.3475      6.4504
 
 
 
 
 ==============================================================================
                           electrostatic moments
 ==============================================================================

 reference point for electrostatic moments:    0.00000   0.00000   0.00000

 
              nuc           elec       ->  total
 ------------------------------------------------------------------------------
                          charge      
 ------------------------------------------------------------------------------
          10.000000     -10.000000      -0.000000
 
 ------------------------------------------------------------------------------
                       dipole moment  
 ------------------------------------------------------------------------------
   x      41.899952     -41.185903       0.714049
   y      -1.006912       1.038868       0.031956
   z      -3.462106       3.286638      -0.175468
 
   | dipole moment | =     0.7360 a.u. =     1.8707 debye 
 
 ------------------------------------------------------------------------------
                     quadrupole moment
 ------------------------------------------------------------------------------
  xx     177.432803    -176.296117       1.136685
  yy       4.001130      -7.472527      -3.471397
  zz       1.505033      -6.951792      -5.446760
  xy      -4.096211       4.220590       0.124379
  xz     -14.957499      13.762130      -1.195369
  yz       1.196013      -0.693949       0.502064
 
     1/3  trace=      -2.593824
     anisotropy=       6.271240
 
 ==============================================================================
 


    ------------------------------------------------------------------------
         total  cpu-time :   3.00 seconds
         total wall-time :   3.01 seconds
    ------------------------------------------------------------------------

   ****  ridft : all done  ****


    2018-05-18 15:36:17.387 

