           Doing BLAS/Lapack in the master proc. with  8 CPUs.
           SMPCPUS    set: Shared-memory Parallelization with   8 CPUs.

           SMP Parallelization Reference:
           C. van Wullen, J. Comput. Chem. 32 (2011) 1195--1201
 operating system is UNIX !

 ridft (c-12-252.gp.local) : TURBOMOLE V7.2 ( 21454 ) 4 Oct 2017 at 12:48:15
 Copyright (C) 2017 TURBOMOLE GmbH, Karlsruhe


    2018-04-28 21:09:16.305 



                                  r i d f t

                        DFT program with RI approximation 
                                for coulomb part 




                                                 
                                 References:     
                                                 
          TURBOMOLE:                             
              R. Ahlrichs, M. Baer, M. Haeser, H. Horn, and
              C. Koelmel
              Electronic structure calculations on workstation
              computers: the program system TURBOMOLE
              Chem. Phys. Lett. 162: 165 (1989)
          Density Functional:                              
              O. Treutler and R. Ahlrichs                      
              Efficient Molecular Numerical Integration Schemes
              J. Chem. Phys. 102: 346 (1995)                   
          Parallel Version:                                
              Performance of parallel TURBOMOLE for Density    
              Functional Calculations                          
              M. v. Arnim and R. Ahlrichs                      
              J. Comp. Chem. 19: 1746 (1998)                   
          RI-J Method:                                     
              Auxiliary Basis Sets to approximate Coulomb      
              Potentials                                       
              Chem. Phys. Lett. 240: 283 (1995)                
              K. Eichkorn, O. Treutler, H. Oehm, M. Haeser     
              and R. Ahlrichs                                  
              Chem. Phys. Lett. 242: 652 (1995)                
                                                           
              Auxiliary Basis Sets for Main Row Atoms and their
              Use to approximate Coulomb Potentials            
              K. Eichkorn, F. Weigend, O. Treutler and         
              R. Ahlrichs                                      
              Theo. Chem. Acc. 97: 119 (1997)                   
                                                           
              Accurate Coulomb-fitting basis sets for H to Rn 
              F. Weigend                                        
              Phys. Chem. Chem. Phys. 8: 1057 (2006)            
                                                           
          Multipole accelerated RI-J (MARI-J):             
              Fast evaluation of the Coulomb potential for     
              electron densities using multipole accelerated   
              resolution of identity approximation             
              M. Sierka, A. Hogekamp and R. Ahlrichs           
              J. Chem. Phys. 118: 9136 (2003)                  
          RI-JK Method:                                     
              A fully direct RI-HF algorithm: Implementation,
              optimised auxiliary basis sets, demonstration of
              accuracy and efficiency                         
              F. Weigend                                      
              Phys. Chem. Chem. Phys. 4: 4285 (2002)           
          Two-component HF and DFT with spin-orbit coupling:  
              Self-consistent treatment of spin-orbit         
              interactions with efficient Hartree-Fock and    
              density functional methods                      
              M. K. Armbruster, F. Weigend, C. van Wüllen and 
              W. Klopper                                      
              Phys. Chem. Chem. Phys. 10: 1748 (2008)         
          Relativistic all-electron 2c calculations           
              An efficient implementation of two-component    
              relativistic exact-decoupling methods for large 
              molecules                                       
              D. Peng, N. Middendorf, F. Weigend, M. Reiher   
              J. Chem. Phys. 138, 184105 (2013)               
                                         




              +--------------------------------------------------+
              |      general information about current run       |
              +--------------------------------------------------+

 

 DENSITY CONVERGENCE CHECK SWITCHED ON !
 SCF CONVERGENCE IF RMS(delta[D]) <     0.1000000000E-06

 TPSS meta-GGA functional
 exchange:    LDA + TPSS
 correlation: LDA (PW) + TPSS
 A DFT calculation using the RI-J approximation will be carried out.
 Allocatable memory for RI due to $ricore (MB):                  5000


              +--------------------------------------------------+
              | Atomic coordinate, charge and isotop information |
              +--------------------------------------------------+

                    atomic coordinates            atom    charge  isotop
         -0.15690867    0.00135038    1.99403899    n      7.000     0
         -0.38333806   -2.15754918    0.68962473    c      6.000     0
         -0.18611086   -3.88357231    1.77149093    h      1.000     0
         -0.84429456   -2.25210695   -1.89825307    c      6.000     0
         -1.00845085   -4.05507848   -2.84247229    h      1.000     0
         -1.08599176    0.00649978   -3.22067816    c      6.000     0
         -1.44315344    0.00846617   -5.23213520    h      1.000     0
         -0.85690908    2.26246052   -1.89145802    c      6.000     0
         -1.03109278    4.06720586   -2.83042251    h      1.000     0
         -0.39554067    2.16280590    0.69611331    c      6.000     0
         -0.20818559    3.88659456    1.78309637    h      1.000     0
          0.89164086   -0.01144831   10.47233114    c      0.000     0
          1.10973424   -0.01036325   12.46601833    h      0.000     0
          0.64206518   -0.01248716    8.19285409    c      0.000     0
          0.41879760   -0.01199125    6.18123028    h      0.000     0
 
       center of nuclear mass  :   -0.27559331   -0.00001654    1.86368224
       center of nuclear charge:   -0.62789997    0.00394593   -0.64619231

              +--------------------------------------------------+
              |               basis set information              |
              +--------------------------------------------------+

              we will work with the 1s 3p 5d 7f 9g ... basis set
              ...i.e. with spherical basis functions...

   type   atoms  prim   cont   basis
   ---------------------------------------------------------------------------
    n        1     50     30   cc-pVTZ   [4s3p2d1f|18s5p2d1f]
    c        7     50     30   cc-pVTZ   [4s3p2d1f|18s5p2d1f]
    h        7     16     14   cc-pVTZ   [3s2p1d|5s2p1d]
   ---------------------------------------------------------------------------
   total:   15    512    338
   ---------------------------------------------------------------------------

   total number of primitive shells          :   60
   total number of contracted shells         :  122
   total number of cartesian basis functions :  385
   total number of SCF-basis functions       :  338


 integral neglect threshold       :  0.87E-13
 integral storage threshold THIZE :  0.10E-04
 integral storage threshold THIME :         5

 RI-J AUXILIARY BASIS SET information:

              we will work with the 1s 3p 5d 7f 9g ... basis set
              ...i.e. with spherical basis functions...

   type   atoms  prim   cont   basis
   ---------------------------------------------------------------------------
    n        1     70     49   cc-pVTZ   [6s4p3d1f1g|12s5p4d2f1g]
    c        7     70     49   cc-pVTZ   [6s4p3d1f1g|12s5p4d2f1g]
    h        7     16     11   cc-pVTZ   [3s1p1d|5s2p1d]
   ---------------------------------------------------------------------------
   total:   15    672    469
   ---------------------------------------------------------------------------

   total number of primitive shells          :   56
   total number of contracted shells         :  155
   total number of cartesian basis functions :  572
   total number of SCF-basis functions       :  469


 symmetry group of the molecule :   c1 

 the group has the following generators :
   c1(z)

    1 symmetry operations found

 there are 1 real representations :   a   

 maximum number of shells which are related by symmetry :  1


    mo occupation :
   irrep   mo's   occupied
    a      338       21
 
 number of basis functions   :                    338
 number of occupied orbitals :                     21
 
  
           ------------------
           density functional
           ------------------
 Dummy atoms with grid-point found.
 DFT quadrature threshold dgrenze tightened by factor 1/10.

 TPSS meta-GGA functional
 exchange:    LDA + TPSS
 correlation: LDA (PW) + TPSS
 Dummy atoms with grid-point found.
 DFT quadrature threshold dgrenze tightened by factor 1/10.

 Dummy atoms with grid-point found.
 DFT quadrature threshold dgrenze tightened by factor 1/10.


 iterations will be done with small grid
  
 spherical integration : Lebedev's spherical grid
 spherical gridsize    :                     5
    i.e. gridpoints    :                   590
 value for diffuse not defined
 radial integration    : Chebyshev 2nd kind (scaling 3)
 radial gridsize       :                     8
 integration cells     :                    15
 partition function    : becke
 partition sharpness   :                     3
  
 found dummy atom(s) with basis: included in dft

 biggest AO integral is expected to be     4.229423036
  
           ------------------------
               RI-J - INFORMATION
           ------------------------
 Contributions to RI integral batches: 
  neglected integral batches:                  1376
  direct contribution:                            0
  memory contribution:                  6127
 Memory core needed for (P|Q) and Cholesky      2 MByte
 Memory core minimum needed except of (P|Q)     1 MByte
 Total minimum memory core needed (sum)         3 MByte
  
 ****************************************
 Memory allocated for RI-J   260 MByte
 ****************************************
                                            

          ------------------------
          nuclear repulsion energy  :   206.266071321    
          ------------------------


         -----------------
         -S,T+V- integrals
         -----------------

 1e-integrals will be neglected if expon. factor < 0.868042E-14
 Difference densities >>NOT<< switched on in parallel ridft!

 DIIS switched on: error vector is FDS-SDF
 Max. Iterations for DIIS is     :   4
 DIIS matrix (see manual) 
    Scaling factor of diagonals  :  1.200
    threshold for scaling factor :  0.000

 scf convergence criterion : increment of total energy < .1000000D-08
                  and increment of one-electron energy < .1000000D-05

  MOs are in ASCII format !


 automatic virtual orbital shift switched on 
      shift if e(lumo)-e(homo) < 0.10000000    


 reading orbital data $scfmo  from file mos
 orbital characterization : expanded
 mo provided and orthogonalized by Cholesky decomposition

 DSCF restart information will be dumped onto file mos


 Starting SCF iterations

          Overall gridpoints after grid construction =         83080

 ITERATION  ENERGY          1e-ENERGY        2e-ENERGY     RMS[dD(SAO)]   TOL
   1  -247.44797633172    -733.00346198     279.28941432    0.000D+00 0.866D-13
                            Exc = -35.1459471524     Coul =  314.435361477    
                              N = 41.999992599    
                            current damping = 0.700
 
          max. resid. norm for Fia-block=  2.809D-01 for orbital     15a         
          max. resid. fock norm         =  1.307D+01 for orbital    312a         

 ITERATION  ENERGY          1e-ENERGY        2e-ENERGY     RMS[dD(SAO)]   TOL
   2  -248.22264392412    -739.26242994     284.77371470    0.329D-02 0.866D-13
                            Exc = -35.6335081560     Coul =  320.407222854    
                              N = 41.999990582    
                            current damping = 0.650
 
          Norm of current diis error:  2.0507    
          max. resid. norm for Fia-block=  1.353D-01 for orbital      1a         
          max. resid. fock norm         =  2.250D-01 for orbital    334a         

 ITERATION  ENERGY          1e-ENERGY        2e-ENERGY     RMS[dD(SAO)]   TOL
   3  -248.36096294015    -740.92952215     286.30248789    0.172D-02 0.866D-13
                            Exc = -35.8404118617     Coul =  322.142899753    
                              N = 41.999992252    
                            current damping = 0.550
 
          Norm of current diis error:  1.0151    
          max. resid. norm for Fia-block=  5.461D-02 for orbital     21a         
          max. resid. fock norm         =  6.055D-02 for orbital      7a         

 ITERATION  ENERGY          1e-ENERGY        2e-ENERGY     RMS[dD(SAO)]   TOL
   4  -248.40556890403    -741.61405845     286.94241823    0.146D-02 0.866D-13
                            Exc = -35.9090702671     Coul =  322.851488494    
                              N = 41.999992306    
                            current damping = 0.450
 
          Norm of current diis error: 0.40166    
          max. resid. norm for Fia-block=  2.722D-02 for orbital      7a         
          max. resid. fock norm         =  4.348D-02 for orbital    333a         

 ITERATION  ENERGY          1e-ENERGY        2e-ENERGY     RMS[dD(SAO)]   TOL
   5  -248.41156370521    -742.31887410     287.64123908    0.714D-03 0.866D-13
                            Exc = -35.9856569369     Coul =  323.626896012    
                              N = 41.999993221    
                            current damping = 0.350
 
          Norm of current diis error: 0.22935    
          max. resid. norm for Fia-block=  1.352D-02 for orbital     21a         
          max. resid. fock norm         =  1.442D-02 for orbital     21a         
          mo-orthogonalization: Cholesky decomposition

 ITERATION  ENERGY          1e-ENERGY        2e-ENERGY     RMS[dD(SAO)]   TOL
   6  -248.41388216004    -742.18680968     287.50685619    0.620D-03 0.866D-13
                            Exc = -35.9761497064     Coul =  323.483005901    
                              N = 41.999993418    
                            current damping = 0.400
 
          Norm of current diis error: 0.10202    
          max. resid. norm for Fia-block=  3.242D-03 for orbital     19a         
          max. resid. fock norm         =  7.486D-03 for orbital    334a         

 ITERATION  ENERGY          1e-ENERGY        2e-ENERGY     RMS[dD(SAO)]   TOL
   7  -248.41428795864    -742.24110715     287.56074787    0.108D-03 0.866D-13
                            Exc = -35.9822458014     Coul =  323.542993671    
                              N = 41.999993727    
                            current damping = 0.450
 
          Norm of current diis error: 0.31712E-01
          max. resid. norm for Fia-block=  1.468D-03 for orbital     13a         
          max. resid. fock norm         =  2.176D-03 for orbital    143a         

 ITERATION  ENERGY          1e-ENERGY        2e-ENERGY     RMS[dD(SAO)]   TOL
   8  -248.41432199747    -742.28026734     287.59987403    0.314D-04 0.866D-13
                            Exc = -35.9860582233     Coul =  323.585932249    
                              N = 41.999993652    
                            current damping = 0.300
 
          Norm of current diis error: 0.11689E-01
          max. resid. norm for Fia-block=  3.566D-04 for orbital     17a         
          max. resid. fock norm         =  5.799D-04 for orbital    143a         

 ITERATION  ENERGY          1e-ENERGY        2e-ENERGY     RMS[dD(SAO)]   TOL
   9  -248.41432765534    -742.28233012     287.60193115    0.161D-04 0.866D-13
                            Exc = -35.9861380538     Coul =  323.588069199    
                              N = 41.999993687    
                            current damping = 0.150
 
          Norm of current diis error: 0.18818E-02
          max. resid. norm for Fia-block=  1.030D-04 for orbital     20a         
          max. resid. fock norm         =  1.839D-04 for orbital    263a         

 ITERATION  ENERGY          1e-ENERGY        2e-ENERGY     RMS[dD(SAO)]   TOL
  10  -248.41432769063    -742.27475847     287.59435946    0.468D-05 0.866D-13
                            Exc = -35.9856936483     Coul =  323.580053106    
                              N = 41.999993699    
                            current damping = 0.200
 
          Norm of current diis error: 0.16938E-02
          max. resid. norm for Fia-block=  5.633D-05 for orbital     20a         
          max. resid. fock norm         =  7.360D-05 for orbital    332a         
          mo-orthogonalization: Cholesky decomposition

 ITERATION  ENERGY          1e-ENERGY        2e-ENERGY     RMS[dD(SAO)]   TOL
  11  -248.41432779028    -742.27769729     287.59729818    0.161D-05 0.866D-13
                            Exc = -35.9858765621     Coul =  323.583174739    
                              N = 41.999993699    
                            current damping = 0.250
 
          Norm of current diis error: 0.60508E-03
          max. resid. norm for Fia-block=  2.581D-05 for orbital     19a         
          max. resid. fock norm         =  4.149D-05 for orbital    334a         

 ITERATION  ENERGY          1e-ENERGY        2e-ENERGY     RMS[dD(SAO)]   TOL
  12  -248.41432780012    -742.27816136     287.59776224    0.876D-06 0.866D-13
                            Exc = -35.9858934072     Coul =  323.583655651    
                              N = 41.999993696    
                            current damping = 0.100
 
          Norm of current diis error: 0.36857E-03
          max. resid. norm for Fia-block=  1.298D-05 for orbital     19a         
          max. resid. fock norm         =  2.010D-05 for orbital    334a         

 ITERATION  ENERGY          1e-ENERGY        2e-ENERGY     RMS[dD(SAO)]   TOL
  13  -248.41432780499    -742.27844135     287.59804222    0.502D-06 0.866D-13
                            Exc = -35.9859251499     Coul =  323.583967369    
                              N = 41.999993697    
                            current damping = 0.050
 
          Norm of current diis error: 0.14044E-03
          max. resid. norm for Fia-block=  5.708D-06 for orbital     21a         
          max. resid. fock norm         =  7.663D-06 for orbital    333a         

 ITERATION  ENERGY          1e-ENERGY        2e-ENERGY     RMS[dD(SAO)]   TOL
  14  -248.41432780562    -742.27809837     287.59769924    0.244D-06 0.866D-13
                            Exc = -35.9858959643     Coul =  323.583595209    
                              N = 41.999993697    
                            current damping = 0.100
 
          Norm of current diis error: 0.69904E-04
          max. resid. norm for Fia-block=  2.024D-06 for orbital     13a         
          max. resid. fock norm         =  2.683D-06 for orbital    332a         

 DENSITY CONVERGED !


 ITERATION  ENERGY          1e-ENERGY        2e-ENERGY     RMS[dD(SAO)]   TOL
  15  -248.41432780582    -742.27817432     287.59777519    0.777D-07 0.866D-13
                            Exc = -35.9859029749     Coul =  323.583678167    
                              N = 41.999993697    
                            current damping = 0.150
 
          Norm of current diis error: 0.17066E-04
          max. resid. norm for Fia-block=  8.389D-07 for orbital     20a         
          max. resid. fock norm         =  1.096D-06 for orbital    332a         
          mo-orthogonalization: Cholesky decomposition

 DENSITY CONVERGED !


 ITERATION  ENERGY          1e-ENERGY        2e-ENERGY     RMS[dD(SAO)]   TOL
  16  -248.41432780583    -742.27821375     287.59781462    0.207D-07 0.866D-13
                            Exc = -35.9859052578     Coul =  323.583719876    
                              N = 41.999993697    
                            current damping = 0.050
 
          Norm of current diis error: 0.10953E-04
          max. resid. norm for Fia-block=  3.006D-07 for orbital     20a         
          max. resid. fock norm         =  4.558D-07 for orbital    143a         

 ENERGY & DENSITY CONVERGED !

          Overall gridpoints after grid construction =        240605

 ITERATION  ENERGY          1e-ENERGY        2e-ENERGY     RMS[dD(SAO)]   TOL
  17  -248.41419493670    -742.27819529     287.59792904    0.923D-08 0.866D-13
                            Exc = -35.9857714234     Coul =  323.583700461    
                              N = 42.000002418    
                            current damping = 0.100
 
          Norm of current diis error: 0.24411E-05
          max. resid. norm for Fia-block=  9.860D-08 for orbital     19a         
          max. resid. fock norm         =  1.412D-07 for orbital    333a         

 End of SCF iterations

   convergence criteria satisfied after    17 iterations


                  ------------------------------------------ 
                 |  total energy      =   -248.41419493670  |
                  ------------------------------------------ 
                 :  kinetic energy    =    247.02969460473  :
                 :  potential energy  =   -495.44388954143  :
                 :  virial theorem    =      1.99442664566  :
                 :  wavefunction norm =      1.00000000000  :
                  .......................................... 


 <geterg> : there is no data group $energy 


 <skperg> : $end is missing 


 orbitals $scfmo  will be written to file mos

    irrep                 17a         18a         19a         20a         21a   
 eigenvalues H         -0.36467    -0.32805    -0.26572    -0.24362    -0.21972
            eV          -9.9232     -8.9267     -7.2307     -6.6293     -5.9790
 occupation              2.0000      2.0000      2.0000      2.0000      2.0000 

    irrep                 22a         23a         24a         25a         26a   
 eigenvalues H         -0.05927    -0.04508     0.02974     0.05925     0.06572
            eV          -1.6127     -1.2267      0.8094      1.6123      1.7883
 
 
 
 
 ==============================================================================
                           electrostatic moments
 ==============================================================================

 reference point for electrostatic moments:    0.00000   0.00000   0.00000

 
              nuc           elec       ->  total
 ------------------------------------------------------------------------------
                          charge      
 ------------------------------------------------------------------------------
          42.000000     -42.000000      -0.000000
 
 ------------------------------------------------------------------------------
                       dipole moment  
 ------------------------------------------------------------------------------
   x     -26.371799      26.217546      -0.154253
   y       0.165729      -0.164846       0.000883
   z     -27.140077      26.272371      -0.867706
 
   | dipole moment | =     0.8813 a.u. =     2.2401 debye 
 
 ------------------------------------------------------------------------------
                     quadrupole moment
 ------------------------------------------------------------------------------
  xx      21.992568     -49.512317     -27.519749
  yy     180.314681    -202.254387     -21.939706
  zz     188.700544    -214.738182     -26.037638
  xy      -0.640860       0.623338      -0.017523
  xz      47.533143     -46.782899       0.750244
  yz      -0.005781       0.010109       0.004328
 
     1/3  trace=     -25.165698
     anisotropy=       5.172317
 
 ==============================================================================
 


    ------------------------------------------------------------------------
         total  cpu-time :  6 minutes and  1 seconds
         total wall-time :  44.01 seconds
    ------------------------------------------------------------------------

   ****  ridft : all done  ****


    2018-04-28 21:10:00.295 

