 this is node-proc. number 0 running on node c-5-27.local
 the total number of node-proc. spawned is  33

 dscfserver (c-5-27.local) : TURBOMOLE V7.2 ( 21471 ) 7 Nov 2017 at 16:15:16
 Copyright (C) 2017 TURBOMOLE GmbH, Karlsruhe


    2018-02-19 20:01:18.778 

 
    0:00:19 ---- Start global counter...
    0:06:41 ---- ... finished.
 
    0:07:10 ---- Start global counter...
    0:13:44 ---- ... finished.
 
    0:14:11 ---- Start global counter...
    0:20:19 ---- ... finished.
 
    0:20:46 ---- Start global counter...
    0:26:28 ---- ... finished.
 
    0:26:55 ---- Start global counter...
    0:32:14 ---- ... finished.
 
    0:32:48 ---- Start global counter...
    0:37:32 ---- ... finished.
 
    0:38:01 ---- Start global counter...
    0:42:19 ---- ... finished.
 
    0:42:47 ---- Start global counter...
    0:46:40 ---- ... finished.
 
    0:47:09 ---- Start global counter...
    0:50:42 ---- ... finished.
 
    0:51:10 ---- Start global counter...
    0:54:26 ---- ... finished.
 
    0:55:00 ---- Start global counter...
    0:57:52 ---- ... finished.
 
    0:58:20 ---- Start global counter...
    1:00:53 ---- ... finished.
 
    1:01:22 ---- Start global counter...
    1:03:32 ---- ... finished.
 
    1:04:00 ---- Start global counter...
    1:05:53 ---- ... finished.
 
    1:06:22 ---- Start global counter...
    1:07:55 ---- ... finished.
 
    1:08:29 ---- Start global counter...
    1:10:26 ---- ... finished.
 
    1:10:54 ---- Start global counter...
    1:12:57 ---- ... finished.
 
    1:13:23 ---- ByeBye Tag received


 ! Total wall-clock time in seconds  :     4403.3
 ! Time (sec) spent in global counter:     3889.1
 ! So-called SERIAL wall-clock time  :      514.1

  *** Regular termination of server ***
 total turnaround time of dscfserver  4403.72 sec
 cpu elapsed by dscfserver process    3892.29 sec 

   ***  dscf server : all done  ***


    2018-02-19 21:14:42.498 

