STARTING ricc2 WITH 32 PROCESSES!
RUNNING PROGRAM /sopt/TURBOMOLE/7.2.1-official/bin/em64t-unknown-linux-gnu_mpi/ricc2_mpi.
PLEASE WAIT UNTIL ricc2 HAS FINISHED.
MACHINEFILE is ./hostlist
 this is node-proc. number 1 running on node c-17-9.gp.local
 the total number of node-proc. spawned is  33
  parallel platform: MPP or cluster with fast interconnect

   OpenMP run-time library returned nthreads =  1

 ricc2 (c-17-9.gp.local) : TURBOMOLE V7.2 ( 21471 ) 8 Nov 2017 at 11:57:07
 Copyright (C) 2017 TURBOMOLE GmbH, Karlsruhe


    2018-02-21 11:17:52.764 



                              R I C C 2 - PROGRAM

                          the quantum chemistry groups
                             at the universities in
                           Karlsruhe, Bochum & Mainz
                                   Germany



   *-----------------------------------------------------------------------*
   |                   program will spawn 32 process(es)                   |
   |           this is the master node and will use  1 thread(s)           |
   *-----------------------------------------------------------------------*


              +--------------------------------------------------+
              | Atomic coordinate, charge and isotop information |
              +--------------------------------------------------+

                    atomic coordinates            atom    charge  isotop
          4.43447124   -4.75586619   -6.29164637    c      6.000     0
          7.00194567   -5.03917058   -2.60788986    c      6.000     0
          6.16291965   -2.30038691    3.63738772    c      6.000     0
          7.58664886   -4.31129364    0.03188123    c      6.000     0
          2.22134772   -3.71535362   -7.65452807    c      6.000     0
         -1.51221397   -1.47454553   -7.30870014    c      6.000     0
          7.87685627   -7.32744330   -6.14279865    c      6.000     0
          4.04133166   -0.99267910    4.96856027    c      6.000     0
          4.01712438    1.66743662    5.14225613    c      6.000     0
          2.11050238   -2.44607113    6.08769397    c      6.000     0
         -3.40200777   -0.24178057   -5.61008615    c      6.000     0
         -3.42550429    2.41120288   -5.34381635    c      6.000     0
         -5.16149597   -1.75485674   -4.30181595    c      6.000     0
          2.02010760    2.90376840    6.53734104    c      6.000     0
         -7.03953249   -0.56453767   -2.71816461    c      6.000     0
          0.11997473   -1.19405182    7.47528860    c      6.000     0
         -5.31380528    3.58327486   -3.75597932    c      6.000     0
          4.95128306   -3.94530879   -3.84149648    c      6.000     0
         -7.06952338    2.06730125   -2.49009496    c      6.000     0
          0.12948541    1.44175434    7.66541329    c      6.000     0
         -1.87348568   -1.53780479   -9.93174225    c      6.000     0
          8.47284847   -2.71564457    4.86493304    c      6.000     0
         -5.15228966   -4.44737496   -4.46695719    c      6.000     0
          5.89314300    3.20613788    3.96210842    c      6.000     0
         -1.61241426    4.00039580   -6.55620576    c      6.000     0
          2.04075508   -5.13661204    5.89961484    c      6.000     0
          9.92784765   -4.85033346    1.13285113    c      6.000     0
          1.97879378   -3.91655323  -10.27831233    c      6.000     0
         -8.80084760   -2.11524890   -1.39633324    c      6.000     0
          2.03380215    5.59326457    6.72718372    c      6.000     0
         -5.32303902    6.26776589   -3.50521529    c      6.000     0
         -1.81626295   -2.68861301    8.60261294    c      6.000     0
         10.36924276   -4.02346229    3.58999282    c      6.000     0
         -0.10547394   -2.79443651  -11.42497173    c      6.000     0
         -6.87931806   -5.87297900   -3.15829367    c      6.000     0
          5.82796131    5.78864728    4.17511408    c      6.000     0
         -1.67506369    6.57339985   -6.24964607    c      6.000     0
         -8.72669179   -4.69842070   -1.60620726    c      6.000     0
          0.13869410   -6.50573659    7.00959381    c      6.000     0
          3.88847166    6.99744946    5.58911724    c      6.000     0
         -1.81216122   -5.27162160    8.37839337    c      6.000     0
         -3.56103040    7.72589185   -4.71973916    c      6.000     0
          0.49538116   -2.54055638   -6.19706663    n      7.000     0
          5.73150656   -3.08017087    1.26919686    n      7.000     0
          8.50479357   -6.74304039   -3.76450206    n      7.000     0
          5.91662184   -6.45461461   -7.48078405    n      7.000     0
         -3.72948226   -5.36542827   -5.62196921    h      1.000     0
          3.84724839   -2.46807414   -2.96161964    h      1.000     0
         -0.15038170    3.13384540   -7.70379565    h      1.000     0
          7.36473427    2.29789997    2.85992123    h      1.000     0
          3.50519198   -6.09331107    4.83083608    h      1.000     0
         -6.81766489   -7.92012045   -3.28061067    h      1.000     0
         -8.46967394    2.95451768   -1.27628905    h      1.000     0
         -1.36673421    2.37942536    8.72022708    h      1.000     0
         11.33127906   -5.88043176    0.05195247    h      1.000     0
          3.41087115   -4.92102678  -11.34580140    h      1.000     0
         -3.52057937   -0.63682769  -10.75845800    h      1.000     0
        -10.06607550   -5.86072166   -0.57392629    h      1.000     0
          8.74619835   -2.03971280    6.78240421    h      1.000     0
          0.53173501    6.50490696    7.79163450    h      1.000     0
        -10.19852438   -1.19899458   -0.20164976    h      1.000     0
         -3.30911837   -1.72987750    9.63883941    h      1.000     0
         -6.76246872    7.12853759   -2.31885791    h      1.000     0
          9.09476167   -8.68312600   -7.09613874    h      1.000     0
          7.25958387    6.93019105    3.24807297    h      1.000     0
          0.09983864   -8.54775175    6.81596442    h      1.000     0
         -0.26602911    7.74926600   -7.16854926    h      1.000     0
          3.87673097    9.04442144    5.74526535    h      1.000     0
         -3.30831054   -6.38682444    9.23211727    h      1.000     0
         -3.58419253    9.76784625   -4.50953886    h      1.000     0
         -0.35256866   -2.89430347  -13.46047889    h      1.000     0
         12.16994788   -4.39082227    4.50472675    h      1.000     0
 
       center of nuclear mass  :    0.97951265   -1.22409327   -0.80700858
       center of nuclear charge:    0.95351249   -1.20038611   -0.78616873

              +--------------------------------------------------+
              |               basis set information              |
              +--------------------------------------------------+

              we will work with the 1s 3p 5d 7f 9g ... basis set
              ...i.e. with spherical basis functions...

   type   atoms  prim   cont   basis
   ---------------------------------------------------------------------------
    c       42     50     30   cc-pVTZ   [4s3p2d1f|18s5p2d1f]
    n        4     50     30   cc-pVTZ   [4s3p2d1f|18s5p2d1f]
    h       26     16     14   cc-pVTZ   [3s2p1d|5s2p1d]
   ---------------------------------------------------------------------------
   total:   72   2716   1744
   ---------------------------------------------------------------------------

   total number of primitive shells          :   60
   total number of contracted shells         :  616
   total number of cartesian basis functions : 2000
   total number of SCF-basis functions       : 1744


 symmetry group of the molecule :   c1 

 the group has the following generators :
   c1(z)

    1 symmetry operations found

 there are 1 real representations :   a   


   =========================================================================


     restricted closed shell calculation for the wavefunction models:
               MP2        - Second Order Moeller Plesset PT


     global parameters for ricc2 program:

        hard restart (reuse of interm.) :  disabled
        soft restart (reuse of vectors) :  disabled
        threshold for vector function   :    0.100000E-05
        convergence threshold energy    :    0.100000E-06
        linear dependence threshold     :    0.100000E-13
        global print level              :      1
        maximum number of iterations    :   300
        maximum number DIIS vectors     :    10
        max. dim. of reduced space      :   100
        core memory limit (MB)          :  8000


     MP2 energy only: Energy will be calculated directly from T2 amplitudes!

     Scratch Directory : MPI-TEMPDIR-001/


   =========================================================================

    der. integral neglect threshold  :  0.10E-07
    integral neglect threshold       :  0.17E-11
    integral storage threshold THIZE :  0.10E-04
    integral storage threshold THIME :         5


                  +---------------------------------------------+
                  | RI-SCF/CPHF auxiliary basis set information |
                  +---------------------------------------------+

              we will work with the 1s 3p 5d 7f 9g ... basis set
              ...i.e. with spherical basis functions...

   type   atoms  prim   cont   basis
   ---------------------------------------------------------------------------
    c       42     79     79   cc-pVTZ   [10s7p5d2f1g|10s7p5d2f1g]
    n        4     79     79   cc-pVTZ   [10s7p5d2f1g|10s7p5d2f1g]
    h       26     30     30   cc-pVTZ   [4s3p2d1f|4s3p2d1f]
   ---------------------------------------------------------------------------
   total:   72   4414   4414
   ---------------------------------------------------------------------------

   total number of primitive shells          :   60
   total number of contracted shells         : 1410
   total number of cartesian basis functions : 5326
   total number of SCF-basis functions       : 4414


                  +------------------------------------------+
                  |     Auxiliary basis set information      |
                  +------------------------------------------+

              we will work with the 1s 3p 5d 7f 9g ... basis set
              ...i.e. with spherical basis functions...

   type   atoms  prim   cont   basis
   ---------------------------------------------------------------------------
    c       42     81     81   cc-pVTZ   [8s6p5d3f1g|8s6p5d3f1g]
    n        4     81     81   cc-pVTZ   [8s6p5d3f1g|8s6p5d3f1g]
    h       26     30     30   cc-pVTZ   [4s3p2d1f|4s3p2d1f]
   ---------------------------------------------------------------------------
   total:   72   4506   4506
   ---------------------------------------------------------------------------

   total number of primitive shells          :   56
   total number of contracted shells         : 1318
   total number of cartesian basis functions : 5556
   total number of SCF-basis functions       : 4506


 maximum number of shells which are related by symmetry :  1


 The symmetry information takes   1 MB

*---------------------------------------------------------------------*
|               simplified C1 algorithm will be applied               |
*---------------------------------------------------------------------*
  MOs are in ASCII format !


 reading orbital data $scfmo  from file mos
 orbital characterization : scfconv=7



              +--------------------------------------------+
              | list of orbitals that will be kept frozen: |
              +--------------------------------------------+
              |   irrep   index      energy     occ/vir    |
              +--------------------------------------------+
              |   a         1      -15.5692     occupied   |
              |   a         2      -15.5689     occupied   |
              |   a         3      -15.5674     occupied   |
              |   a         4      -15.5673     occupied   |
              |   a         5      -11.3089     occupied   |
              |   a         6      -11.2968     occupied   |
              |   a         7      -11.2968     occupied   |
              |   a         8      -11.2875     occupied   |
              |   a         9      -11.2875     occupied   |
              |   a        10      -11.2870     occupied   |
              |   a        11      -11.2870     occupied   |
              |   a        12      -11.2624     occupied   |
              |   a        13      -11.2622     occupied   |
              |   a        14      -11.2473     occupied   |
              |   a        15      -11.2472     occupied   |
              |   a        16      -11.2462     occupied   |
              |   a        17      -11.2462     occupied   |
              |   a        18      -11.2461     occupied   |
              |   a        19      -11.2460     occupied   |
              |   a        20      -11.2450     occupied   |
              |   a        21      -11.2449     occupied   |
              |   a        22      -11.2446     occupied   |
              |   a        23      -11.2443     occupied   |
              |   a        24      -11.2438     occupied   |
              |   a        25      -11.2436     occupied   |
              |   a        26      -11.2430     occupied   |
              |   a        27      -11.2426     occupied   |
              |   a        28      -11.2360     occupied   |
              |   a        29      -11.2359     occupied   |
              |   a        30      -11.2359     occupied   |
              |   a        31      -11.2356     occupied   |
              |   a        32      -11.2350     occupied   |
              |   a        33      -11.2349     occupied   |
              |   a        34      -11.2344     occupied   |
              |   a        35      -11.2341     occupied   |
              |   a        36      -11.2340     occupied   |
              |   a        37      -11.2339     occupied   |
              |   a        38      -11.2330     occupied   |
              |   a        39      -11.2330     occupied   |
              |   a        40      -11.2329     occupied   |
              |   a        41      -11.2327     occupied   |
              |   a        42      -11.2321     occupied   |
              |   a        43      -11.2318     occupied   |
              |   a        44      -11.2305     occupied   |
              |   a        45      -11.2302     occupied   |
              |   a        46      -11.2301     occupied   |
              +--------------------------------------------+



   Molecular Orbital Statistic:
   ============================

   -----------------------------
   orbitals in total:
   -----------------------------
    frozen occupied :     46
    active occupied :    107
    active virtual  :   1591
    frozen virtual  :      0
    all together    :   1744
   -----------------------------


     time in riccmos       cpu:  3.14 sec    wall:  3.21 sec    ratio:  1.0

     total memory allocated for calculation of (Q|P)**(-1/2) : 233 MiB


     calculation of (P|Q) ...
     time in lp2sym        cpu:  0.30 sec    wall:  0.30 sec    ratio:  1.0


     calculation of the Cholesky decomposition of (P|Q)**(-1) ...
     time in invmetri      cpu: 17.26 sec    wall:  3.30 sec    ratio:  5.2

   threshold for RMS(d[D]) in SCF was     :  0.10E-06
   integral neglect threshold             :  0.17E-11
   derivative integral neglect threshold  :  0.10E-07


   =========================================================================

     Energy of reference wave function is -1824.0137065940000
     Maximum orbital residual is           0.3933561552479E-05


     Number of symmetry-nonredundant auxiliary basis functions:     4506

     Block lengths for integral files:
        frozen occupied (BOI):        2 MiB
        active occupied (BJI):        4 MiB
        active virtual  (BAI):       55 MiB
        frozen virtual  (BGI):        0 MiB
               general  (BTI):       60 MiB

   =========================================================================




   **************************************************************************
   *                                                                        *
   *          OPTIMIZATION OF THE GROUND STATE CLUSTER AMPLITUDES           *
   *                                                                        *
   **************************************************************************


   Iter.   MP2 energy       Norm(Omega)    Norm(t1)  Norm(t2)     cpu    wall
   ...........................................................................
    1  -1831.3533965245     ------          0.00000   0.94993    8.03    8.05
   ...........................................................................


     time in total         cpu:  8 min  2 s  wall:  8 min  3 s  ratio:  1.0


     **********************************************************************
     *                                                                    *
     *   RHF  energy                             :  -1824.0137065940      *
     *   MP2 correlation energy (doubles)        :     -7.3396899305      *
     *                                                                    *
     *   Final MP2 energy                        :  -1831.3533965245      *
     *                                                                    *
     *    E(S)   =     -4.4119381792      E(T)   =     -2.9277517513      *
     *    E(OS)  =     -5.3878554297      E(SS)  =     -1.9518345009      *
     *                                                                    *
     *   SCS-MP2 energy                          :  -1831.1297446099      *
     *   (computed with  C(OS) =   1.2000  and  C(SS) =   0.3333)         *
     *                                                                    *
     *   SOS-MP2 energy                          :  -1831.0179186526      *
     *   (computed with  C(OS) =   1.3000)                                *
     *                                                                    *
     *   Norm of MP1 T2 amplitudes               :      0.9499269342      *
     *                                                                    *
     **********************************************************************



    ------------------------------------------------------------------------
         total  cpu-time :  9 minutes and 25 seconds
         total wall-time :  9 minutes and 13 seconds
    ------------------------------------------------------------------------

   ****  ricc2 : all done  ****


    2018-02-21 11:27:05.359 

 ricc2 ended normally
 ricc2 ended normally
 ricc2 ended normally
 ricc2 ended normally
 ricc2 ended normally
 ricc2 ended normally
 ricc2 ended normally
 ricc2 ended normally
 ricc2 ended normally
 ricc2 ended normally
 ricc2 ended normally
 ricc2 ended normally
 ricc2 ended normally
 ricc2 ended normally
 ricc2 ended normally
 ricc2 ended normally
 ricc2 ended normally
 ricc2 ended normally
 ricc2 ended normally
 ricc2 ended normally
 ricc2 ended normally
 ricc2 ended normally
 ricc2 ended normally
 ricc2 ended normally
