 this is node-proc. number 0 running on node c-14-37.gp.local
 the total number of node-proc. spawned is 181

 dscfserver (c-14-37.gp.local) : TURBOMOLE V7.2 ( 21471 ) 7 Nov 2017 at 16:15:16
 Copyright (C) 2017 TURBOMOLE GmbH, Karlsruhe


    2018-02-19 18:34:09.174 

 
    0:11:23 ---- Start global counter...
    1:25:57 ---- ... finished.
 
    1:34:11 ---- Start global counter...
    2:41:47 ---- ... finished.
 
    2:49:59 ---- Start global counter...
    3:55:52 ---- ... finished.
 
    4:03:53 ---- Start global counter...
    5:05:36 ---- ... finished.
 
    5:13:52 ---- Start global counter...
    6:09:32 ---- ... finished.
 
    6:21:21 ---- Start global counter...
    7:09:52 ---- ... finished.
 
    7:17:55 ---- Start global counter...
    8:01:25 ---- ... finished.
 
    8:09:29 ---- Start global counter...
    8:49:25 ---- ... finished.
 
    8:57:33 ---- Start global counter...
    9:34:06 ---- ... finished.
 
    9:42:19 ---- Start global counter...
   10:15:02 ---- ... finished.
 
   10:26:47 ---- Start global counter...
   10:56:24 ---- ... finished.
 
   11:04:25 ---- Start global counter...
   11:31:06 ---- ... finished.
 
   11:39:13 ---- Start global counter...
   12:01:47 ---- ... finished.
 
   12:09:57 ---- Start global counter...
   12:29:32 ---- ... finished.
 
   12:37:41 ---- Start global counter...
   12:54:56 ---- ... finished.
 
   13:06:40 ---- Start global counter...
   13:23:49 ---- ... finished.
 
   13:32:04 ---- Start global counter...
   13:50:11 ---- ... finished.
 
   13:56:58 ---- ByeBye Tag received


 ! Total wall-clock time in seconds  :    50217.8
 ! Time (sec) spent in global counter:    40658.7
 ! So-called SERIAL wall-clock time  :     9559.2

  *** Regular termination of server ***
 total turnaround time of dscfserver 50219.44 sec
 cpu elapsed by dscfserver process   40668.65 sec 

   ***  dscf server : all done  ***


    2018-02-20 08:31:08.609 

