
   OpenMP run-time library returned nthreads =  8
 operating system is UNIX !

 dscf (c-17-4) : TURBOMOLE V7.3 ( 22142 ) 4 Jul 2018 at 18:12:42
 Copyright (C) 2018 TURBOMOLE GmbH, Karlsruhe


    2019-04-02 13:13:03.855 



                             d s c f - program

                   idea & directorship : reinhart ahlrichs
                   program development : marco haeser
                                         michael baer
                           dft version : oliver treutler


                          quantum chemistry group
                          universitaet  karlsruhe
                                  germany




                          References             
                                                 
          TURBOMOLE:                             
              R. Ahlrichs, M. Baer, M. Haeser, H. Horn, and
              C. Koelmel
              Electronic structure calculations on workstation
              computers: the program system TURBOMOLE
              Chem. Phys. Lett. 162: 165 (1989)
          Density Functional:                              
              O. Treutler and R. Ahlrichs                      
              Efficient Molecular Numerical Integration Schemes
              J. Chem. Phys. 102: 346 (1995)                   
          Parallel Version:                                
              Performance of parallel TURBOMOLE for Density    
              Functional Calculations                          
              M. v. Arnim and R. Ahlrichs                      
              J. Comp. Chem. 19: 1746 (1998)                   
                                         




              +--------------------------------------------------+
              | Atomic coordinate, charge and isotop information |
              +--------------------------------------------------+

                    atomic coordinates            atom    charge  isotop
         -1.32695823   -0.10593853    0.01878815    o      8.000     0
         -1.93166525    1.60017432   -0.02171052    h      1.000     0
          0.48664428    0.07959809    0.00986248    h      1.000     0
 
       center of nuclear mass  :   -1.25931974   -0.00009951    0.01602283
       center of nuclear charge:   -1.20606868    0.08322642    0.01384572

              +--------------------------------------------------+
              |               basis set information              |
              +--------------------------------------------------+

              we will work with the 1s 3p 5d 7f 9g ... basis set
              ...i.e. with spherical basis functions...

   type   atoms  prim   cont   basis
   ---------------------------------------------------------------------------
    o        1     77     57   def2-QZVP   [7s4p3d2f1g|15s8p3d2f1g]
    h        2     33     30   def2-QZVP   [4s3p2d1f|7s3p2d1f]
   ---------------------------------------------------------------------------
   total:    3    143    117
   ---------------------------------------------------------------------------

   total number of primitive shells          :   42
   total number of contracted shells         :   37
   total number of cartesian basis functions :  142
   total number of SCF-basis functions       :  117


 integral neglect threshold       :  0.23E-12
 integral storage threshold THIZE :  0.10E-04
 integral storage threshold THIME :         5


 DENSITY CONVERGENCE CHECK SWITCHED ON !
 SCF CONVERGENCE IF RMS(delta[D]) <     0.1000000000E-06


 symmetry group of the molecule :   c1 

 the group has the following generators :
   c1(z)

    1 symmetry operations found

 there are 1 real representations :   a   

 maximum number of shells which are related by symmetry :  1


    mo occupation :
   irrep   mo's   occupied
    a      117        5
 
 number of basis functions   :                    117
 number of occupied orbitals :                      5
 

 automatic virtual orbital shift switched on 
      shift if e(lumo)-e(homo) < 0.10000000    


          ------------------------
          nuclear repulsion energy  :   9.15671409308    
          ------------------------


         -----------------
         -S,T+V- integrals
         -----------------

 1e-integrals will be neglected if expon. factor < 0.235349E-13
 
   Difference densities algorithm switched on.
   The maximal number of linear combinations of
   difference densities is                    20 .

 DIIS switched on: error vector is FDS-SDF
 Max. Iterations for DIIS is     :   5
 DIIS matrix (see manual) 
    Scaling factor of diagonals  :  1.200
    threshold for scaling factor :  0.000

 scf convergence criterion : increment of total energy < .1000000D-08
                  and increment of one-electron energy < .1000000D-05

  MOs are in ASCII format !


 reading orbital data $scfmo  from file mos
 orbital characterization : scfconv=9

 DSCF restart information will be dumped onto file mos

 
                                              current damping :  0.700
 ITERATION  ENERGY          1e-ENERGY        2e-ENERGY     RMS[dD(SAO)]   TOL
   1  -76.056525589999    -122.95964329     37.746403608    0.000D+00 0.235D-12
          max. resid. norm for Fia-block=  2.614D-01 for orbital      1a         
          max. resid. fock norm         =  8.018D-01 for orbital    117a         
          Delta Eig. =    62.2315032149 eV 
 
                                              current damping :  0.650
 ITERATION  ENERGY          1e-ENERGY        2e-ENERGY     RMS[dD(SAO)]   TOL
   2  -76.064557612510    -122.97709175     37.755820040    0.821D-03 0.149D-12
          Norm of current diis error: 0.28507    
          max. resid. norm for Fia-block=  1.144D-01 for orbital      1a         
          max. resid. fock norm         =  3.290D-01 for orbital    117a         
          Delta Eig. =    26.2078766288 eV 
 
                                              current damping :  0.500
 ITERATION  ENERGY          1e-ENERGY        2e-ENERGY     RMS[dD(SAO)]   TOL
   3  -76.066057627303    -122.99479285     37.772021135    0.380D-03 0.114D-12
          Norm of current diis error: 0.11574    
          max. resid. norm for Fia-block=  4.608D-02 for orbital      1a         
          max. resid. fock norm         =  1.300D-01 for orbital    117a         
          Delta Eig. =    11.4111620280 eV 
 
                                              current damping :  0.350
 ITERATION  ENERGY          1e-ENERGY        2e-ENERGY     RMS[dD(SAO)]   TOL
   4  -76.066322355234    -122.99799287     37.774956417    0.175D-03 0.961D-13
          Norm of current diis error: 0.39559E-01
          max. resid. norm for Fia-block=  1.553D-02 for orbital      1a         
          max. resid. fock norm         =  4.339D-02 for orbital    117a         
          Delta Eig. =     4.2212067063 eV 
 
                                              current damping :  0.200
 ITERATION  ENERGY          1e-ENERGY        2e-ENERGY     RMS[dD(SAO)]   TOL
   5  -76.066357367265    -123.00100232     37.777930856    0.710D-04 0.871D-13
          Norm of current diis error: 0.11056E-01
          max. resid. norm for Fia-block=  4.049D-03 for orbital      1a         
          max. resid. fock norm         =  1.130D-02 for orbital    117a         
 mo-orthogonalization: Cholesky decomposition
          Delta Eig. =     1.2409670857 eV 
 
                                              current damping :  0.050
 ITERATION  ENERGY          1e-ENERGY        2e-ENERGY     RMS[dD(SAO)]   TOL
   6  -76.066360790079    -123.00141459     37.778339707    0.248D-04 0.810D-13
          Norm of current diis error: 0.24511E-02
          max. resid. norm for Fia-block=  6.788D-04 for orbital      1a         
          max. resid. fock norm         =  1.884D-03 for orbital    117a         
          Delta Eig. =     0.2353369529 eV 
 
                                              current damping :  0.050
 ITERATION  ENERGY          1e-ENERGY        2e-ENERGY     RMS[dD(SAO)]   TOL
   7  -76.066361084178    -123.00180594     37.778730758    0.771D-05 0.766D-13
          Norm of current diis error: 0.67167E-03
          max. resid. norm for Fia-block=  1.146D-04 for orbital      3a         
          max. resid. fock norm         =  1.146D-04 for orbital      3a         
          Delta Eig. =     0.0132228744 eV 
 
                                              current damping :  0.100
 ITERATION  ENERGY          1e-ENERGY        2e-ENERGY     RMS[dD(SAO)]   TOL
   8  -76.066361116100    -123.00168990     37.778614691    0.230D-05 0.730D-13
          Norm of current diis error: 0.20398E-03
          max. resid. norm for Fia-block=  4.037D-05 for orbital      5a         
          max. resid. fock norm         =  4.037D-05 for orbital      5a         
          Delta Eig. =     0.0012380172 eV 
 
                                              current damping :  0.150
 ITERATION  ENERGY          1e-ENERGY        2e-ENERGY     RMS[dD(SAO)]   TOL
   9  -76.066361119424    -123.00181927     37.778744059    0.701D-06 0.702D-13
          Norm of current diis error: 0.73890E-04
          max. resid. norm for Fia-block=  1.464D-05 for orbital      3a         
          max. resid. fock norm         =  1.464D-05 for orbital      3a         
          Delta Eig. =     0.0007179815 eV 
 
                                              current damping :  0.200
 ITERATION  ENERGY          1e-ENERGY        2e-ENERGY     RMS[dD(SAO)]   TOL
  10  -76.066361119717    -123.00175580     37.778680590    0.196D-06 0.683D-13
          Norm of current diis error: 0.17838E-04
          max. resid. norm for Fia-block=  3.329D-06 for orbital      5a         
          max. resid. fock norm         =  3.329D-06 for orbital      5a         
 mo-orthogonalization: Cholesky decomposition
          Delta Eig. =     0.0001262585 eV 

 DENSITY CONVERGED !

 
                                              current damping :  0.250
 ITERATION  ENERGY          1e-ENERGY        2e-ENERGY     RMS[dD(SAO)]   TOL
  11  -76.066361119734    -123.00176950     37.778694290    0.481D-07 0.669D-13
          Norm of current diis error: 0.40983E-05
          max. resid. norm for Fia-block=  8.675D-07 for orbital      5a         
          max. resid. fock norm         =  8.675D-07 for orbital      5a         
          Delta Eig. =     0.0000115843 eV 

 ENERGY & DENSITY CONVERGED !

 
                                              current damping :  0.100
 ITERATION  ENERGY          1e-ENERGY        2e-ENERGY     RMS[dD(SAO)]   TOL
  12  -76.066361119736    -123.00176974     37.778694526    0.163D-07 0.669D-13
          max. resid. norm for Fia-block=  2.262D-07 for orbital      5a         
          max. resid. fock norm         =  2.262D-07 for orbital      5a         

 convergence criteria satisfied after    12 iterations


                  ------------------------------------------ 
                 |  total energy      =    -76.06636111974  |
                  ------------------------------------------ 
                 :  kinetic energy    =     75.98196332542  :
                 :  potential energy  =   -152.04832444516  :
                 :  virial theorem    =      1.99889047152  :
                 :  wavefunction norm =      1.00000000000  :
                  .......................................... 


 orbitals $scfmo  will be written to file mos

    irrep                  1a          2a          3a          4a          5a   
 eigenvalues H        -20.56427    -1.35028    -0.71293    -0.58493    -0.50978
            eV        -559.5867    -36.7432    -19.4000    -15.9169    -13.8719
 occupation              2.0000      2.0000      2.0000      2.0000      2.0000 

    irrep                  6a          7a          8a          9a         10a   
 eigenvalues H          0.10391     0.14840     0.34156     0.37772     0.38652
            eV           2.8277      4.0383      9.2943     10.2785     10.5180
 
 
 
 
 ==============================================================================
                           electrostatic moments
 ==============================================================================

 reference point for electrostatic moments:    0.00000   0.00000   0.00000

 
              nuc           elec       ->  total
 ------------------------------------------------------------------------------
                          charge      
 ------------------------------------------------------------------------------
          10.000000     -10.000000       0.000000
 
 ------------------------------------------------------------------------------
                       dipole moment  
 ------------------------------------------------------------------------------
   x     -12.060687      12.490266       0.429580
   y       0.832264      -0.157683       0.674581
   z       0.138457      -0.156079      -0.017622
 
   | dipole moment | =     0.7999 a.u. =     2.0333 debye 
 
 ------------------------------------------------------------------------------
                     quadrupole moment
 ------------------------------------------------------------------------------
  xx      18.054699     -22.656108      -4.601409
  yy       2.656678      -6.739459      -4.082782
  zz       0.003393      -5.582706      -5.579313
  xy      -1.927657       0.502323      -1.425334
  xz      -0.152712       0.190988       0.038276
  yz      -0.049879       0.025264      -0.024614
 
     1/3  trace=      -4.754502
     anisotropy=       2.798818
 
 ==============================================================================
 


    ------------------------------------------------------------------------
         total  cpu-time :  32.69 seconds
         total wall-time :   4.45 seconds
    ------------------------------------------------------------------------

   ****  dscf : all done  ****


    2019-04-02 13:13:08.296 

