 operating system is UNIX !

 ridft (c-9-411.gp.local) : TURBOMOLE V7.2 ( 21454 ) 4 Oct 2017 at 12:48:15
 Copyright (C) 2017 TURBOMOLE GmbH, Karlsruhe


    2018-05-18 15:36:26.354 



                                  r i d f t

                        DFT program with RI approximation 
                                for coulomb part 




                                                 
                                 References:     
                                                 
          TURBOMOLE:                             
              R. Ahlrichs, M. Baer, M. Haeser, H. Horn, and
              C. Koelmel
              Electronic structure calculations on workstation
              computers: the program system TURBOMOLE
              Chem. Phys. Lett. 162: 165 (1989)
          Density Functional:                              
              O. Treutler and R. Ahlrichs                      
              Efficient Molecular Numerical Integration Schemes
              J. Chem. Phys. 102: 346 (1995)                   
          Parallel Version:                                
              Performance of parallel TURBOMOLE for Density    
              Functional Calculations                          
              M. v. Arnim and R. Ahlrichs                      
              J. Comp. Chem. 19: 1746 (1998)                   
          RI-J Method:                                     
              Auxiliary Basis Sets to approximate Coulomb      
              Potentials                                       
              Chem. Phys. Lett. 240: 283 (1995)                
              K. Eichkorn, O. Treutler, H. Oehm, M. Haeser     
              and R. Ahlrichs                                  
              Chem. Phys. Lett. 242: 652 (1995)                
                                                           
              Auxiliary Basis Sets for Main Row Atoms and their
              Use to approximate Coulomb Potentials            
              K. Eichkorn, F. Weigend, O. Treutler and         
              R. Ahlrichs                                      
              Theo. Chem. Acc. 97: 119 (1997)                   
                                                           
              Accurate Coulomb-fitting basis sets for H to Rn 
              F. Weigend                                        
              Phys. Chem. Chem. Phys. 8: 1057 (2006)            
                                                           
          Multipole accelerated RI-J (MARI-J):             
              Fast evaluation of the Coulomb potential for     
              electron densities using multipole accelerated   
              resolution of identity approximation             
              M. Sierka, A. Hogekamp and R. Ahlrichs           
              J. Chem. Phys. 118: 9136 (2003)                  
          RI-JK Method:                                     
              A fully direct RI-HF algorithm: Implementation,
              optimised auxiliary basis sets, demonstration of
              accuracy and efficiency                         
              F. Weigend                                      
              Phys. Chem. Chem. Phys. 4: 4285 (2002)           
          Two-component HF and DFT with spin-orbit coupling:  
              Self-consistent treatment of spin-orbit         
              interactions with efficient Hartree-Fock and    
              density functional methods                      
              M. K. Armbruster, F. Weigend, C. van Wüllen and 
              W. Klopper                                      
              Phys. Chem. Chem. Phys. 10: 1748 (2008)         
          Relativistic all-electron 2c calculations           
              An efficient implementation of two-component    
              relativistic exact-decoupling methods for large 
              molecules                                       
              D. Peng, N. Middendorf, F. Weigend, M. Reiher   
              J. Chem. Phys. 138, 184105 (2013)               
                                         




              +--------------------------------------------------+
              |      general information about current run       |
              +--------------------------------------------------+

 
 PBE functional
 exchange:    LDA + PBE
 correlation: LDA (PW) + PBE
 A DFT calculation using the RI-J approximation will be carried out.
 Allocatable memory for RI due to $ricore (MB):                   500


              +--------------------------------------------------+
              | Atomic coordinate, charge and isotop information |
              +--------------------------------------------------+

                    atomic coordinates            atom    charge  isotop
          1.54720758    1.63304905    0.35580919    c      6.000     0
          2.77055320    3.24403175    0.65142905    h      1.000     0
          2.58702963   -0.73798330   -0.12604130    c      6.000     0
          4.61666967   -0.96727888   -0.20895541    h      1.000     0
          1.00982921   -2.81284449   -0.51379393    c      6.000     0
          1.81574005   -4.65168223   -0.89857893    h      1.000     0
         -1.60459596   -2.51429450   -0.41554404    c      6.000     0
         -2.82905121   -4.12311840   -0.71725162    h      1.000     0
         -2.64464424   -0.14367626    0.07640950    c      6.000     0
         -4.67270062    0.08486340    0.17646651    h      1.000     0
         -1.06824764    1.93017262    0.45784135    c      6.000     0
         -1.87566028    3.76747387    0.84330572    h      1.000     0
 
       center of nuclear mass  :   -0.02891683   -0.44093120   -0.02740178
       center of nuclear charge:   -0.02892804   -0.44093266   -0.02727381

              +--------------------------------------------------+
              |               basis set information              |
              +--------------------------------------------------+

              we will work with the 1s 3p 5d 7f 9g ... basis set
              ...i.e. with spherical basis functions...

   type   atoms  prim   cont   basis
   ---------------------------------------------------------------------------
    c        6     77     57   def2-QZVP   [7s4p3d2f1g|15s8p3d2f1g]
    h        6     33     30   def2-QZVP   [4s3p2d1f|7s3p2d1f]
   ---------------------------------------------------------------------------
   total:   12    660    522
   ---------------------------------------------------------------------------

   total number of primitive shells          :   42
   total number of contracted shells         :  162
   total number of cartesian basis functions :  642
   total number of SCF-basis functions       :  522


 integral neglect threshold       :  0.52E-13
 integral storage threshold THIZE :  0.10E-04
 integral storage threshold THIME :         5

 RI-J AUXILIARY BASIS SET information:

              we will work with the 1s 3p 5d 7f 9g ... basis set
              ...i.e. with spherical basis functions...

   type   atoms  prim   cont   basis
   ---------------------------------------------------------------------------
    c        6     70     49   def2-QZVP   [6s4p3d1f1g|12s5p4d2f1g]
    h        6     16     11   def2-QZVP   [3s1p1d|5s2p1d]
   ---------------------------------------------------------------------------
   total:   12    516    360
   ---------------------------------------------------------------------------

   total number of primitive shells          :   32
   total number of contracted shells         :  120
   total number of cartesian basis functions :  438
   total number of SCF-basis functions       :  360


 symmetry group of the molecule :   c1 

 the group has the following generators :
   c1(z)

    1 symmetry operations found

 there are 1 real representations :   a   

 maximum number of shells which are related by symmetry :  1


    mo occupation :
   irrep   mo's   occupied
    a      522       21
 
 number of basis functions   :                    522
 number of occupied orbitals :                     21
 
  
           ------------------
           density functional
           ------------------
 PBE functional
 exchange:    LDA + PBE
 correlation: LDA (PW) + PBE

 iterations will be done with small grid
  
 spherical integration : Lebedev's spherical grid
 spherical gridsize    :                     5
    i.e. gridpoints    :                   590
 value for diffuse not defined
 radial integration    : Chebyshev 2nd kind (scaling 3)
 radial gridsize       :                     8
 integration cells     :                    12
 partition function    : becke
 partition sharpness   :                     3
  

 biggest AO integral is expected to be     5.262544080
  
           ------------------------
               RI-J - INFORMATION
           ------------------------
 Contributions to RI integral batches: 
  neglected integral batches:                  1441
  direct contribution:                         2225
  memory contribution:                  9537
 Memory core needed for (P|Q) and Cholesky      1 MByte
 Memory core minimum needed except of (P|Q)     2 MByte
 Total minimum memory core needed (sum)         3 MByte
  
 ****************************************
 Memory allocated for RI-J   436 MByte
 ****************************************
                                            

          ------------------------
          nuclear repulsion energy  :   203.684223815    
          ------------------------


         -----------------
         -S,T+V- integrals
         -----------------

 1e-integrals will be neglected if expon. factor < 0.520555E-14
 
   Difference densities algorithm switched on.
   The maximal number of linear combinations of
   difference densities is                    20 .

 DIIS switched on: error vector is FDS-SDF
 Max. Iterations for DIIS is     :   4
 DIIS matrix (see manual) 
    Scaling factor of diagonals  :  1.200
    threshold for scaling factor :  0.000

 scf convergence criterion : increment of total energy < .1000000D-08
                  and increment of one-electron energy < .1000000D-05

  MOs are in ASCII format !


 automatic virtual orbital shift switched on 
      shift if e(lumo)-e(homo) < 0.10000000    


 reading orbital data $scfmo  from file mos
 orbital characterization : expanded
 mo provided and orthogonalized by Cholesky decomposition

 DSCF restart information will be dumped onto file mos


 Starting SCF iterations

          Overall gridpoints after grid construction =         58229

 ITERATION  ENERGY          1e-ENERGY        2e-ENERGY     NORM[dD(SAO)]  TOL
   1  -231.25998431246    -704.55817791     269.61396978    0.000D+00 0.519D-13
                            Exc = -33.4744292867     Coul =  303.088399071    
                              N = 42.000053464    
                            current damping = 0.700
 
          max. resid. norm for Fia-block=  4.985D-01 for orbital      7a         
          max. resid. fock norm         =  4.414D+01 for orbital    444a         

 ITERATION  ENERGY          1e-ENERGY        2e-ENERGY     NORM[dD(SAO)]  TOL
   2  -231.88034553082    -711.65604830     276.09147895    0.126D+01 0.397D-13
                            Exc = -34.1317841453     Coul =  310.223263096    
                              N = 42.000045204    
                            current damping = 0.650
 
          Norm of current diis error:  2.8766    
          max. resid. norm for Fia-block=  1.154D-01 for orbital      5a         
          max. resid. fock norm         =  1.447D-01 for orbital     61a         

 ITERATION  ENERGY          1e-ENERGY        2e-ENERGY     NORM[dD(SAO)]  TOL
   3  -231.99588794357    -712.96293651     277.28282475    0.498D+00 0.277D-13
                            Exc = -34.3024672418     Coul =  311.585291993    
                              N = 42.000038241    
                            current damping = 0.550
 
          Norm of current diis error:  1.3920    
          max. resid. norm for Fia-block=  5.344D-02 for orbital      7a         
          max. resid. fock norm         =  6.201D-02 for orbital      7a         

 ITERATION  ENERGY          1e-ENERGY        2e-ENERGY     NORM[dD(SAO)]  TOL
   4  -232.02988305054    -714.29776245     278.58365559    0.149D+00 0.227D-13
                            Exc = -34.4291421187     Coul =  313.012797705    
                              N = 42.000036693    
                            current damping = 0.450
 
          Norm of current diis error: 0.50608    
          max. resid. norm for Fia-block=  2.042D-02 for orbital      7a         
          max. resid. fock norm         =  2.299D-02 for orbital      7a         

 ITERATION  ENERGY          1e-ENERGY        2e-ENERGY     NORM[dD(SAO)]  TOL
   5  -232.03527524929    -714.47541745     278.75591839    0.355D-01 0.203D-13
                            Exc = -34.4623300140     Coul =  313.218248401    
                              N = 42.000034942    
                            current damping = 0.300
 
          Norm of current diis error: 0.19152    
          max. resid. norm for Fia-block=  7.340D-03 for orbital      7a         
          max. resid. fock norm         =  8.521D-03 for orbital      7a         
          mo-orthogonalization: Cholesky decomposition

 ITERATION  ENERGY          1e-ENERGY        2e-ENERGY     NORM[dD(SAO)]  TOL
   6  -232.03607920481    -714.81052570     279.09022268    0.133D-01 0.193D-13
                            Exc = -34.4898937361     Coul =  313.580116421    
                              N = 42.000034917    
                            current damping = 0.150
 
          Norm of current diis error: 0.51630E-01
          max. resid. norm for Fia-block=  1.783D-03 for orbital     21a         
          max. resid. fock norm         =  2.931D-03 for orbital     74a         

 ITERATION  ENERGY          1e-ENERGY        2e-ENERGY     NORM[dD(SAO)]  TOL
   7  -232.03612758371    -714.69177263     278.97142123    0.248D-02 0.188D-13
                            Exc = -34.4847360055     Coul =  313.456157232    
                              N = 42.000034390    
                            current damping = 0.200
 
          Norm of current diis error: 0.29419E-01
          max. resid. norm for Fia-block=  6.297D-04 for orbital     12a         
          max. resid. fock norm         =  8.064D-04 for orbital     12a         

 ITERATION  ENERGY          1e-ENERGY        2e-ENERGY     NORM[dD(SAO)]  TOL
   8  -232.03614354913    -714.75060376     279.03023640    0.694D-03 0.186D-13
                            Exc = -34.4885096000     Coul =  313.518745999    
                              N = 42.000034494    
                            current damping = 0.250
 
          Norm of current diis error: 0.14918E-02
          max. resid. norm for Fia-block=  5.325D-05 for orbital     20a         
          max. resid. fock norm         =  1.226D-04 for orbital    521a         

 ITERATION  ENERGY          1e-ENERGY        2e-ENERGY     NORM[dD(SAO)]  TOL
   9  -232.03614353607    -714.75216057     279.03179322    0.288D-03 0.183D-13
                            Exc = -34.4886100161     Coul =  313.520403235    
                              N = 42.000034493    
                            current damping = 0.300
 
          Norm of current diis error: 0.16335E-02
          max. resid. norm for Fia-block=  2.783D-05 for orbital     20a         
          max. resid. fock norm         =  7.027D-05 for orbital    521a         

 ITERATION  ENERGY          1e-ENERGY        2e-ENERGY     NORM[dD(SAO)]  TOL
  10  -232.03614359516    -714.75261500     279.03224759    0.370D-04 0.182D-13
                            Exc = -34.4886454582     Coul =  313.520893044    
                              N = 42.000034493    
                            current damping = 0.150
 
          Norm of current diis error: 0.32027E-03
          max. resid. norm for Fia-block=  7.576D-06 for orbital     20a         
          max. resid. fock norm         =  1.803D-05 for orbital      3a         
          mo-orthogonalization: Cholesky decomposition

 ITERATION  ENERGY          1e-ENERGY        2e-ENERGY     NORM[dD(SAO)]  TOL
  11  -232.03614359695    -714.75252761     279.03216020    0.233D-04 0.181D-13
                            Exc = -34.4886471360     Coul =  313.520807331    
                              N = 42.000034491    
                            current damping = 0.200
 
          Norm of current diis error: 0.14827E-03
          max. resid. norm for Fia-block=  4.466D-06 for orbital     21a         
          max. resid. fock norm         =  1.101D-05 for orbital      4a         

 ITERATION  ENERGY          1e-ENERGY        2e-ENERGY     NORM[dD(SAO)]  TOL
  12  -232.03614359722    -714.75248283     279.03211542    0.532D-05 0.180D-13
                            Exc = -34.4886430972     Coul =  313.520758519    
                              N = 42.000034491    
                            current damping = 0.050
 
          Norm of current diis error: 0.87309E-04
          max. resid. norm for Fia-block=  1.872D-06 for orbital     21a         
          max. resid. fock norm         =  4.215D-06 for orbital      2a         

 ITERATION  ENERGY          1e-ENERGY        2e-ENERGY     NORM[dD(SAO)]  TOL
  13  -232.03614359738    -714.75252628     279.03215887    0.606D-06 0.179D-13
                            Exc = -34.4886451444     Coul =  313.520804015    
                              N = 42.000034491    
                            current damping = 0.100
 
          Norm of current diis error: 0.15469E-04
          max. resid. norm for Fia-block=  3.540D-07 for orbital     21a         
          max. resid. fock norm         =  6.497D-07 for orbital      2a         

 ITERATION  ENERGY          1e-ENERGY        2e-ENERGY     NORM[dD(SAO)]  TOL
  14  -232.03614359738    -714.75250366     279.03213625    0.415D-06 0.179D-13
                            Exc = -34.4886439139     Coul =  313.520780163    
                              N = 42.000034491    
                            current damping = 0.150
 
          Norm of current diis error: 0.55619E-05
          max. resid. norm for Fia-block=  1.484D-07 for orbital     20a         
          max. resid. fock norm         =  2.717D-07 for orbital      3a         

 ITERATION  ENERGY          1e-ENERGY        2e-ENERGY     NORM[dD(SAO)]  TOL
  15  -232.03614359739    -714.75251392     279.03214651    0.696D-07 0.178D-13
                            Exc = -34.4886445634     Coul =  313.520791071    
                              N = 42.000034491    
                            current damping = 0.200
 
          Norm of current diis error: 0.30640E-05
          max. resid. norm for Fia-block=  8.580D-08 for orbital     20a         
          max. resid. fock norm         =  1.963D-07 for orbital    521a         
          mo-orthogonalization: Cholesky decomposition

 ENERGY CONVERGED !

          Overall gridpoints after grid construction =        188509

 ITERATION  ENERGY          1e-ENERGY        2e-ENERGY     NORM[dD(SAO)]  TOL
  16  -232.03612601634    -714.75251417     279.03216434    0.445D-07 0.177D-13
                            Exc = -34.4886269841     Coul =  313.520791320    
                              N = 41.999999064    
                            current damping = 0.050
 
          Norm of current diis error: 0.12809E-05
          max. resid. norm for Fia-block=  2.493D-08 for orbital     14a         
          max. resid. fock norm         =  6.223D-08 for orbital      4a         

 End of SCF iterations

   convergence criteria satisfied after    16 iterations


                  ------------------------------------------ 
                 |  total energy      =   -232.03612601634  |
                  ------------------------------------------ 
                 :  kinetic energy    =    231.02828945495  :
                 :  potential energy  =   -463.06441547129  :
                 :  virial theorem    =      1.99565655323  :
                 :  wavefunction norm =      1.00000000000  :
                  .......................................... 


 <geterg> : there is no data group $energy 


 <skperg> : $end is missing 


 orbitals $scfmo  will be written to file mos

    irrep                 17a         18a         19a         20a         21a   
 eigenvalues H         -0.33332    -0.30213    -0.30181    -0.23264    -0.23255
            eV          -9.0702     -8.2213     -8.2127     -6.3305     -6.3280
 occupation              2.0000      2.0000      2.0000      2.0000      2.0000 

    irrep                 22a         23a         24a         25a         26a   
 eigenvalues H         -0.04399    -0.04392     0.00729     0.03331     0.03335
            eV          -1.1970     -1.1951      0.1983      0.9064      0.9075
 
 
 
 
 ==============================================================================
                           electrostatic moments
 ==============================================================================

 reference point for electrostatic moments:    0.00000   0.00000   0.00000

 
              nuc           elec       ->  total
 ------------------------------------------------------------------------------
                          charge      
 ------------------------------------------------------------------------------
          42.000000     -42.000000       0.000000
 
 ------------------------------------------------------------------------------
                       dipole moment  
 ------------------------------------------------------------------------------
   x      -1.214978       1.214733      -0.000244
   y     -18.519172      18.519122      -0.000050
   z      -1.145500       1.147005       0.001505
 
   | dipole moment | =     0.0015 a.u. =     0.0039 debye 
 
 ------------------------------------------------------------------------------
                     quadrupole moment
 ------------------------------------------------------------------------------
  xx     190.540397    -214.493503     -23.953106
  yy     191.447377    -215.618372     -24.170995
  zz       7.299850     -36.559998     -29.260148
  xy       1.054295      -1.040228       0.014067
  xz      -3.081371       2.967992      -0.113379
  yz      36.865664     -35.802366       1.063298
 
     1/3  trace=     -25.794750
     anisotropy=       5.521484
 
 ==============================================================================
 


    ------------------------------------------------------------------------
         total  cpu-time :  1 minutes and 39 seconds
         total wall-time :  5 minutes and 47 seconds
    ------------------------------------------------------------------------

   ****  ridft : all done  ****


    2018-05-18 15:42:13.510 

