 this is node-proc. number 0 running on node c-17-25.gp.local
 the total number of node-proc. spawned is  33

 dscfserver (c-17-25.gp.local) : TURBOMOLE V7.2 ( 21471 ) 7 Nov 2017 at 16:15:16
 Copyright (C) 2017 TURBOMOLE GmbH, Karlsruhe


    2018-02-20 11:01:40.154 

 
    0:01:44 ---- Start global counter...
    0:30:26 ---- ... finished.
 
    0:32:04 ---- Start global counter...
    0:59:01 ---- ... finished.
 
    1:00:38 ---- Start global counter...
    1:27:24 ---- ... finished.
 
    1:29:03 ---- Start global counter...
    1:54:24 ---- ... finished.
 
    1:56:03 ---- Start global counter...
    2:19:36 ---- ... finished.
 
    2:21:45 ---- Start global counter...
    2:43:16 ---- ... finished.
 
    2:44:56 ---- Start global counter...
    3:04:46 ---- ... finished.
 
    3:06:25 ---- Start global counter...
    3:24:08 ---- ... finished.
 
    3:25:49 ---- Start global counter...
    3:42:36 ---- ... finished.
 
    3:44:16 ---- Start global counter...
    3:59:10 ---- ... finished.
 
    4:01:18 ---- Start global counter...
    4:15:12 ---- ... finished.
 
    4:16:52 ---- Start global counter...
    4:29:55 ---- ... finished.
 
    4:31:35 ---- Start global counter...
    4:43:08 ---- ... finished.
 
    4:44:47 ---- Start global counter...
    4:55:39 ---- ... finished.
 
    4:57:18 ---- Start global counter...
    5:06:48 ---- ... finished.
 
    5:08:09 ---- ByeBye Tag received


 ! Total wall-clock time in seconds  :    18489.2
 ! Time (sec) spent in global counter:    16854.5
 ! So-called SERIAL wall-clock time  :     1634.7

  *** Regular termination of server ***
 total turnaround time of dscfserver 18490.34 sec
 cpu elapsed by dscfserver process   16851.83 sec 

   ***  dscf server : all done  ***


    2018-02-20 16:09:50.498 

