           Doing BLAS/Lapack in the master proc. with  8 CPUs.
           SMPCPUS    set: Shared-memory Parallelization with   8 CPUs.

           SMP Parallelization Reference:
           C. van Wullen, J. Comput. Chem. 32 (2011) 1195--1201
 operating system is UNIX !

 ridft (c-12-254.gp.local) : TURBOMOLE V7.2 ( 21454 ) 4 Oct 2017 at 12:48:15
 Copyright (C) 2017 TURBOMOLE GmbH, Karlsruhe


    2018-04-28 21:00:34.863 



                                  r i d f t

                        DFT program with RI approximation 
                                for coulomb part 




                                                 
                                 References:     
                                                 
          TURBOMOLE:                             
              R. Ahlrichs, M. Baer, M. Haeser, H. Horn, and
              C. Koelmel
              Electronic structure calculations on workstation
              computers: the program system TURBOMOLE
              Chem. Phys. Lett. 162: 165 (1989)
          Density Functional:                              
              O. Treutler and R. Ahlrichs                      
              Efficient Molecular Numerical Integration Schemes
              J. Chem. Phys. 102: 346 (1995)                   
          Parallel Version:                                
              Performance of parallel TURBOMOLE for Density    
              Functional Calculations                          
              M. v. Arnim and R. Ahlrichs                      
              J. Comp. Chem. 19: 1746 (1998)                   
          RI-J Method:                                     
              Auxiliary Basis Sets to approximate Coulomb      
              Potentials                                       
              Chem. Phys. Lett. 240: 283 (1995)                
              K. Eichkorn, O. Treutler, H. Oehm, M. Haeser     
              and R. Ahlrichs                                  
              Chem. Phys. Lett. 242: 652 (1995)                
                                                           
              Auxiliary Basis Sets for Main Row Atoms and their
              Use to approximate Coulomb Potentials            
              K. Eichkorn, F. Weigend, O. Treutler and         
              R. Ahlrichs                                      
              Theo. Chem. Acc. 97: 119 (1997)                   
                                                           
              Accurate Coulomb-fitting basis sets for H to Rn 
              F. Weigend                                        
              Phys. Chem. Chem. Phys. 8: 1057 (2006)            
                                                           
          Multipole accelerated RI-J (MARI-J):             
              Fast evaluation of the Coulomb potential for     
              electron densities using multipole accelerated   
              resolution of identity approximation             
              M. Sierka, A. Hogekamp and R. Ahlrichs           
              J. Chem. Phys. 118: 9136 (2003)                  
          RI-JK Method:                                     
              A fully direct RI-HF algorithm: Implementation,
              optimised auxiliary basis sets, demonstration of
              accuracy and efficiency                         
              F. Weigend                                      
              Phys. Chem. Chem. Phys. 4: 4285 (2002)           
          Two-component HF and DFT with spin-orbit coupling:  
              Self-consistent treatment of spin-orbit         
              interactions with efficient Hartree-Fock and    
              density functional methods                      
              M. K. Armbruster, F. Weigend, C. van Wüllen and 
              W. Klopper                                      
              Phys. Chem. Chem. Phys. 10: 1748 (2008)         
          Relativistic all-electron 2c calculations           
              An efficient implementation of two-component    
              relativistic exact-decoupling methods for large 
              molecules                                       
              D. Peng, N. Middendorf, F. Weigend, M. Reiher   
              J. Chem. Phys. 138, 184105 (2013)               
                                         




              +--------------------------------------------------+
              |      general information about current run       |
              +--------------------------------------------------+

 

 DENSITY CONVERGENCE CHECK SWITCHED ON !
 SCF CONVERGENCE IF RMS(delta[D]) <     0.1000000000E-06

 TPSS meta-GGA functional
 exchange:    LDA + TPSS
 correlation: LDA (PW) + TPSS
 A DFT calculation using the RI-J approximation will be carried out.
 Allocatable memory for RI due to $ricore (MB):                  5000


              +--------------------------------------------------+
              | Atomic coordinate, charge and isotop information |
              +--------------------------------------------------+

                    atomic coordinates            atom    charge  isotop
          7.83070283   -2.05168288    0.00094349    n      7.000     0
          8.67587109   -0.33850781    0.00167447    h      1.000     0
          9.44839867   -4.15800525   -0.00189086    c      6.000     0
         11.73393176   -3.87132545   -0.00330664    o      8.000     0
          8.09872144   -6.54316756   -0.00284403    c      6.000     0
          9.16941107   -8.27232508   -0.00499574    h      1.000     0
          5.54727184   -6.55038230   -0.00102971    c      6.000     0
          4.45696933   -8.27563567   -0.00163192    h      1.000     0
          4.15267019   -4.37553270    0.00171117    n      7.000     0
          2.21317573   -4.41605372    0.00299065    h      1.000     0
          5.23505040   -2.02345664    0.00275174    c      6.000     0
          4.00612203   -0.05583920    0.00508819    o      8.000     0
 
       center of nuclear mass  :    7.00034048   -3.62073779    0.00024553
       center of nuclear charge:    6.97062280   -3.67862791    0.00022061

              +--------------------------------------------------+
              |               basis set information              |
              +--------------------------------------------------+

              we will work with the 1s 3p 5d 7f 9g ... basis set
              ...i.e. with spherical basis functions...

   type   atoms  prim   cont   basis
   ---------------------------------------------------------------------------
    n        2     77     55   cc-pVQZ   [5s4p3d2f1g|21s6p3d2f1g]
    h        4     32     30   cc-pVQZ   [4s3p2d1f|6s3p2d1f]
    c        4     77     55   cc-pVQZ   [5s4p3d2f1g|21s6p3d2f1g]
    o        2     77     55   cc-pVQZ   [5s4p3d2f1g|21s6p3d2f1g]
   ---------------------------------------------------------------------------
   total:   12    744    560
   ---------------------------------------------------------------------------

   total number of primitive shells          :  111
   total number of contracted shells         :  160
   total number of cartesian basis functions :  700
   total number of SCF-basis functions       :  560


 integral neglect threshold       :  0.48E-13
 integral storage threshold THIZE :  0.10E-04
 integral storage threshold THIME :         5

 RI-J AUXILIARY BASIS SET information:

              we will work with the 1s 3p 5d 7f 9g ... basis set
              ...i.e. with spherical basis functions...

   type   atoms  prim   cont   basis
   ---------------------------------------------------------------------------
    n        2     70     49   cc-pVQZ   [6s4p3d1f1g|12s5p4d2f1g]
    h        4     16     11   cc-pVQZ   [3s1p1d|5s2p1d]
    c        4     70     49   cc-pVQZ   [6s4p3d1f1g|12s5p4d2f1g]
    o        2     70     49   cc-pVQZ   [6s4p3d1f1g|12s5p4d2f1g]
   ---------------------------------------------------------------------------
   total:   12    624    436
   ---------------------------------------------------------------------------

   total number of primitive shells          :   80
   total number of contracted shells         :  140
   total number of cartesian basis functions :  536
   total number of SCF-basis functions       :  436


 symmetry group of the molecule :   c1 

 the group has the following generators :
   c1(z)

    1 symmetry operations found

 there are 1 real representations :   a   

 maximum number of shells which are related by symmetry :  1


    mo occupation :
   irrep   mo's   occupied
    a      560       29
 
 number of basis functions   :                    560
 number of occupied orbitals :                     29
 
  
           ------------------
           density functional
           ------------------
 TPSS meta-GGA functional
 exchange:    LDA + TPSS
 correlation: LDA (PW) + TPSS

 iterations will be done with small grid
  
 spherical integration : Lebedev's spherical grid
 spherical gridsize    :                     5
    i.e. gridpoints    :                   590
 value for diffuse not defined
 radial integration    : Chebyshev 2nd kind (scaling 3)
 radial gridsize       :                     8
 integration cells     :                    12
 partition function    : becke
 partition sharpness   :                     3
  

 biggest AO integral is expected to be     4.785886462
  
           ------------------------
               RI-J - INFORMATION
           ------------------------
 Contributions to RI integral batches: 
  neglected integral batches:                  1738
  direct contribution:                            0
  memory contribution:                 11142
 Memory core needed for (P|Q) and Cholesky      2 MByte
 Memory core minimum needed except of (P|Q)     2 MByte
 Total minimum memory core needed (sum)         4 MByte
  
 ****************************************
 Memory allocated for RI-J   878 MByte
 ****************************************
                                            

          ------------------------
          nuclear repulsion energy  :   357.228241914    
          ------------------------


         -----------------
         -S,T+V- integrals
         -----------------

 1e-integrals will be neglected if expon. factor < 0.477423E-14
 Difference densities >>NOT<< switched on in parallel ridft!

 DIIS switched on: error vector is FDS-SDF
 Max. Iterations for DIIS is     :   4
 DIIS matrix (see manual) 
    Scaling factor of diagonals  :  1.200
    threshold for scaling factor :  0.000

 scf convergence criterion : increment of total energy < .1000000D-08
                  and increment of one-electron energy < .1000000D-05

  MOs are in ASCII format !


 automatic virtual orbital shift switched on 
      shift if e(lumo)-e(homo) < 0.10000000    


 reading orbital data $scfmo  from file mos
 orbital characterization : expanded
 mo provided and orthogonalized by Cholesky decomposition

 DSCF restart information will be dumped onto file mos


 Starting SCF iterations

          Overall gridpoints after grid construction =         63477

 ITERATION  ENERGY          1e-ENERGY        2e-ENERGY     RMS[dD(SAO)]   TOL
   1  -413.15773804730    -1261.8550471     491.46906712    0.000D+00 0.476D-13
                            Exc = -54.0889352960     Coul =  545.558002413    
                              N = 58.000057912    
                            current damping = 0.700
 
          max. resid. norm for Fia-block=  4.549D-01 for orbital     20a         
          max. resid. fock norm         =  1.083D+01 for orbital    509a         

 ITERATION  ENERGY          1e-ENERGY        2e-ENERGY     RMS[dD(SAO)]   TOL
   2  -414.78389071390    -1268.7371655     496.72503286    0.459D-02 0.476D-13
                            Exc = -54.1076347524     Coul =  550.832667613    
                              N = 58.000043584    
                            current damping = 0.650
 
          Norm of current diis error:  3.1996    
          max. resid. norm for Fia-block=  1.653D-01 for orbital      2a         
          max. resid. fock norm         =  3.660D-01 for orbital    508a         

 ITERATION  ENERGY          1e-ENERGY        2e-ENERGY     RMS[dD(SAO)]   TOL
   3  -414.99494987453    -1271.3970318     499.17384000    0.272D-02 0.476D-13
                            Exc = -54.3798441846     Coul =  553.553684185    
                              N = 58.000035586    
                            current damping = 0.550
 
          Norm of current diis error:  1.5095    
          max. resid. norm for Fia-block=  6.457D-02 for orbital      2a         
          max. resid. fock norm         =  8.721D-02 for orbital    282a         

 ITERATION  ENERGY          1e-ENERGY        2e-ENERGY     RMS[dD(SAO)]   TOL
   4  -415.05473124987    -1271.7951714     499.51219820    0.214D-02 0.476D-13
                            Exc = -54.3138239514     Coul =  553.826022153    
                              N = 58.000031547    
                            current damping = 0.400
 
          Norm of current diis error: 0.66403    
          max. resid. norm for Fia-block=  3.093D-02 for orbital     10a         
          max. resid. fock norm         =  7.640D-02 for orbital    501a         

 ITERATION  ENERGY          1e-ENERGY        2e-ENERGY     RMS[dD(SAO)]   TOL
   5  -415.06299662752    -1272.0844403     499.79320175    0.782D-03 0.476D-13
                            Exc = -54.4069040192     Coul =  554.200105769    
                              N = 58.000029992    
                            current damping = 0.250
 
          Norm of current diis error: 0.43088    
          max. resid. norm for Fia-block=  1.043D-02 for orbital     27a         
          max. resid. fock norm         =  1.433D-02 for orbital    552a         
          mo-orthogonalization: Cholesky decomposition

 ITERATION  ENERGY          1e-ENERGY        2e-ENERGY     RMS[dD(SAO)]   TOL
   6  -415.06813547347    -1272.4178748     500.12149745    0.680D-03 0.476D-13
                            Exc = -54.3982399648     Coul =  554.519737410    
                              N = 58.000028994    
                            current damping = 0.100
 
          Norm of current diis error: 0.10540    
          max. resid. norm for Fia-block=  3.673D-03 for orbital     26a         
          max. resid. fock norm         =  6.402D-03 for orbital    408a         

 ITERATION  ENERGY          1e-ENERGY        2e-ENERGY     RMS[dD(SAO)]   TOL
   7  -415.06821998996    -1272.1843574     499.88789549    0.158D-03 0.476D-13
                            Exc = -54.3820615517     Coul =  554.269957043    
                              N = 58.000028703    
                            current damping = 0.150
 
          Norm of current diis error: 0.85844E-01
          max. resid. norm for Fia-block=  2.200D-03 for orbital     28a         
          max. resid. fock norm         =  3.936D-03 for orbital    556a         

 ITERATION  ENERGY          1e-ENERGY        2e-ENERGY     RMS[dD(SAO)]   TOL
   8  -415.06838755157    -1272.2681492     499.97151972    0.630D-04 0.476D-13
                            Exc = -54.3922635608     Coul =  554.363783279    
                              N = 58.000028653    
                            current damping = 0.200
 
          Norm of current diis error: 0.30818E-01
          max. resid. norm for Fia-block=  9.614D-04 for orbital     26a         
          max. resid. fock norm         =  2.137D-03 for orbital    538a         

 ITERATION  ENERGY          1e-ENERGY        2e-ENERGY     RMS[dD(SAO)]   TOL
   9  -415.06840101554    -1272.3175187     500.02087572    0.498D-04 0.476D-13
                            Exc = -54.3956812876     Coul =  554.416557012    
                              N = 58.000028733    
                            current damping = 0.050
 
          Norm of current diis error: 0.21244E-01
          max. resid. norm for Fia-block=  6.742D-04 for orbital     29a         
          max. resid. fock norm         =  1.328D-03 for orbital    485a         

 ITERATION  ENERGY          1e-ENERGY        2e-ENERGY     RMS[dD(SAO)]   TOL
  10  -415.06841037718    -1272.2979059     500.00125363    0.375D-04 0.476D-13
                            Exc = -54.3922052080     Coul =  554.393458837    
                              N = 58.000028682    
                            current damping = 0.100
 
          Norm of current diis error: 0.12971E-01
          max. resid. norm for Fia-block=  2.898D-04 for orbital     23a         
          max. resid. fock norm         =  5.327D-04 for orbital    485a         
          mo-orthogonalization: Cholesky decomposition

 ITERATION  ENERGY          1e-ENERGY        2e-ENERGY     RMS[dD(SAO)]   TOL
  11  -415.06841491529    -1272.2925365     499.99587970    0.115D-04 0.476D-13
                            Exc = -54.3931836793     Coul =  554.389063379    
                              N = 58.000028680    
                            current damping = 0.050
 
          Norm of current diis error: 0.27129E-02
          max. resid. norm for Fia-block=  7.036D-05 for orbital     24a         
          max. resid. fock norm         =  9.273D-05 for orbital     23a         

 ITERATION  ENERGY          1e-ENERGY        2e-ENERGY     RMS[dD(SAO)]   TOL
  12  -415.06841503687    -1272.2965046     499.99984764    0.131D-05 0.476D-13
                            Exc = -54.3931462007     Coul =  554.392993844    
                              N = 58.000028687    
                            current damping = 0.100
 
          Norm of current diis error: 0.15244E-02
          max. resid. norm for Fia-block=  3.577D-05 for orbital     14a         
          max. resid. fock norm         =  5.758D-05 for orbital    556a         

 ITERATION  ENERGY          1e-ENERGY        2e-ENERGY     RMS[dD(SAO)]   TOL
  13  -415.06841507692    -1272.2957534     499.99909642    0.787D-06 0.476D-13
                            Exc = -54.3931511415     Coul =  554.392247565    
                              N = 58.000028683    
                            current damping = 0.150
 
          Norm of current diis error: 0.69841E-03
          max. resid. norm for Fia-block=  1.934D-05 for orbital     27a         
          max. resid. fock norm         =  3.711D-05 for orbital    501a         

 ITERATION  ENERGY          1e-ENERGY        2e-ENERGY     RMS[dD(SAO)]   TOL
  14  -415.06841508541    -1272.2951247     499.99846768    0.619D-06 0.476D-13
                            Exc = -54.3931397650     Coul =  554.391607440    
                              N = 58.000028683    
                            current damping = 0.050
 
          Norm of current diis error: 0.35805E-03
          max. resid. norm for Fia-block=  1.136D-05 for orbital     26a         
          max. resid. fock norm         =  2.719D-05 for orbital    538a         

 ITERATION  ENERGY          1e-ENERGY        2e-ENERGY     RMS[dD(SAO)]   TOL
  15  -415.06841508766    -1272.2953083     499.99865135    0.557D-06 0.476D-13
                            Exc = -54.3931423727     Coul =  554.391793720    
                              N = 58.000028684    
                            current damping = 0.100
 
          Norm of current diis error: 0.23009E-03
          max. resid. norm for Fia-block=  5.433D-06 for orbital     29a         
          max. resid. fock norm         =  1.311D-05 for orbital    538a         
          mo-orthogonalization: Cholesky decomposition

 ITERATION  ENERGY          1e-ENERGY        2e-ENERGY     RMS[dD(SAO)]   TOL
  16  -415.06841508920    -1272.2953878     499.99873076    0.258D-06 0.476D-13
                            Exc = -54.3931462670     Coul =  554.391877025    
                              N = 58.000028684    
                            current damping = 0.050
 
          Norm of current diis error: 0.54084E-04
          max. resid. norm for Fia-block=  1.935D-06 for orbital     28a         
          max. resid. fock norm         =  3.100D-06 for orbital    556a         

 DENSITY CONVERGED !


 ITERATION  ENERGY          1e-ENERGY        2e-ENERGY     RMS[dD(SAO)]   TOL
  17  -415.06841508920    -1272.2953120     499.99865499    0.627D-07 0.476D-13
                            Exc = -54.3931436552     Coul =  554.391798644    
                              N = 58.000028684    
                            current damping = 0.100
 
          Norm of current diis error: 0.54472E-04
          max. resid. norm for Fia-block=  1.047D-06 for orbital     28a         
          max. resid. fock norm         =  2.224D-06 for orbital    556a         

 DENSITY CONVERGED !


 ITERATION  ENERGY          1e-ENERGY        2e-ENERGY     RMS[dD(SAO)]   TOL
  18  -415.06841508928    -1272.2953236     499.99866663    0.240D-07 0.476D-13
                            Exc = -54.3931437925     Coul =  554.391810418    
                              N = 58.000028684    
                            current damping = 0.150
 
          Norm of current diis error: 0.12874E-04
          max. resid. norm for Fia-block=  3.069D-07 for orbital     24a         
          max. resid. fock norm         =  6.722D-07 for orbital    555a         

 ENERGY & DENSITY CONVERGED !

          Overall gridpoints after grid construction =        199859

 ITERATION  ENERGY          1e-ENERGY        2e-ENERGY     RMS[dD(SAO)]   TOL
  19  -415.06831529254    -1272.2953456     499.99878836    0.534D-08 0.476D-13
                            Exc = -54.3930444026     Coul =  554.391832762    
                              N = 57.999999070    
                            current damping = 0.050
 
          Norm of current diis error: 0.80256E-05
          max. resid. norm for Fia-block=  1.665D-07 for orbital     27a         
          max. resid. fock norm         =  2.952D-07 for orbital    514a         

 End of SCF iterations

   convergence criteria satisfied after    19 iterations


                  ------------------------------------------ 
                 |  total energy      =   -415.06831529254  |
                  ------------------------------------------ 
                 :  kinetic energy    =    413.55025369059  :
                 :  potential energy  =   -828.61856898313  :
                 :  virial theorem    =      1.99634262230  :
                 :  wavefunction norm =      1.00000000000  :
                  .......................................... 


 <geterg> : there is no data group $energy 


 <skperg> : $end is missing 


 orbitals $scfmo  will be written to file mos

    irrep                 25a         26a         27a         28a         29a   
 eigenvalues H         -0.34046    -0.25892    -0.25717    -0.23366    -0.22940
            eV          -9.2646     -7.0457     -6.9980     -6.3584     -6.2422
 occupation              2.0000      2.0000      2.0000      2.0000      2.0000 

    irrep                 30a         31a         32a         33a         34a   
 eigenvalues H         -0.08086    -0.02991    -0.01415     0.03210     0.03571
            eV          -2.2002     -0.8139     -0.3851      0.8735      0.9718
 
 
 
 
 ==============================================================================
                           electrostatic moments
 ==============================================================================

 reference point for electrostatic moments:    0.00000   0.00000   0.00000

 
              nuc           elec       ->  total
 ------------------------------------------------------------------------------
                          charge      
 ------------------------------------------------------------------------------
          58.000000     -58.000000       0.000000
 
 ------------------------------------------------------------------------------
                       dipole moment  
 ------------------------------------------------------------------------------
   x     404.296123    -405.495403      -1.199281
   y    -213.360419     212.065345      -1.295074
   z       0.012795      -0.012951      -0.000155
 
   | dipole moment | =     1.7651 a.u. =     4.4864 debye 
 
 ------------------------------------------------------------------------------
                     quadrupole moment
 ------------------------------------------------------------------------------
  xx    3242.173965   -3297.199932     -55.025966
  yy    1082.562286   -1105.764543     -23.202257
  zz       0.000482     -34.084635     -34.084152
  xy   -1565.541925    1567.644991       2.103066
  xz      -0.271035       0.277940       0.006905
  yz       0.241121      -0.244337      -0.003216
 
     1/3  trace=     -37.437458
     anisotropy=      28.251207
 
 ==============================================================================
 


    ------------------------------------------------------------------------
         total  cpu-time : 14 minutes and  9 seconds
         total wall-time :  1 minutes and 55 seconds
    ------------------------------------------------------------------------

   ****  ridft : all done  ****


    2018-04-28 21:02:29.790 

