Using OpenMPI from /sopt/mpi/openmpi-1.8.6/intel_15.0.3/bin/mpiexec
STARTING ridft ON 8 PROCESSORS!
RUNNING PROGRAM /beegfs/modfac/apps/TURBOMOLE/7.0_intel/bin/em64t-unknown-linux-gnu_mpi/ridft_mpi.
PLEASE WAIT UNTIL ridft HAS FINISHED.
Look for the output in slave1.output.
  this is node-proc. number 1 running on node c-16-32.local
  the total number of node-proc. spawned is            7
  parallel platform: MPP, or cluster with fast interconnect

 ridft (c-16-32.local) : TURBOMOLE V7.0( ) 6 Jul 2015 at 19:34:44
 Copyright (C) 2015 TURBOMOLE GmbH, Karlsruhe


    2017-11-09 10:35:57.753 



                                  r i d f t

                        DFT program with RI approximation 
                                for coulomb part 




                                                 
                                 References:     
                                                 
          TURBOMOLE:                             
              R. Ahlrichs, M. Baer, M. Haeser, H. Horn, and
              C. Koelmel
              Electronic structure calculations on workstation
              computers: the program system TURBOMOLE
              Chem. Phys. Lett. 162: 165 (1989)
          Density Functional:                              
              O. Treutler and R. Ahlrichs                      
              Efficient Molecular Numerical Integration Schemes
              J. Chem. Phys. 102: 346 (1995)                   
          Parallel Version:                                
              Performance of parallel TURBOMOLE for Density    
              Functional Calculations                          
              M. v. Arnim and R. Ahlrichs                      
              J. Comp. Chem. 19: 1746 (1998)                   
          RI-J Method:                                     
              Auxiliary Basis Sets to approximate Coulomb      
              Potentials                                       
              Chem. Phys. Lett. 240: 283 (1995)                
              K. Eichkorn, O. Treutler, H. Oehm, M. Haeser     
              and R. Ahlrichs                                  
              Chem. Phys. Lett. 242: 652 (1995)                
                                                           
              Auxiliary Basis Sets for Main Row Atoms and their
              Use to approximate Coulomb Potentials            
              K. Eichkorn, F. Weigend, O. Treutler and         
              R. Ahlrichs                                      
              Theo. Chem. Acc. 97: 119 (1997)                   
                                                           
              Accurate Coulomb-fitting basis sets for H to Rn 
              F. Weigend                                        
              Phys. Chem. Chem. Phys. 8: 1057 (2006)            
                                                           
          Multipole accelerated RI-J (MARI-J):             
              Fast evaluation of the Coulomb potential for     
              electron densities using multipole accelerated   
              resolution of identity approximation             
              M. Sierka, A. Hogekamp and R. Ahlrichs           
              J. Chem. Phys. 118: 9136 (2003)                  
          RI-JK Method:                                     
              A fully direct RI-HF algorithm: Implementation,
              optimised auxiliary basis sets, demonstration of
              accuracy and efficiency                         
              F. Weigend                                      
              Phys. Chem. Chem. Phys. 4: 4285 (2002)           
          Two-component HF and DFT with spin-orbit coupling:  
              Self-consistent treatment of spin-orbit         
              interactions with efficient Hartree-Fock and    
              density functional methods                      
              M. K. Armbruster, F. Weigend, C. van Wüllen and 
              W. Klopper                                      
              Phys. Chem. Chem. Phys. 10: 1748 (2008)         
          Relativistic all-electron 2c calculations           
              An efficient implementation of two-component    
              relativistic exact-decoupling methods for large 
              molecules                                       
              D. Peng, N. Middendorf, F. Weigend, M. Reiher   
              J. Chem. Phys. 138, 184105 (2013)               
                                         


 


              +--------------------------------------------------+
              |      general information about current run       |
              +--------------------------------------------------+

 

 SCF run will be profiled !


 DENSITY CONVERGENCE CHECK SWITCHED ON !
 SCF CONVERGENCE IF RMS(delta[D]) <     0.1000000000E-06

 TPSS meta-GGA functional
 exchange:    LDA + TPSS
 correlation: LDA (PW) + TPSS
 A DFT calculation using the RI-J approximation will be carried out.
 Allocatable memory for RI due to $ricore (MB):       30000


              +--------------------------------------------------+
              | Atomic coordinate, charge and isotop information |
              +--------------------------------------------------+

                    atomic coordinates            atom    charge  isotop
         -0.01886314    0.58096630    2.23141740    c      6.000     0
          0.47457167    2.73388731    3.07772986    o      8.000     0
         -0.41898054   -1.58586152    4.05152111    c      6.000     0
         -0.15969443    0.07354608   -0.16025597    o      8.000     0
          1.37566228   -2.59923771    4.25222045    h      1.000     0
         -1.82716477   -2.90582560    3.32620401    h      1.000     0
         -0.97961810   -0.88385042    5.90682337    h      1.000     0
          2.25233307    6.14136487    1.52277709    na    11.000     0
 
       center of nuclear mass  :    0.61092359    2.04298906    2.08136296
       center of nuclear charge:    0.55324998    1.84752847    2.17317186

              +--------------------------------------------------+
              |               basis set information              |
              +--------------------------------------------------+

              we will work with the 1s 3p 5d 7f 9g ... basis set
              ...i.e. with spherical basis functions...

   type   atoms  prim   cont   basis
   ---------------------------------------------------------------------------
    c        2     77     55   cc-pVQZ   [5s4p3d2f1g|21s6p3d2f1g]
    o        2     77     55   cc-pVQZ   [5s4p3d2f1g|21s6p3d2f1g]
    h        3     32     30   cc-pVQZ   [4s3p2d1f|6s3p2d1f]
    na       1    152     59   cc-pVQZ   [6s5p3d2f1g|51s21p3d2f1g]
   ---------------------------------------------------------------------------
   total:    8    556    369
   ---------------------------------------------------------------------------

   total number of primitive shells          :  156
   total number of contracted shells         :  107
   total number of cartesian basis functions :  459
   total number of SCF-basis functions       :  369


 integral neglect threshold       :  0.73E-13
 integral storage threshold THIZE :  0.10E-04
 integral storage threshold THIME :         5

 RI-J AUXILIARY BASIS SET information:

              we will work with the 1s 3p 5d 7f 9g ... basis set
              ...i.e. with spherical basis functions...

   type   atoms  prim   cont   basis
   ---------------------------------------------------------------------------
    c        2     70     49   cc-pVQZ   [6s4p3d1f1g|12s5p4d2f1g]
    o        2     70     49   cc-pVQZ   [6s4p3d1f1g|12s5p4d2f1g]
    h        3     16     11   cc-pVQZ   [3s1p1d|5s2p1d]
    na       1     77     56   universal   [8s4p4d1f1g|14s5p5d2f1g]
   ---------------------------------------------------------------------------
   total:    8    405    285
   ---------------------------------------------------------------------------

   total number of primitive shells          :   83
   total number of contracted shells         :   93
   total number of cartesian basis functions :  349
   total number of SCF-basis functions       :  285


 symmetry group of the molecule :   c1 

 the group has the following generators :
   c1(z)

    1 symmetry operations found

 there are 1 real representations :   a   

 maximum number of shells which are related by symmetry :  1


    mo occupation :
   irrep   mo's   occupied
    a      369       21
 
 number of basis functions   :          369
 number of occupied orbitals :           21
 
  
           ------------------
           density functional
           ------------------
 TPSS meta-GGA functional
 exchange:    LDA + TPSS
 correlation: LDA (PW) + TPSS
 grinp -> nfun, dfgga, dfhybrid 
           5 F F
 iterations will be done with small grid
  
 spherical integration : Lebedev's spherical grid
 spherical gridsize    :           5
    i.e. gridpoints    :         590
 value for diffuse not defined
 radial integration    : Chebyshev 2nd kind (scaling 3)
 radial gridsize       :           8
 integration cells     :           8
 partition function    : becke
 partition sharpness   :           3
  

 <rddim> : input of entry tasksize
           from data group '$pardft' failed !

               Default values taken

 <rddim> : input of entry memdiv
           from data group '$pardft' failed !

               Default values taken
  RIDFT: memory allocation for DFT gridpoints
  MEMORY is divided by 1 as DEFAULT
 Each node can hold at most  the            1 -th part
 of the gridpoints    

 biggest AO integral is expected to be     6.588274874
  
           ------------------------
               RI-J - INFORMATION
           ------------------------
 
 
 **************************************************
 *      MEMORY ALLOCATION FOR PARALLEL RI-DFT     *
 **************************************************
 
 
MEMORY FOR (MU NU/ ALPHA), SEQUENTIAL RUN              30000 MByte
 
            DIFFERENCE IN MEMORY NEED:       DIAG./SLAVE  
 
      TOTAL DIFFERENCE :                      7 MByte
 
      difference in xcore:                    1 MByte
      difference in fatmat:                   2 MByte
      getcor calls skipped by slaves:         4 MByte
 
 
           Integral memory available for diagonal.     30000 MByte
 
           Integral memory available for slave             0 MByte
 
         MEMORY FOR (MU NU/ ALPHA) ON DIAGONALIZER     30000 MByte
 
         MEMORY FOR (MU NU/ ALPHA) ON ONE SLAVE            0 MByte
 
         TOTAL MEMORY FOR (MU NU/ ALPHA),ALL NODES     30000 MByte
 
 Contributions to RI integral batches: 
  neglected integral batches:         288
  direct contribution:                  0
  memory contribution:        5490
 Memory core needed for (P|Q) and Cholesky      1 MByte
 Memory core minimum needed except of (P|Q)     1 MByte
 Total minimum memory core needed (sum)         2 MByte
  
 ****************************************
 Memory allocated for RI-J 30001 MByte
 ****************************************
                                            

          ------------------------
          nuclear repulsion energy  :   168.109537424    
          ------------------------

 
          -----------------
          -S integrals
          -----------------

 1e-integrals will be neglected if expon. factor < 0.728096E-14
 
          -----------------
          -T+V integrals
          -----------------

 1e-integrals will be neglected if expon. factor < 0.728096E-14
 Difference densities >>NOT<< switched on in parallel ridft!

 automatic virtual orbital shift switched on 
      shift if e(lumo)-e(homo) < 0.10000000    


 DIIS switched on: error vector is FDS-SDF
 Max. Iterations for DIIS is     :   4
 DIIS matrix (see manual) 
    Scaling factor of diagonals  :  1.200
    threshold for scaling factor :  0.000

 scf convergence criterion : increment of total energy < .1000000D-08
                  and increment of one-electron energy < .1000000D-05


 <geterg> : there is no data group $energy 

  MOs are in ASCII format !


 reading orbital data $scfmo  from file mos . 

 orbital characterization : expanded
 
 mo provided and orthogonalized by Cholesky decomposition

 DSCF restart information will be dumped onto file mos


 Starting SCF iterations


 ITERATION  ENERGY          1e-ENERGY        2e-ENERGY     RMS[dD(SAO)]   TOL
   1  -389.84870218645    -875.64159011     317.68335050    0.000D+00 0.726D-13
                            Exc = -44.0531541095     Coul =  361.736504610    
                              N = 42.000021991    
                            current damping = 0.700
 
          max. resid. norm for Fia-block=  4.126D-01 for orbital     13a         
          max. resid. fock norm         =  1.390D+01 for orbital    351a         

 ITERATION  ENERGY          1e-ENERGY        2e-ENERGY     RMS[dD(SAO)]   TOL
   2  -390.80397944915    -875.76273768     316.84922081    0.457D-02 0.726D-13
                            Exc = -43.7025423801     Coul =  360.551763190    
                              N = 42.000015579    
                            current damping = 0.650
 
          Norm of current diis error:  2.1019    
          max. resid. norm for Fia-block=  1.533D-01 for orbital      2a         
          max. resid. fock norm         =  3.096D-01 for orbital    202a         

 ITERATION  ENERGY          1e-ENERGY        2e-ENERGY     RMS[dD(SAO)]   TOL
   3  -390.92133880416    -876.58362815     317.55275192    0.253D-02 0.726D-13
                            Exc = -43.7984009646     Coul =  361.351152888    
                              N = 42.000012597    
                            current damping = 0.600
 
          Norm of current diis error: 0.95373    
          max. resid. norm for Fia-block=  6.101D-02 for orbital      2a         
          max. resid. fock norm         =  9.334D-02 for orbital    220a         

 ITERATION  ENERGY          1e-ENERGY        2e-ENERGY     RMS[dD(SAO)]   TOL
   4  -390.95674231465    -875.85851276     316.79223302    0.166D-02 0.726D-13
                            Exc = -43.7126691518     Coul =  360.504902174    
                              N = 41.999997140    
                            current damping = 0.650
 
          Norm of current diis error: 0.40381    
          max. resid. norm for Fia-block=  3.141D-02 for orbital     10a         
          max. resid. fock norm         =  5.570D-02 for orbital    329a         

 ITERATION  ENERGY          1e-ENERGY        2e-ENERGY     RMS[dD(SAO)]   TOL
   5  -390.96398680485    -876.18262470     317.10910047    0.645D-03 0.726D-13
                            Exc = -43.7525339606     Coul =  360.861634429    
                              N = 41.999984685    
                            current damping = 0.700
 
          Norm of current diis error: 0.17590    
          max. resid. norm for Fia-block=  9.610D-03 for orbital      2a         
          max. resid. fock norm         =  1.593D-02 for orbital    343a         
          mo-orthogonalization: Cholesky decomposition

 ITERATION  ENERGY          1e-ENERGY        2e-ENERGY     RMS[dD(SAO)]   TOL
   6  -390.96584411058    -875.95138189     316.87600036    0.399D-03 0.726D-13
                            Exc = -43.7259949152     Coul =  360.601995271    
                              N = 41.999973734    
                            current damping = 0.750
 
          Norm of current diis error: 0.76124E-01
          max. resid. norm for Fia-block=  5.542D-03 for orbital     10a         
          max. resid. fock norm         =  1.133D-02 for orbital    329a         

 ITERATION  ENERGY          1e-ENERGY        2e-ENERGY     RMS[dD(SAO)]   TOL
   7  -390.96612521097    -875.97776163     316.90209900    0.121D-03 0.726D-13
                            Exc = -43.7326172925     Coul =  360.634716290    
                              N = 41.999971343    
                            current damping = 0.800
 
          Norm of current diis error: 0.39016E-01
          max. resid. norm for Fia-block=  2.415D-03 for orbital     10a         
          max. resid. fock norm         =  4.681D-03 for orbital    347a         
          irrep a   : virtual orbitals shifted by    0.00057

 ITERATION  ENERGY          1e-ENERGY        2e-ENERGY     RMS[dD(SAO)]   TOL
   8  -390.96619222255    -875.98670187     316.91097223    0.666D-04 0.726D-13
                            Exc = -43.7325231514     Coul =  360.643495379    
                              N = 41.999969842    
                            current damping = 0.650
 
          Norm of current diis error: 0.23981E-01
          max. resid. norm for Fia-block=  1.094D-03 for orbital     19a         
          max. resid. fock norm         =  3.025D-03 for orbital    345a         
          irrep a   : virtual orbitals shifted by    0.01096

 ITERATION  ENERGY          1e-ENERGY        2e-ENERGY     RMS[dD(SAO)]   TOL
   9  -390.96621513109    -875.98356202     316.90780946    0.294D-04 0.726D-13
                            Exc = -43.7326628521     Coul =  360.640472314    
                              N = 41.999969408    
                            current damping = 0.700
 
          Norm of current diis error: 0.68418E-02
          max. resid. norm for Fia-block=  4.328D-04 for orbital     10a         
          max. resid. fock norm         =  9.172D-04 for orbital    345a         
          irrep a   : virtual orbitals shifted by    0.00991

 ITERATION  ENERGY          1e-ENERGY        2e-ENERGY     RMS[dD(SAO)]   TOL
  10  -390.96621762324    -875.97133353     316.89557848    0.156D-04 0.726D-13
                            Exc = -43.7317664606     Coul =  360.627344941    
                              N = 41.999969043    
                            current damping = 0.550
 
          Norm of current diis error: 0.34235E-02
          max. resid. norm for Fia-block=  2.287D-04 for orbital     10a         
          max. resid. fock norm         =  6.636D-04 for orbital    345a         
          irrep a   : virtual orbitals shifted by    0.01802
          mo-orthogonalization: Cholesky decomposition

 ITERATION  ENERGY          1e-ENERGY        2e-ENERGY     RMS[dD(SAO)]   TOL
  11  -390.96621801961    -875.97966827     316.90391282    0.525D-05 0.726D-13
                            Exc = -43.7327605185     Coul =  360.636673341    
                              N = 41.999969081    
                            current damping = 0.600
 
          Norm of current diis error: 0.21498E-02
          max. resid. norm for Fia-block=  1.179D-04 for orbital     21a         
          max. resid. fock norm         =  1.233D-04 for orbital     22a         
          irrep a   : virtual orbitals shifted by    0.01573

 ITERATION  ENERGY          1e-ENERGY        2e-ENERGY     RMS[dD(SAO)]   TOL
  12  -390.96621813811    -875.97623328     316.90047772    0.369D-05 0.726D-13
                            Exc = -43.7322174629     Coul =  360.632695184    
                              N = 41.999968987    
                            current damping = 0.650
 
          Norm of current diis error: 0.17254E-02
          max. resid. norm for Fia-block=  7.563D-05 for orbital     20a         
          max. resid. fock norm         =  1.384D-04 for orbital    345a         
          irrep a   : virtual orbitals shifted by    0.01312

 ITERATION  ENERGY          1e-ENERGY        2e-ENERGY     RMS[dD(SAO)]   TOL
  13  -390.96621819974    -875.97507979     316.89932417    0.132D-05 0.726D-13
                            Exc = -43.7321890639     Coul =  360.631513233    
                              N = 41.999968985    
                            current damping = 0.500
 
          Norm of current diis error: 0.98568E-03
          max. resid. norm for Fia-block=  3.335D-05 for orbital     19a         
          max. resid. fock norm         =  7.152D-05 for orbital    328a         
          irrep a   : virtual orbitals shifted by    0.02105

 ITERATION  ENERGY          1e-ENERGY        2e-ENERGY     RMS[dD(SAO)]   TOL
  14  -390.96621822363    -875.97550487     316.89974922    0.720D-06 0.726D-13
                            Exc = -43.7322548359     Coul =  360.632004054    
                              N = 41.999968985    
                            current damping = 0.550
 
          Norm of current diis error: 0.32929E-03
          max. resid. norm for Fia-block=  1.644D-05 for orbital     21a         
          max. resid. fock norm         =  3.697D-05 for orbital    345a         
          irrep a   : virtual orbitals shifted by    0.01840

 ITERATION  ENERGY          1e-ENERGY        2e-ENERGY     RMS[dD(SAO)]   TOL
  15  -390.96621822745    -875.97632876     316.90057311    0.480D-06 0.726D-13
                            Exc = -43.7323412000     Coul =  360.632914310    
                              N = 41.999968998    
                            current damping = 0.400
 
          Norm of current diis error: 0.85799E-04
          max. resid. norm for Fia-block=  4.375D-06 for orbital     21a         
          max. resid. fock norm         =  1.222D-05 for orbital     22a         
          irrep a   : virtual orbitals shifted by    0.02631
          mo-orthogonalization: Cholesky decomposition

 ITERATION  ENERGY          1e-ENERGY        2e-ENERGY     RMS[dD(SAO)]   TOL
  16  -390.96621822770    -875.97618212     316.90042647    0.137D-06 0.726D-13
                            Exc = -43.7323292691     Coul =  360.632755735    
                              N = 41.999968998    
                            current damping = 0.450
 
          Norm of current diis error: 0.12657E-04
          max. resid. norm for Fia-block=  1.101D-06 for orbital     21a         
          max. resid. fock norm         =  4.451D-06 for orbital    358a         
          irrep a   : virtual orbitals shifted by    0.02368

 DENSITY CONVERGED !


 ITERATION  ENERGY          1e-ENERGY        2e-ENERGY     RMS[dD(SAO)]   TOL
  17  -390.96621822772    -875.97615660     316.90040095    0.433D-07 0.726D-13
                            Exc = -43.7323269093     Coul =  360.632727856    
                              N = 41.999968998    
                            current damping = 0.300
 
          Norm of current diis error: 0.54776E-05
          max. resid. norm for Fia-block=  4.517D-07 for orbital     21a         
          max. resid. fock norm         =  1.935D-06 for orbital     22a         
          irrep a   : virtual orbitals shifted by    0.03157

 ENERGY & DENSITY CONVERGED !


 ITERATION  ENERGY          1e-ENERGY        2e-ENERGY     RMS[dD(SAO)]   TOL
  18  -390.96614828728    -875.97615418     316.90046847    0.187D-07 0.726D-13
                            Exc = -43.7322571643     Coul =  360.632725631    
                              N = 41.999983192    
                            current damping = 0.350
 
          Norm of current diis error: 0.18723E-05
          max. resid. norm for Fia-block=  1.562D-07 for orbital     21a         
          max. resid. fock norm         =  5.860D-07 for orbital     22a         

 End of SCF iterations

   convergence criteria satisfied after   18 iterations


                  ------------------------------------------ 
                 |  total energy      =   -390.96614828728  |
                  ------------------------------------------ 
                 :  kinetic energy    =    389.29860913436  :
                 :  potential energy  =   -780.26475742164  :
                 :  virial theorem    =      1.99573482472  :
                 :  wavefunction norm =      1.00000000000  :
                  .......................................... 


 <geterg> : there is no data group $energy 


 <skperg> : $end is missing 


 orbitals $scfmo  will be written to file mos

    irrep                 17a         18a         19a         20a         21a   
 eigenvalues H         -0.29570    -0.28039    -0.18273    -0.17547    -0.14051
            eV          -8.0465     -7.6298     -4.9725     -4.7748     -3.8235
 occupation              2.0000      2.0000      2.0000      2.0000      2.0000 

    irrep                 22a         23a         24a         25a         26a   
 eigenvalues H         -0.08787    -0.01428    -0.01146     0.00274     0.01480
            eV          -2.3912     -0.3885     -0.3118      0.0745      0.4026
 
 
 ! grave: sending quit signal to master process
 
 
 
 
 ==============================================================================
                           electrostatic moments
 ==============================================================================

 reference point for electrostatic moments:    0.00000   0.00000   0.00000

 
              nuc           elec       ->  total
 ------------------------------------------------------------------------------
                          charge      
 ------------------------------------------------------------------------------
          42.000000     -42.000000       0.000000
 
 ------------------------------------------------------------------------------
                       dipole moment  
 ------------------------------------------------------------------------------
   x      23.236499     -21.584378       1.652121
   y      77.596196     -74.118899       3.477297
   z      91.273218     -90.948375       0.324843
 
   | dipole moment | =     3.8635 a.u. =     9.8200 debye 
 
 ------------------------------------------------------------------------------
                     quadrupole moment
 ------------------------------------------------------------------------------
  xx      65.054844     -81.644794     -16.589950
  yy     507.812301    -501.280733       6.531568
  zz     293.892031    -318.237008     -24.344977
  xy     168.962338    -157.691559      11.270779
  xz      33.165441     -31.424618       1.740823
  yz     113.378983    -110.843598       2.535385
 
     1/3  trace=     -11.467786
     anisotropy=      34.402331
 
 ==============================================================================
 

    ridft profiling
  --------------------------------------------------------------------
             module   cpu total (s)       %  wall total (s)       %

               RIDFT           136.0  100.00           136.8  100.00
         Ridft_b_scf            45.2   33.24            45.9   33.52
        b_scf_prelim             0.0    0.00             0.0    0.00
        b_scf_molinp             0.0    0.02             0.0    0.02
         b_scf_init0             0.0    0.00             0.0    0.00
        b_scf_auxbas             0.0    0.01             0.0    0.01
      b_scf_symmetry             0.0    0.01             0.0    0.01
         b_scf_cosmo             0.0    0.00             0.0    0.00
        b_scf_params            24.4   17.93            25.0   18.28
          b_scf_ri-j            20.6   15.15            20.6   15.08
    b_scf_ri-j_auxpq            20.6   15.15            20.6   15.07
     ri-j_auxpq_chol             0.0    0.01             0.0    0.01
         b_scf_1elec             0.1    0.05             0.1    0.05
       b_scf_moinput             0.1    0.07             0.1    0.07
     moinput_orthmos             0.1    0.06             0.1    0.06
    b_scf_dft-dstmax             0.0    0.00             0.0    0.00
           Ridft_scf            90.7   66.73            90.9   66.43
          Scf_b_loop             0.0    0.00             0.0    0.00
                noga             0.0    0.00             0.0    0.00
            Scf_loop            90.6   66.65            90.8   66.35
     scf_loop_mkdmat             0.1    0.09             0.1    0.09
       scf_loop_ri-j             2.9    2.13             2.9    2.12
      parlp1.bc.dens             0.0    0.00             0.0    0.01
        parlp1.gs.gp             0.2    0.17             0.2    0.17
        parlp2.bc.gq             0.0    0.00             0.0    0.00
        scf_loop_dft            83.3   61.26            83.4   61.00
      pardft.bc.dens             0.0    0.00             0.0    0.00
        dft_grid_con             0.0    0.04             0.0    0.04
          dft_xcmrhf            81.6   60.03            81.8   59.78
          dft_getval             4.9    3.62             4.9    3.61
          funct2 dst             0.0    0.02             0.0    0.03
      funct2 f2loop1             2.1    1.51             2.1    1.51
      funct2 f2loop2             1.4    1.02             1.4    1.02
          funct2 s+c             1.0    0.72             1.0    0.72
        funct2 cmf_2             0.8    0.62             0.8    0.61
          dft_mkdens            39.8   29.25            39.8   29.12
        dft_mgga-fun             0.3    0.22             0.3    0.21
          dft_mkfock            36.4   26.78            36.5   26.66
     pardft.red.fock             7.4    5.41             7.4    5.39
     scf_loop_energy             0.0    0.01             0.0    0.01
     scf_loop_mkfock             0.0    0.00             0.0    0.00
       scf_loop_diis             0.5    0.36             0.5    0.36
       scf_loop_diag             2.2    1.60             2.2    1.59
         diag_tritrn             0.4    0.26             0.4    0.27
          diag_rdiag             1.8    1.32             1.8    1.31
     scf_loop_modump             1.5    1.07             1.5    1.07
      scf_loop_ortho             0.1    0.09             0.1    0.09
          Scf_a_loop             0.1    0.08             0.1    0.08
         Ridft_a_scf             0.0    0.03             0.1    0.04
         a_scf_fanal             0.0    0.03             0.0    0.03
 


    ------------------------------------------------------------------------
         total  cpu-time :  2 minutes and 16 seconds
         total wall-time :  2 minutes and 17 seconds
    ------------------------------------------------------------------------


   ****  ridft : all done  ****


    2017-11-09 10:38:14.787 

