 this is node-proc. number 0 running on node c-5-22.local
 the total number of node-proc. spawned is  17

 dscfserver (c-5-22.local) : TURBOMOLE V7.2 ( 21471 ) 7 Nov 2017 at 16:15:16
 Copyright (C) 2017 TURBOMOLE GmbH, Karlsruhe


    2018-02-14 09:55:31.050 

 
    0:00:01 ---- Start global counter...
    0:01:26 ---- ... finished.
 
    0:01:28 ---- Start global counter...
    0:02:36 ---- ... finished.
 
    0:02:39 ---- Start global counter...
    0:03:35 ---- ... finished.
 
    0:03:37 ---- Start global counter...
    0:04:26 ---- ... finished.
 
    0:04:29 ---- Start global counter...
    0:05:13 ---- ... finished.
 
    0:05:16 ---- Start global counter...
    0:05:54 ---- ... finished.
 
    0:05:57 ---- ByeBye Tag received


 ! Total wall-clock time in seconds  :      356.9
 ! Time (sec) spent in global counter:      339.5
 ! So-called SERIAL wall-clock time  :       17.3

  *** Regular termination of server ***
 total turnaround time of dscfserver   357.13 sec
 cpu elapsed by dscfserver process     339.81 sec 

   ***  dscf server : all done  ***


    2018-02-14 10:01:28.180 

