STARTING dscf ON 32 PROCESSORS!
RUNNING PROGRAM /beegfs/modfac/apps/TURBOMOLE/7.2.1-official/bin/em64t-unknown-linux-gnu_mpi/dscf_mpi.
PLEASE WAIT UNTIL dscf HAS FINISHED.
Look for the output in slave1.output.
MACHINEFILE is ./hostlist
 this is node-proc. number 1 running on node c-5-32.local
 the total number of node-proc. spawned is  33
  parallel platform: MPP or cluster with fast interconnect

 dscf (c-5-32.local) : TURBOMOLE V7.2 ( 21471 ) 7 Nov 2017 at 16:15:16
 Copyright (C) 2017 TURBOMOLE GmbH, Karlsruhe


    2018-02-20 05:02:08.170 


 SCF run will be profiled !



                             d s c f - program

                   idea & directorship : reinhart ahlrichs
                   program development : marco haeser
                                         michael baer
                           dft version : oliver treutler
           parallelized version : malte v. arnim, gina corongiu, GMD 


                          quantum chemistry group
                          universitaet  karlsruhe
                                  germany




                          References             
                                                 
          TURBOMOLE:                             
              R. Ahlrichs, M. Baer, M. Haeser, H. Horn, and
              C. Koelmel
              Electronic structure calculations on workstation
              computers: the program system TURBOMOLE
              Chem. Phys. Lett. 162: 165 (1989)
          Density Functional:                              
              O. Treutler and R. Ahlrichs                      
              Efficient Molecular Numerical Integration Schemes
              J. Chem. Phys. 102: 346 (1995)                   
          Parallel Version:                                
              Performance of parallel TURBOMOLE for Density    
              Functional Calculations                          
              M. v. Arnim and R. Ahlrichs                      
              J. Comp. Chem. 19: 1746 (1998)                   
                                         




              +--------------------------------------------------+
              | Atomic coordinate, charge and isotop information |
              +--------------------------------------------------+

                    atomic coordinates            atom    charge  isotop
         -9.01164311    2.20047997    0.88984015    c      6.000     0
        -10.28644233    2.18382491   -1.71865885    c      6.000     0
        -10.92269959   -0.55413184   -2.36773961    c      6.000     0
        -12.52827799   -1.74911213   -0.29304591    c      6.000     0
        -11.30543863   -1.38935562    2.31685549    c      6.000     0
        -10.82947682    1.22960695    2.70521796    o      8.000     0
         -8.63810179    3.07493335   -3.66187624    o      8.000     0
         -9.13444308    5.51421918   -4.70286386    c      6.000     0
         -8.71869894    5.31292867   -7.56594616    c      6.000     0
         -5.90383648    4.96353000   -8.12814842    c      6.000     0
         -4.34349528    6.95445010   -6.71727951    c      6.000     0
         -4.90122536    6.92349917   -3.87944216    c      6.000     0
         -7.60076997    7.39088653   -3.57447061    o      8.000     0
         -1.74547421    6.29201147   -7.21258322    o      8.000     0
         -0.11378431    8.19822704   -8.06596688    c      6.000     0
          1.66725487    7.05905878  -10.04501815    c      6.000     0
          3.41637618    5.14746860   -8.80484868    c      6.000     0
          4.74863807    6.33824173   -6.54366319    c      6.000     0
          2.76403899    7.32773660   -4.68276660    c      6.000     0
          1.34223400    9.24253807   -6.04815882    o      8.000     0
          6.31046524    4.36831300   -5.49894592    o      8.000     0
          8.83834243    4.98294820   -4.96167739    c      6.000     0
         10.51131262    2.73460336   -5.71982016    c      6.000     0
         10.06709775    0.48313831   -3.98112005    c      6.000     0
         10.31963885    1.28031449   -1.22027531    c      6.000     0
          8.45830458    3.45636868   -0.72660112    c      6.000     0
          9.21137111    5.53555838   -2.36245979    o      8.000     0
          9.76342548   -0.91828436    0.24814947    o      8.000     0
         11.34176467   -1.48191502    2.35420048    c      6.000     0
         11.78326879   -4.34979530    2.31630164    c      6.000     0
          9.29879583   -5.70660229    2.90695589    c      6.000     0
          8.05872430   -4.58258676    5.26872247    c      6.000     0
          7.72651175   -1.72163567    5.03257833    c      6.000     0
         10.22731691   -0.65731012    4.64553951    o      8.000     0
          5.65018651   -5.84939374    5.48763641    o      8.000     0
          5.05098431   -6.95800245    7.82224547    c      6.000     0
          3.70361511   -9.47865328    7.31864563    c      6.000     0
          1.13340217   -9.03026593    6.09873934    c      6.000     0
         -0.40916520   -7.18025881    7.68216528    c      6.000     0
          1.12084455   -4.73191764    7.99962586    c      6.000     0
          3.44800896   -5.38867268    9.30673925    o      8.000     0
         -2.73495801   -6.78046921    6.35864442    o      8.000     0
         -5.01302179   -6.89279608    7.78628079    c      6.000     0
         -5.88411765   -4.43829352    8.41452457    o      8.000     0
         -6.34963181   -2.87592431    6.20613457    c      6.000     0
         -8.49599731   -4.13872418    4.73359780    c      6.000     0
         -7.74893897   -6.81292331    3.91462701    c      6.000     0
         -6.94707212   -8.37739837    6.21197728    c      6.000     0
         -6.84709753   -0.18652857    7.17204468    c      6.000     0
         -4.89210075    1.56376968    6.49439989    o      8.000     0
         -5.99032865  -10.80361831    5.60127378    o      8.000     0
         -9.83279674   -8.01390096    2.70719383    o      8.000     0
         -9.07283083   -2.82741296    2.41084111    o      8.000     0
         -0.25935322  -11.34275124    5.91336169    o      8.000     0
          5.12939478  -11.08708466    5.63788227    o      8.000     0
         -0.14339558   -2.60747601    9.51959164    c      6.000     0
         -0.39658239   -0.32873445    8.08435572    o      8.000     0
          9.77345607   -8.33089975    3.29056861    o      8.000     0
         12.90049772   -5.08322671   -0.00741422    o      8.000     0
          6.57212780   -0.37220999    7.32876396    c      6.000     0
          4.37247600    1.07308622    6.69644473    o      8.000     0
         11.87324966   -1.47382938   -4.46414157    o      8.000     0
         10.00564157    1.90381250   -8.27256142    o      8.000     0
          8.34552611    4.49167894    1.98313394    c      6.000     0
          5.84898514    4.40276141    3.01688430    o      8.000     0
          5.18350559    4.31880575  -10.67848155    o      8.000     0
          0.17406200    5.94122035  -12.00330456    o      8.000     0
          3.76676879    8.55878906   -2.25238223    c      6.000     0
          2.87113061    7.31561760   -0.02428101    o      8.000     0
         -5.50536895    5.18995363  -10.77601434    o      8.000     0
        -10.29049945    3.39858321   -8.59558626    o      8.000     0
         -3.54820503    8.96014457   -2.31836328    c      6.000     0
         -2.25464527    8.00589376   -0.12839482    o      8.000     0
        -12.23174021   -0.58161920   -4.73222677    o      8.000     0
        -12.81838013   -4.38387028   -0.93270436    o      8.000     0
         -8.03170148    4.74165946    1.86229392    c      6.000     0
         -5.37812046    4.62215596    2.46306337    o      8.000     0
          6.21955667  -12.16287022    6.64420794    h      1.000     0
          0.77889030  -12.50389956    4.93869557    h      1.000     0
         12.06528056   -4.13491787   -1.35873516    h      1.000     0
          8.12883940   -9.10700323    3.61719032    h      1.000     0
         11.14034754    2.78779091   -9.40779942    h      1.000     0
         11.67659074   -1.94823109   -6.22788876    h      1.000     0
          1.31059135    4.88322931  -12.98666875    h      1.000     0
          6.36410864    3.17860616   -9.82607966    h      1.000     0
        -10.30350266    1.98427935   -7.40580260    h      1.000     0
         -3.68076501    5.09407286  -11.06291965    h      1.000     0
        -14.42837644   -4.97386135   -0.28565591    h      1.000     0
        -12.62244821   -2.33941955   -5.09710464    h      1.000     0
         -4.18413339  -10.63116734    5.23835028    h      1.000     0
        -10.33401175   -6.90630973    1.31569439    h      1.000     0
          6.75744167   -7.22724292    8.96591915    h      1.000     0
          3.41245356  -10.43389050    9.13502796    h      1.000     0
          1.41055793   -8.20611831    4.21200135    h      1.000     0
         -0.80263459   -8.00818264    9.54603467    h      1.000     0
          1.58994814   -3.99583504    6.12254793    h      1.000     0
         13.13450221   -0.46030419    2.19649441    h      1.000     0
         13.15452573   -4.81481425    3.79737366    h      1.000     0
          7.99705092   -5.42921583    1.31235091    h      1.000     0
          9.21747646   -5.02363440    6.93473818    h      1.000     0
          6.55845953   -1.31725415    3.37416741    h      1.000     0
          9.39798717    6.70584318   -5.96878524    h      1.000     0
         12.49365612    3.31447069   -5.54654717    h      1.000     0
          8.13960720   -0.23229341   -4.27608716    h      1.000     0
         12.26111356    1.90895339   -0.83325258    h      1.000     0
          6.55540658    2.83670819   -1.25971921    h      1.000     0
         -1.18050426    9.78848329   -8.85119457    h      1.000     0
          2.81592577    8.60609820  -10.82543353    h      1.000     0
          2.28768720    3.54462439   -8.12251645    h      1.000     0
          5.95541863    7.90764272   -7.17172943    h      1.000     0
          1.49238323    5.77978767   -4.15489744    h      1.000     0
        -11.08617574    6.06750049   -4.29112227    h      1.000     0
         -9.32955321    7.09400127   -8.42978297    h      1.000     0
         -5.30638915    3.09207595   -7.44380385    h      1.000     0
         -4.73772801    8.83260354   -7.51228769    h      1.000     0
         -4.42997007    5.04688435   -3.14161414    h      1.000     0
        -12.59518145   -1.94463138    3.84065024    h      1.000     0
        -14.37784309   -0.81282930   -0.27307750    h      1.000     0
         -9.13800379   -1.60719615   -2.52454876    h      1.000     0
        -12.01816042    3.32990473   -1.67718648    h      1.000     0
         -7.40393393    0.90139422    0.82022793    h      1.000     0
         -4.67072285   -7.84105197    9.59336868    h      1.000     0
         -8.62441553   -8.68778147    7.38838679    h      1.000     0
         -6.13570195   -6.65422444    2.60952874    h      1.000     0
        -10.20503288   -4.22436911    5.91065962    h      1.000     0
         -4.65060129   -2.85514350    5.02425148    h      1.000     0
          9.52042780    3.36774311    3.25004024    h      1.000     0
          9.05718404    6.43945994    1.95422600    h      1.000     0
          4.70555842    5.47165873    1.97769396    h      1.000     0
          5.95802990   -1.73624660    8.74839888    h      1.000     0
          8.03027311    0.84708601    8.15871406    h      1.000     0
          4.82562592    2.34121747    5.38861527    h      1.000     0
         -2.05641268   -3.13505889   10.07847251    h      1.000     0
          0.99070298   -2.27529441   11.22339184    h      1.000     0
          1.30607678    0.28161508    7.57590614    h      1.000     0
         -8.58078937    0.57543225    6.35804832    h      1.000     0
         -7.05399352   -0.27168803    9.23346535    h      1.000     0
         -3.23312581    0.94051111    7.12254387    h      1.000     0
          5.82517637    8.46049009   -2.16718105    h      1.000     0
          3.19242174   10.55148009   -2.25752331    h      1.000     0
         -8.22283866    6.20234446    0.42136409    h      1.000     0
         -9.12131691    5.28562074    3.53681048    h      1.000     0
         -5.14693660    3.59594560    4.03203180    h      1.000     0
         -2.08985557    9.88597113   -3.44302588    h      1.000     0
         -4.95566834   10.37541995   -1.75437220    h      1.000     0
         -3.40416102    6.97011371    0.90933787    h      1.000     0
          0.99968983    7.46577709    0.03174869    h      1.000     0
         -2.74493223   -1.87671405   -4.00081949    c      0.000     0
         -1.13049587   -2.23546927    0.70217177    c      0.000     0
          2.71710405   -3.61459694   -3.70375763    c      0.000     0
          2.07077280   -1.07807224   -4.99373223    c      0.000     0
          1.69489423   -1.57651789    0.65949744    c      0.000     0
          3.41007013   -3.32159326   -0.89660365    c      0.000     0
         -2.84586354   -0.92471947   -1.26137466    c      0.000     0
         -0.71858182   -0.78804431   -5.77869192    c      0.000     0
         -2.42991600    1.75977870   -1.29578864    o      0.000     0
         -3.26559074    2.52091046    0.16926919    h      0.000     0
         -4.78753680   -1.30159676   -0.61291552    h      0.000     0
          2.57390285    0.47896758   -3.72744466    h      0.000     0
          1.11798152   -4.91850822   -3.88702246    h      0.000     0
          1.88787656    0.38846290    0.03605392    h      0.000     0
         -4.57481236   -1.42692602   -4.86645456    h      0.000     0
         -2.63098388   -3.94653987   -3.94794013    h      0.000     0
         -1.11833576    1.21996094   -6.07566089    h      0.000     0
         -1.86660060   -1.66872136    2.55519685    h      0.000     0
          2.39331049   -1.59863219    2.60808292    h      0.000     0
         -0.99794645   -1.71811175   -7.61330710    h      0.000     0
          5.34211859   -2.57887175   -0.76702191    h      0.000     0
         -1.42181338   -4.28870859    0.57175932    h      0.000     0
          3.23972190   -0.82545010   -6.68533025    h      0.000     0
          4.29985450   -4.53789125   -4.67175952    h      0.000     0
          3.45082775   -5.19848837   -0.00954924    h      0.000     0
 
       center of nuclear mass  :   -0.05192882   -0.00908005   -0.00274752
       center of nuclear charge:   -0.04918781    0.16992114    0.26778309

              +--------------------------------------------------+
              |               basis set information              |
              +--------------------------------------------------+

              we will work with the 1s 3p 5d 7f 9g ... basis set
              ...i.e. with spherical basis functions...

   type   atoms  prim   cont   basis
   ---------------------------------------------------------------------------
    c       50     50     30   cc-pVTZ   [4s3p2d1f|18s5p2d1f]
    o       36     50     30   cc-pVTZ   [4s3p2d1f|18s5p2d1f]
    h       86     16     14   cc-pVTZ   [3s2p1d|5s2p1d]
   ---------------------------------------------------------------------------
   total:  172   5676   3784
   ---------------------------------------------------------------------------

   total number of primitive shells          :   60
   total number of contracted shells         : 1376
   total number of cartesian basis functions : 4300
   total number of SCF-basis functions       : 3784


 integral neglect threshold       :  0.78E-12
 integral storage threshold THIZE :  0.10E-04
 integral storage threshold THIME :         5


 DENSITY CONVERGENCE CHECK SWITCHED ON !
 SCF CONVERGENCE IF RMS(delta[D]) <     0.1000000000E-06


 symmetry group of the molecule :   c1 

 the group has the following generators :
   c1(z)

    1 symmetry operations found

 there are 1 real representations :   a   

 maximum number of shells which are related by symmetry :  1


    mo occupation :
   irrep   mo's   occupied
    a     3784      301
 
 number of basis functions   :                   3784
 number of occupied orbitals :                    301
 

 automatic virtual orbital shift switched on 
      shift if e(lumo)-e(homo) < 0.10000000    


 keyword $2e-ints_shell_statistics missing in file <control>

 ! One task per shell generated
  No pre-computed optimal task distribution found
  ... using automatic task generation

          ------------------------
          nuclear repulsion energy  :   15987.6199779    
          ------------------------


         -----------------
         -S,T+V- integrals
         -----------------

 1e-integrals will be neglected if expon. factor < 0.777200E-13
 
   Difference densities algorithm switched on.
   The maximal number of linear combinations of
   difference densities is                    20 .

 DIIS switched on: error vector is FDS-SDF
 Max. Iterations for DIIS is     :   5
 DIIS matrix (see manual) 
    Scaling factor of diagonals  :  1.200
    threshold for scaling factor :  0.000

 scf convergence criterion : increment of total energy < .1000000D-06
                  and increment of one-electron energy < .1000000D-03

  MOs are in ASCII format !


 reading orbital data $scfmo  from file mos
 orbital characterization : expanded
 mo provided and orthogonalized by Cholesky decomposition

 DSCF restart information will be dumped onto file mos

 
                                              current damping :  0.300
 ITERATION  ENERGY          1e-ENERGY        2e-ENERGY     RMS[dD(SAO)]   TOL
   1  -4237.8343145814    -37686.572859     17461.118566    0.000D+00 0.775D-12
          max. resid. norm for Fia-block=  3.178D-01 for orbital      8a         
          max. resid. fock norm         =  7.383D+00 for orbital   3610a         
          Delta Eig. =  1232.0979937086 eV 
 
                                              current damping :  0.250
 ITERATION  ENERGY          1e-ENERGY        2e-ENERGY     RMS[dD(SAO)]   TOL
   2  -4251.2860770723    -37730.435517     17491.529462    0.144D-02 0.516D-12
          Norm of current diis error:  5.6099    
          max. resid. norm for Fia-block=  1.029D-01 for orbital     83a         
          max. resid. fock norm         =  3.285D-01 for orbital   3755a         
          Delta Eig. =   296.1159050873 eV 
 
                                              current damping :  0.150
 ITERATION  ENERGY          1e-ENERGY        2e-ENERGY     RMS[dD(SAO)]   TOL
   3  -4252.5298196203    -37746.713166     17506.563368    0.719D-03 0.414D-12
          Norm of current diis error:  1.9740    
          max. resid. norm for Fia-block=  3.430D-02 for orbital    274a         
          max. resid. fock norm         =  3.491D-02 for orbital    274a         
          Delta Eig. =    64.1293617301 eV 
 
                                              current damping :  0.200
 ITERATION  ENERGY          1e-ENERGY        2e-ENERGY     RMS[dD(SAO)]   TOL
   4  -4252.7596911828    -37745.332104     17504.952435    0.463D-03 0.347D-12
          Norm of current diis error: 0.52439    
          max. resid. norm for Fia-block=  1.008D-02 for orbital    112a         
          max. resid. fock norm         =  1.419D-02 for orbital   3762a         
          Delta Eig. =     8.1325760844 eV 
 
                                              current damping :  0.250
 ITERATION  ENERGY          1e-ENERGY        2e-ENERGY     RMS[dD(SAO)]   TOL
   5  -4252.7801088322    -37747.481067     17507.080981    0.139D-03 0.321D-12
          Norm of current diis error: 0.15936    
          max. resid. norm for Fia-block=  4.227D-03 for orbital    273a         
          max. resid. fock norm         =  4.375D-03 for orbital    273a         
 mo-orthogonalization: Cholesky decomposition
          Delta Eig. =     1.2886474689 eV 
 
                                              current damping :  0.300
 ITERATION  ENERGY          1e-ENERGY        2e-ENERGY     RMS[dD(SAO)]   TOL
   6  -4252.7828355875    -37747.296322     17506.893509    0.550D-04 0.303D-12
          Norm of current diis error: 0.63843E-01
          max. resid. norm for Fia-block=  1.922D-03 for orbital    273a         
          max. resid. fock norm         =  2.026D-03 for orbital    273a         
          Delta Eig. =     0.2583780602 eV 
 
                                              current damping :  0.350
 ITERATION  ENERGY          1e-ENERGY        2e-ENERGY     RMS[dD(SAO)]   TOL
   7  -4252.7833058650    -37747.338835     17506.935551    0.190D-04 0.289D-12
          Norm of current diis error: 0.24804E-01
          max. resid. norm for Fia-block=  8.245D-04 for orbital    273a         
          max. resid. fock norm         =  8.724D-04 for orbital    273a         
          Delta Eig. =     0.0525318864 eV 
 
                                              current damping :  0.200
 ITERATION  ENERGY          1e-ENERGY        2e-ENERGY     RMS[dD(SAO)]   TOL
   8  -4252.7833815791    -37747.381068     17506.977708    0.653D-05 0.278D-12
          Norm of current diis error: 0.98131E-02
          max. resid. norm for Fia-block=  3.534D-04 for orbital    273a         
          max. resid. fock norm         =  3.796D-04 for orbital    273a         
          Delta Eig. =     0.0187888924 eV 
 
                                              current damping :  0.250
 ITERATION  ENERGY          1e-ENERGY        2e-ENERGY     RMS[dD(SAO)]   TOL
   9  -4252.7833944885    -37747.360839     17506.957467    0.259D-05 0.269D-12
          Norm of current diis error: 0.32386E-02
          max. resid. norm for Fia-block=  1.118D-04 for orbital    273a         
          max. resid. fock norm         =  1.249D-04 for orbital    273a         
          Delta Eig. =     0.0057227751 eV 
 
                                              current damping :  0.300
 ITERATION  ENERGY          1e-ENERGY        2e-ENERGY     RMS[dD(SAO)]   TOL
  10  -4252.7833957275    -37747.370891     17506.967517    0.669D-06 0.263D-12
          Norm of current diis error: 0.11407E-02
          max. resid. norm for Fia-block=  3.894D-05 for orbital    238a         
          max. resid. fock norm         =  4.343D-05 for orbital    273a         
 mo-orthogonalization: Cholesky decomposition
          Delta Eig. =     0.0015355526 eV 
 
                                              current damping :  0.350
 ITERATION  ENERGY          1e-ENERGY        2e-ENERGY     RMS[dD(SAO)]   TOL
  11  -4252.7833958722    -37747.368315     17506.964941    0.235D-06 0.258D-12
          Norm of current diis error: 0.42746E-03
          max. resid. norm for Fia-block=  1.478D-05 for orbital    273a         
          max. resid. fock norm         =  1.626D-05 for orbital    273a         
          Delta Eig. =     0.0004784425 eV 
 
                                              current damping :  0.400
 ITERATION  ENERGY          1e-ENERGY        2e-ENERGY     RMS[dD(SAO)]   TOL
  12  -4252.7833958893    -37747.368635     17506.965261    0.100D-06 0.253D-12
          Norm of current diis error: 0.16196E-03
          max. resid. norm for Fia-block=  5.562D-06 for orbital    238a         
          max. resid. fock norm         =  6.029D-06 for orbital    273a         
          Delta Eig. =     0.0001672016 eV 

 ENERGY & DENSITY CONVERGED !

 
                                              current damping :  0.250
 ITERATION  ENERGY          1e-ENERGY        2e-ENERGY     RMS[dD(SAO)]   TOL
  13  -4252.7833958924    -37747.368681     17506.965307    0.447D-07 0.248D-12
          max. resid. norm for Fia-block=  1.489D-06 for orbital    294a         
          max. resid. fock norm         =  1.601D-06 for orbital    294a         

 convergence criteria satisfied after    13 iterations


                  ------------------------------------------ 
                 |  total energy      =  -4252.78339589239  |
                  ------------------------------------------ 
                 :  kinetic energy    =   4245.19719813709  :
                 :  potential energy  =  -8497.98059402949  :
                 :  virial theorem    =      1.99821618055  :
                 :  wavefunction norm =      1.00000000000  :
                  .......................................... 


 <geterg> : there is no data group $energy 


 <skperg> : $end is missing 


 orbitals $scfmo  will be written to file mos

    irrep                297a        298a        299a        300a        301a   
 eigenvalues H         -0.41982    -0.41628    -0.41575    -0.41249    -0.40861
            eV         -11.4240    -11.3276    -11.3133    -11.2245    -11.1190
 occupation              2.0000      2.0000      2.0000      2.0000      2.0000 

    irrep                302a        303a        304a        305a        306a   
 eigenvalues H          0.05067     0.09368     0.09610     0.10434     0.11261
            eV           1.3789      2.5492      2.6151      2.8392      3.0643
 
 
 
 
 ==============================================================================
                           electrostatic moments
 ==============================================================================

 reference point for electrostatic moments:    0.00000   0.00000   0.00000

 
              nuc           elec       ->  total
 ------------------------------------------------------------------------------
                          charge      
 ------------------------------------------------------------------------------
         602.000000    -602.000000      -0.000000
 
 ------------------------------------------------------------------------------
                       dipole moment  
 ------------------------------------------------------------------------------
   x     -29.611060      31.251795       1.640735
   y     102.292528    -101.833584       0.458945
   z     161.205422    -160.325437       0.879985
 
   | dipole moment | =     1.9176 a.u. =     4.8739 debye 
 
 ------------------------------------------------------------------------------
                     quadrupole moment
 ------------------------------------------------------------------------------
  xx   34429.710760  -34743.258885    -313.548125
  yy   19453.436052  -19798.585643    -345.149591
  zz   20769.410156  -21109.993598    -340.583441
  xy    -675.228381     687.844619      12.616238
  xz     234.211112    -261.615792     -27.404680
  yz  -13843.357463   13826.027449     -17.330014
 
     1/3  trace=    -333.093719
     anisotropy=      67.132341
 
 ==============================================================================
 

    dscf profiling
  --------------------------------------------------------------------
             module   cpu total (s)       %  wall total (s)       %

          dscf.total         11463.4  100.00         10169.9  100.00
        dscf.prepare            64.7    0.56            64.7    0.64
      prepare.oneint             0.6    0.01             0.6    0.01
     prepare.moinput             1.0    0.01             1.1    0.01
     moinput_orthmos            62.6    0.55            62.6    0.62
            dscf.scf         11395.7   99.41         10102.2   99.33
             scf.pre             0.0    0.00             0.0    0.00
        scf.makedmat            27.2    0.24            27.4    0.27
          scf.shloop          9187.1   80.14          9179.4   90.26
          shloop_omp          9185.2   80.13          9177.6   90.24
          scf.symcar             2.9    0.02             2.9    0.03
        scf.makefock             5.3    0.05             5.8    0.06
          scf.newerg             0.3    0.00             0.3    0.00
          scf.newcnv           365.8    3.19            46.5    0.46
           scf.fdiag          1048.9    9.15           131.6    1.29
         diag_tritrn           264.4    2.31            33.1    0.33
          diag_rdiag           778.7    6.79            97.6    0.96
          scf.modump           629.6    5.49           620.0    6.10
           ortho_all            75.1    0.66            35.9    0.35
            scf.post            52.3    0.46            52.2    0.51
        dscf.postscf             2.9    0.03             3.0    0.03
 


    ------------------------------------------------------------------------
         total  cpu-time :  3 hours 11 minutes and  3 seconds
         total wall-time :  2 hours 49 minutes and 30 seconds
    ------------------------------------------------------------------------

   ****  dscf : all done  ****


    2018-02-20 07:51:38.271 

