 this is node-proc. number 0 running on node c-19-291.gp.local
 the total number of node-proc. spawned is  33

 dscfserver (c-19-291.gp.local) : TURBOMOLE V7.2 ( 21471 ) 7 Nov 2017 at 16:15:16
 Copyright (C) 2017 TURBOMOLE GmbH, Karlsruhe


    2018-02-12 12:00:34.784 

 
    0:00:07 ---- Start global counter...
    0:04:08 ---- ... finished.
 
    0:04:33 ---- Start global counter...
    0:07:23 ---- ... finished.
 
    0:07:48 ---- Start global counter...
    0:10:04 ---- ... finished.
 
    0:10:29 ---- Start global counter...
    0:12:32 ---- ... finished.
 
    0:12:58 ---- Start global counter...
    0:14:43 ---- ... finished.
 
    0:15:10 ---- Start global counter...
    0:16:45 ---- ... finished.
 
    0:17:11 ---- Start global counter...
    0:18:34 ---- ... finished.
 
    0:19:00 ---- ByeBye Tag received


 ! Total wall-clock time in seconds  :     1139.6
 ! Time (sec) spent in global counter:      951.7
 ! So-called SERIAL wall-clock time  :      187.9

  *** Regular termination of server ***
 total turnaround time of dscfserver  1140.03 sec
 cpu elapsed by dscfserver process     951.90 sec 

   ***  dscf server : all done  ***


    2018-02-12 12:19:34.818 

