           Doing BLAS/Lapack in the master proc. with  8 CPUs.
           SMPCPUS    set: Shared-memory Parallelization with   8 CPUs.

           SMP Parallelization Reference:
           C. van Wullen, J. Comput. Chem. 32 (2011) 1195--1201
 operating system is UNIX !

 ridft (c-18-263.gp.local) : TURBOMOLE V7.2 ( 21454 ) 4 Oct 2017 at 12:48:15
 Copyright (C) 2017 TURBOMOLE GmbH, Karlsruhe


    2018-04-28 20:54:47.313 



                                  r i d f t

                        DFT program with RI approximation 
                                for coulomb part 




                                                 
                                 References:     
                                                 
          TURBOMOLE:                             
              R. Ahlrichs, M. Baer, M. Haeser, H. Horn, and
              C. Koelmel
              Electronic structure calculations on workstation
              computers: the program system TURBOMOLE
              Chem. Phys. Lett. 162: 165 (1989)
          Density Functional:                              
              O. Treutler and R. Ahlrichs                      
              Efficient Molecular Numerical Integration Schemes
              J. Chem. Phys. 102: 346 (1995)                   
          Parallel Version:                                
              Performance of parallel TURBOMOLE for Density    
              Functional Calculations                          
              M. v. Arnim and R. Ahlrichs                      
              J. Comp. Chem. 19: 1746 (1998)                   
          RI-J Method:                                     
              Auxiliary Basis Sets to approximate Coulomb      
              Potentials                                       
              Chem. Phys. Lett. 240: 283 (1995)                
              K. Eichkorn, O. Treutler, H. Oehm, M. Haeser     
              and R. Ahlrichs                                  
              Chem. Phys. Lett. 242: 652 (1995)                
                                                           
              Auxiliary Basis Sets for Main Row Atoms and their
              Use to approximate Coulomb Potentials            
              K. Eichkorn, F. Weigend, O. Treutler and         
              R. Ahlrichs                                      
              Theo. Chem. Acc. 97: 119 (1997)                   
                                                           
              Accurate Coulomb-fitting basis sets for H to Rn 
              F. Weigend                                        
              Phys. Chem. Chem. Phys. 8: 1057 (2006)            
                                                           
          Multipole accelerated RI-J (MARI-J):             
              Fast evaluation of the Coulomb potential for     
              electron densities using multipole accelerated   
              resolution of identity approximation             
              M. Sierka, A. Hogekamp and R. Ahlrichs           
              J. Chem. Phys. 118: 9136 (2003)                  
          RI-JK Method:                                     
              A fully direct RI-HF algorithm: Implementation,
              optimised auxiliary basis sets, demonstration of
              accuracy and efficiency                         
              F. Weigend                                      
              Phys. Chem. Chem. Phys. 4: 4285 (2002)           
          Two-component HF and DFT with spin-orbit coupling:  
              Self-consistent treatment of spin-orbit         
              interactions with efficient Hartree-Fock and    
              density functional methods                      
              M. K. Armbruster, F. Weigend, C. van Wüllen and 
              W. Klopper                                      
              Phys. Chem. Chem. Phys. 10: 1748 (2008)         
          Relativistic all-electron 2c calculations           
              An efficient implementation of two-component    
              relativistic exact-decoupling methods for large 
              molecules                                       
              D. Peng, N. Middendorf, F. Weigend, M. Reiher   
              J. Chem. Phys. 138, 184105 (2013)               
                                         




              +--------------------------------------------------+
              |      general information about current run       |
              +--------------------------------------------------+

 

 DENSITY CONVERGENCE CHECK SWITCHED ON !
 SCF CONVERGENCE IF RMS(delta[D]) <     0.1000000000E-06

 PBE functional
 exchange:    LDA + PBE
 correlation: LDA (PW) + PBE
 A DFT calculation using the RI-J approximation will be carried out.
 Allocatable memory for RI due to $ricore (MB):                  5000


              +--------------------------------------------------+
              | Atomic coordinate, charge and isotop information |
              +--------------------------------------------------+

                    atomic coordinates            atom    charge  isotop
          1.34670449    2.11837487    0.11440550    c      6.000     0
          2.56594885    3.75375042    0.24138827    h      1.000     0
          2.37772094   -0.30094248    0.23476733    c      6.000     0
          4.39352686   -0.54254014    0.46627676    h      1.000     0
          0.80669567   -2.40850634    0.08059763    c      6.000     0
          1.60710748   -4.28671652    0.17905146    h      1.000     0
         -1.79444207   -2.09773596   -0.18956522    c      6.000     0
         -3.01308460   -3.73461606   -0.30937364    h      1.000     0
         -2.82613388    0.32323872   -0.30527773    c      6.000     0
         -4.84484734    0.56544602   -0.51722393    h      1.000     0
         -1.25445237    2.43140269   -0.15760587    c      6.000     0
         -2.05394465    4.31046569   -0.25111840    h      1.000     0
          3.75632288    2.09713718    7.01148787    c      0.000     0
          4.97490356    3.73398724    7.13195927    h      0.000     0
          4.78802477   -0.32388753    7.12774332    c      0.000     0
          6.80664323   -0.56605036    7.34079902    h      0.000     0
          3.21643501   -2.43206619    6.97911555    c      0.000     0
          4.01594357   -4.31111997    7.07294737    h      0.000     0
          0.61541301   -2.11906135    6.70564053    c      0.000     0
         -0.60365422   -3.75444970    6.57783338    h      0.000     0
         -0.41554573    0.30022793    6.58476263    c      0.000     0
         -2.43118060    0.54179013    6.35198851    h      0.000     0
          1.15534004    2.40780313    6.73985424    c      0.000     0
          0.35499401    4.28601145    6.64089130    h      0.000     0
 
       center of nuclear mass  :    0.98100866   -0.00033478    3.41049055
       center of nuclear charge:   -0.22401754    0.01097091   -0.03635880

              +--------------------------------------------------+
              |               basis set information              |
              +--------------------------------------------------+

              we will work with the 1s 3p 5d 7f 9g ... basis set
              ...i.e. with spherical basis functions...

   type   atoms  prim   cont   basis
   ---------------------------------------------------------------------------
    c       12     77     55   cc-pVQZ   [5s4p3d2f1g|21s6p3d2f1g]
    h       12     32     30   cc-pVQZ   [4s3p2d1f|6s3p2d1f]
   ---------------------------------------------------------------------------
   total:   24   1308   1020
   ---------------------------------------------------------------------------

   total number of primitive shells          :   45
   total number of contracted shells         :  300
   total number of cartesian basis functions : 1260
   total number of SCF-basis functions       : 1020


 integral neglect threshold       :  0.26E-13
 integral storage threshold THIZE :  0.10E-04
 integral storage threshold THIME :         5

 RI-J AUXILIARY BASIS SET information:

              we will work with the 1s 3p 5d 7f 9g ... basis set
              ...i.e. with spherical basis functions...

   type   atoms  prim   cont   basis
   ---------------------------------------------------------------------------
    c       12     70     49   cc-pVQZ   [6s4p3d1f1g|12s5p4d2f1g]
    h       12     16     11   cc-pVQZ   [3s1p1d|5s2p1d]
   ---------------------------------------------------------------------------
   total:   24   1032    720
   ---------------------------------------------------------------------------

   total number of primitive shells          :   32
   total number of contracted shells         :  240
   total number of cartesian basis functions :  876
   total number of SCF-basis functions       :  720


 symmetry group of the molecule :   c1 

 the group has the following generators :
   c1(z)

    1 symmetry operations found

 there are 1 real representations :   a   

 maximum number of shells which are related by symmetry :  1


    mo occupation :
   irrep   mo's   occupied
    a     1020       21
 
 number of basis functions   :                   1020
 number of occupied orbitals :                     21
 
  
           ------------------
           density functional
           ------------------
 Dummy atoms with grid-point found.
 DFT quadrature threshold dgrenze tightened by factor 1/10.

 PBE functional
 exchange:    LDA + PBE
 correlation: LDA (PW) + PBE
 Dummy atoms with grid-point found.
 DFT quadrature threshold dgrenze tightened by factor 1/10.

 Dummy atoms with grid-point found.
 DFT quadrature threshold dgrenze tightened by factor 1/10.


 iterations will be done with small grid
  
 spherical integration : Lebedev's spherical grid
 spherical gridsize    :                     5
    i.e. gridpoints    :                   590
 value for diffuse not defined
 radial integration    : Chebyshev 2nd kind (scaling 3)
 radial gridsize       :                     8
 integration cells     :                    24
 partition function    : becke
 partition sharpness   :                     3
  
 found dummy atom(s) with basis: included in dft

 biggest AO integral is expected to be     3.537514283
  
           ------------------------
               RI-J - INFORMATION
           ------------------------
 Contributions to RI integral batches: 
  neglected integral batches:                 11260
  direct contribution:                            0
  memory contribution:                 33890
 Memory core needed for (P|Q) and Cholesky      4 MByte
 Memory core minimum needed except of (P|Q)     5 MByte
 Total minimum memory core needed (sum)         9 MByte
  
 ****************************************
 Memory allocated for RI-J  3920 MByte
 ****************************************
                                            

          ------------------------
          nuclear repulsion energy  :   203.712002479    
          ------------------------


         -----------------
         -S,T+V- integrals
         -----------------

 1e-integrals will be neglected if expon. factor < 0.265235E-14
 Difference densities >>NOT<< switched on in parallel ridft!

 DIIS switched on: error vector is FDS-SDF
 Max. Iterations for DIIS is     :   4
 DIIS matrix (see manual) 
    Scaling factor of diagonals  :  1.200
    threshold for scaling factor :  0.000

 scf convergence criterion : increment of total energy < .1000000D-08
                  and increment of one-electron energy < .1000000D-05

  MOs are in ASCII format !


 automatic virtual orbital shift switched on 
      shift if e(lumo)-e(homo) < 0.10000000    


 reading orbital data $scfmo  from file mos
 orbital characterization : expanded
 mo provided and orthogonalized by Cholesky decomposition

 DSCF restart information will be dumped onto file mos


 Starting SCF iterations

          Overall gridpoints after grid construction =        138742

 ITERATION  ENERGY          1e-ENERGY        2e-ENERGY     RMS[dD(SAO)]   TOL
   1  -231.26833067654    -704.59371800     269.61338485    0.000D+00 0.265D-13
                            Exc = -33.4642500350     Coul =  303.077634883    
                              N = 41.999940512    
                            current damping = 0.700
 
          max. resid. norm for Fia-block=  2.752D-01 for orbital     12a         
          max. resid. fock norm         =  1.703D+01 for orbital    963a         

 ITERATION  ENERGY          1e-ENERGY        2e-ENERGY     RMS[dD(SAO)]   TOL
   2  -231.87673321344    -711.71816450     276.12942881    0.266D-02 0.265D-13
                            Exc = -34.1413190038     Coul =  310.270747814    
                              N = 41.999960163    
                            current damping = 0.650
 
          Norm of current diis error:  2.7268    
          max. resid. norm for Fia-block=  1.142D-01 for orbital      5a         
          max. resid. fock norm         =  1.333D-01 for orbital     37a         

 ITERATION  ENERGY          1e-ENERGY        2e-ENERGY     RMS[dD(SAO)]   TOL
   3  -231.99211172766    -713.04332046     277.33920626    0.118D-02 0.265D-13
                            Exc = -34.3149099187     Coul =  311.654116175    
                              N = 41.999967450    
                            current damping = 0.550
 
          Norm of current diis error:  1.3164    
          max. resid. norm for Fia-block=  5.341D-02 for orbital      7a         
          max. resid. fock norm         =  6.207D-02 for orbital      7a         

 ITERATION  ENERGY          1e-ENERGY        2e-ENERGY     RMS[dD(SAO)]   TOL
   4  -232.02590011559    -714.38047514     278.64257254    0.625D-03 0.265D-13
                            Exc = -34.4424256075     Coul =  313.084998150    
                              N = 41.999972950    
                            current damping = 0.450
 
          Norm of current diis error: 0.48013    
          max. resid. norm for Fia-block=  2.041D-02 for orbital      7a         
          max. resid. fock norm         =  2.300D-02 for orbital      7a         

 ITERATION  ENERGY          1e-ENERGY        2e-ENERGY     RMS[dD(SAO)]   TOL
   5  -232.03123042367    -714.56911828     278.82588538    0.304D-03 0.265D-13
                            Exc = -34.4766075795     Coul =  313.302492960    
                              N = 41.999974325    
                            current damping = 0.300
 
          Norm of current diis error: 0.18008    
          max. resid. norm for Fia-block=  7.305D-03 for orbital      7a         
          max. resid. fock norm         =  8.462D-03 for orbital      7a         
          mo-orthogonalization: Cholesky decomposition

 ITERATION  ENERGY          1e-ENERGY        2e-ENERGY     RMS[dD(SAO)]   TOL
   6  -232.03201464608    -714.89501989     279.15100276    0.105D-03 0.265D-13
                            Exc = -34.5036606909     Coul =  313.654663452    
                              N = 41.999975465    
                            current damping = 0.150
 
          Norm of current diis error: 0.49342E-01
          max. resid. norm for Fia-block=  1.718D-03 for orbital     21a         
          max. resid. fock norm         =  3.150D-03 for orbital    899a         

 ITERATION  ENERGY          1e-ENERGY        2e-ENERGY     RMS[dD(SAO)]   TOL
   7  -232.03206074237    -714.78537873     279.04131551    0.458D-04 0.265D-13
                            Exc = -34.4991047560     Coul =  313.540420266    
                              N = 41.999975273    
                            current damping = 0.200
 
          Norm of current diis error: 0.27223E-01
          max. resid. norm for Fia-block=  6.055D-04 for orbital     12a         
          max. resid. fock norm         =  7.747D-04 for orbital     12a         

 ITERATION  ENERGY          1e-ENERGY        2e-ENERGY     RMS[dD(SAO)]   TOL
   8  -232.03207505875    -714.84132908     279.09725154    0.564D-05 0.265D-13
                            Exc = -34.5027028137     Coul =  313.599954358    
                              N = 41.999975440    
                            current damping = 0.250
 
          Norm of current diis error: 0.19867E-02
          max. resid. norm for Fia-block=  9.929D-05 for orbital     21a         
          max. resid. fock norm         =  2.397D-04 for orbital      5a         

 ITERATION  ENERGY          1e-ENERGY        2e-ENERGY     RMS[dD(SAO)]   TOL
   9  -232.03207489444    -714.84266086     279.09858348    0.112D-05 0.265D-13
                            Exc = -34.5027887145     Coul =  313.601372198    
                              N = 41.999975435    
                            current damping = 0.300
 
          Norm of current diis error: 0.33180E-02
          max. resid. norm for Fia-block=  4.755D-05 for orbital     20a         
          max. resid. fock norm         =  1.066D-04 for orbital   1011a         

 ITERATION  ENERGY          1e-ENERGY        2e-ENERGY     RMS[dD(SAO)]   TOL
  10  -232.03207513035    -714.84286622     279.09878861    0.462D-06 0.265D-13
                            Exc = -34.5028073263     Coul =  313.601595941    
                              N = 41.999975441    
                            current damping = 0.150
 
          Norm of current diis error: 0.97071E-03
          max. resid. norm for Fia-block=  2.049D-05 for orbital     21a         
          max. resid. fock norm         =  4.037D-05 for orbital      3a         
          mo-orthogonalization: Cholesky decomposition

 ITERATION  ENERGY          1e-ENERGY        2e-ENERGY     RMS[dD(SAO)]   TOL
  11  -232.03207515190    -714.84276980     279.09869217    0.207D-06 0.265D-13
                            Exc = -34.5028094478     Coul =  313.601501622    
                              N = 41.999975444    
                            current damping = 0.200
 
          Norm of current diis error: 0.13016E-03
          max. resid. norm for Fia-block=  4.066D-06 for orbital     21a         
          max. resid. fock norm         =  9.217D-06 for orbital      6a         

 DENSITY CONVERGED !


 ITERATION  ENERGY          1e-ENERGY        2e-ENERGY     RMS[dD(SAO)]   TOL
  12  -232.03207515210    -714.84273450     279.09865687    0.345D-07 0.265D-13
                            Exc = -34.5028054385     Coul =  313.601462309    
                              N = 41.999975444    
                            current damping = 0.050
 
          Norm of current diis error: 0.91081E-04
          max. resid. norm for Fia-block=  2.229D-06 for orbital     20a         
          max. resid. fock norm         =  5.716D-06 for orbital      3a         

 DENSITY CONVERGED !


 ITERATION  ENERGY          1e-ENERGY        2e-ENERGY     RMS[dD(SAO)]   TOL
  13  -232.03207515228    -714.84276430     279.09868667    0.187D-07 0.265D-13
                            Exc = -34.5028072602     Coul =  313.601493931    
                              N = 41.999975444    
                            current damping = 0.100
 
          Norm of current diis error: 0.24945E-04
          max. resid. norm for Fia-block=  6.267D-07 for orbital     20a         
          max. resid. fock norm         =  1.464D-06 for orbital      3a         

 ENERGY & DENSITY CONVERGED !

          Overall gridpoints after grid construction =        371228

 ITERATION  ENERGY          1e-ENERGY        2e-ENERGY     RMS[dD(SAO)]   TOL
  14  -232.03206554834    -714.84275493     279.09868690    0.492D-08 0.265D-13
                            Exc = -34.5027973134     Coul =  313.601484213    
                              N = 41.999998577    
                            current damping = 0.150
 
          Norm of current diis error: 0.41894E-05
          max. resid. norm for Fia-block=  1.155D-07 for orbital     20a         
          max. resid. fock norm         =  3.069D-07 for orbital      4a         

 End of SCF iterations

   convergence criteria satisfied after    14 iterations


                  ------------------------------------------ 
                 |  total energy      =   -232.03206554834  |
                  ------------------------------------------ 
                 :  kinetic energy    =    230.96808160527  :
                 :  potential energy  =   -463.00014715361  :
                 :  virial theorem    =      1.99541449609  :
                 :  wavefunction norm =      1.00000000000  :
                  .......................................... 


 <geterg> : there is no data group $energy 


 <skperg> : $end is missing 


 orbitals $scfmo  will be written to file mos

    irrep                 17a         18a         19a         20a         21a   
 eigenvalues H         -0.33303    -0.30175    -0.30153    -0.23226    -0.23216
            eV          -9.0622     -8.2112     -8.2052     -6.3202     -6.3175
 occupation              2.0000      2.0000      2.0000      2.0000      2.0000 

    irrep                 22a         23a         24a         25a         26a   
 eigenvalues H         -0.04298    -0.04293     0.00372     0.03183     0.03374
            eV          -1.1696     -1.1681      0.1012      0.8662      0.9182
 
 
 
 
 ==============================================================================
                           electrostatic moments
 ==============================================================================

 reference point for electrostatic moments:    0.00000   0.00000   0.00000

 
              nuc           elec       ->  total
 ------------------------------------------------------------------------------
                          charge      
 ------------------------------------------------------------------------------
          42.000000     -42.000000       0.000000
 
 ------------------------------------------------------------------------------
                       dipole moment  
 ------------------------------------------------------------------------------
   x      -9.408737       9.405837      -0.002900
   y       0.460778      -0.460923      -0.000145
   z      -1.527070       1.515977      -0.011092
 
   | dipole moment | =     0.0115 a.u. =     0.0291 debye 
 
 ------------------------------------------------------------------------------
                     quadrupole moment
 ------------------------------------------------------------------------------
  xx     190.631681    -214.605034     -23.973353
  yy     190.382210    -214.301795     -23.919586
  zz       2.106051     -31.461846     -29.355795
  xy      -0.011149       0.015764       0.004615
  xz      19.977135     -19.400506       0.576629
  yz      -0.973758       0.945576      -0.028182
 
     1/3  trace=     -25.749578
     anisotropy=       5.501175
 
 ==============================================================================
 


    ------------------------------------------------------------------------
         total  cpu-time : 12 minutes and  4 seconds
         total wall-time :  2 minutes and  6 seconds
    ------------------------------------------------------------------------

   ****  ridft : all done  ****


    2018-04-28 20:56:52.931 

