
   OpenMP run-time library returned nthreads = 16

 ricc2 (c-3-41) : TURBOMOLE V7.3 ( 22142 ) 4 Jul 2018 at 18:12:42
 Copyright (C) 2018 TURBOMOLE GmbH, Karlsruhe


    2019-03-11 20:09:21.183 



                              R I C C 2 - PROGRAM

                          the quantum chemistry groups
                             at the universities in
                           Karlsruhe, Bochum & Mainz
                                   Germany



   *-----------------------------------------------------------------------*
   |                     program will use 16 thread(s)                     |
   *-----------------------------------------------------------------------*


              +--------------------------------------------------+
              | Atomic coordinate, charge and isotop information |
              +--------------------------------------------------+

                    atomic coordinates            atom    charge  isotop
          2.29077327    1.67392645    0.00000000    c      6.000     0
         -0.42283783    1.89006819    0.00000000    c      6.000     0
          2.00416570   -2.84846554    0.00000000    c      6.000     0
         -1.89569130   -0.36332853    0.00000000    c      6.000     0
         -0.67454461   -2.65085257    0.00000000    c      6.000     0
          3.50423981   -0.72739016    0.00000000    c      6.000     0
         -4.67103058   -0.30001814    0.00000000    n      7.000     0
          3.30333201    3.96359173    0.00000000    n      7.000     0
          1.26591744    5.55612118    0.00000000    o      8.000     0
         -1.03666240    4.32350426    0.00000000    n      7.000     0
          6.74724407   -0.91316884    0.00000000    cl    17.000     0
         -5.67445394    1.79859374    0.00000000    o      8.000     0
         -5.79266475   -2.34826497    0.00000000    o      8.000     0
          2.87220091   -4.70406291    0.00000000    h      1.000     0
         -1.81998778   -4.35025387    0.00000000    h      1.000     0
 
       center of nuclear mass  :    0.50666566    0.57190243    0.00000000
       center of nuclear charge:    0.46151856    0.53226704    0.00000000

              +--------------------------------------------------+
              |               basis set information              |
              +--------------------------------------------------+

              we will work with the 1s 3p 5d 7f 9g ... basis set
              ...i.e. with spherical basis functions...

   type   atoms  prim   cont   basis
   ---------------------------------------------------------------------------
    c        6     50     30   cc-pVTZ   [4s3p2d1f|18s5p2d1f]
    n        3     50     30   cc-pVTZ   [4s3p2d1f|18s5p2d1f]
    o        3     50     30   cc-pVTZ   [4s3p2d1f|18s5p2d1f]
    cl       1    106     34   cc-pVTZ   [5s4p2d1f|41s16p2d1f]
    h        2     16     14   cc-pVTZ   [3s2p1d|5s2p1d]
   ---------------------------------------------------------------------------
   total:   15    738    422
   ---------------------------------------------------------------------------

   total number of primitive shells          :  146
   total number of contracted shells         :  144
   total number of cartesian basis functions :  489
   total number of SCF-basis functions       :  422


 symmetry group of the molecule :   c1 

 the group has the following generators :
   c1(z)

    1 symmetry operations found

 there are 1 real representations :   a   
WARNING: an $rik but no $rij flag found
WARNING: $rik is ignored by ricc2!


   =========================================================================


     unrestricted open shell calculation for the wavefunction models:
               MP2        - Second Order Moeller Plesset PT


     global parameters for ricc2 program:

        hard restart (reuse of interm.) :  enabled 
        soft restart (reuse of vectors) :  disabled
        threshold for vector function   :    0.100000E-05
        convergence threshold energy    :    0.100000E-06
        linear dependence threshold     :    0.100000E-13
        global print level              :      1
        maximum number of iterations    :   300
        maximum number DIIS vectors     :    10
        max. dim. of reduced space      :   100
        core memory limit (MB)          : *****


     MP2 energy only: Energy will be calculated directly from T2 amplitudes!

     Scratch Directory : 


   =========================================================================

    der. integral neglect threshold  :  0.10E-07
    integral neglect threshold       :  0.68E-11
    integral storage threshold THIZE :  0.10E-04
    integral storage threshold THIME :         5


                  +------------------------------------------+
                  |     Auxiliary basis set information      |
                  +------------------------------------------+

              we will work with the 1s 3p 5d 7f 9g ... basis set
              ...i.e. with spherical basis functions...

   type   atoms  prim   cont   basis
   ---------------------------------------------------------------------------
    c        6     81     81   cc-pVTZ   [8s6p5d3f1g|8s6p5d3f1g]
    n        3     81     81   cc-pVTZ   [8s6p5d3f1g|8s6p5d3f1g]
    o        3     81     81   cc-pVTZ   [8s6p5d3f1g|8s6p5d3f1g]
    cl       1    122    122   cc-pVTZ   [10s8p7d5f2g|10s8p7d5f2g]
    h        2     30     30   cc-pVTZ   [4s3p2d1f|4s3p2d1f]
   ---------------------------------------------------------------------------
   total:   15   1154   1154
   ---------------------------------------------------------------------------

   total number of primitive shells          :  111
   total number of contracted shells         :  328
   total number of cartesian basis functions : 1438
   total number of SCF-basis functions       : 1154


 maximum number of shells which are related by symmetry :  1


 The symmetry information takes   1 MB

*---------------------------------------------------------------------*
|               simplified C1 algorithm will be applied               |
*---------------------------------------------------------------------*
 +===============================================+
 |   spin-orbital based open-shell calculation   |
 |   using a UHF reference wave function         |
 +===============================================+
 spin orbital occupation:
  alpha :                    50
  beta  :                    50
  MOs are in ASCII format !


 reading orbital data $uhfmo_alpha  from file alpha
 orbital characterization : scfconv=9

 reading orbital data $uhfmo_beta  from file beta
 orbital characterization : scfconv=9



              +--------------------------------------------+
              | list of orbitals that will be kept frozen: |
              +--------------------------------------------+
              |   irrep   index      energy     occ/vir    |
              +--------------------------------------------+
              |   a         1     -104.8755     occupied   |
              |   a         2      -20.6910     occupied   |
              |   a         3      -20.6449     occupied   |
              |   a         4      -20.6386     occupied   |
              |   a         5      -15.8260     occupied   |
              |   a         6      -15.6879     occupied   |
              |   a         7      -15.6654     occupied   |
              |   a         8      -11.3572     occupied   |
              |   a         9      -11.3390     occupied   |
              |   a        10      -11.3363     occupied   |
              |   a        11      -11.3160     occupied   |
              |   a       ...        ...        occupied   |
              |   a        17       -8.0651     occupied   |
              |   a         1     -104.8754     occupied   |
              |   a         2      -20.6907     occupied   |
              |   a         3      -20.6752     occupied   |
              |   a         4      -20.6135     occupied   |
              |   a         5      -15.8195     occupied   |
              |   a         6      -15.6901     occupied   |
              |   a         7      -15.6634     occupied   |
              |   a         8      -11.3553     occupied   |
              |   a         9      -11.3406     occupied   |
              |   a        10      -11.3307     occupied   |
              |   a        11      -11.3216     occupied   |
              |   a       ...        ...        occupied   |
              |   a        17       -8.0639     occupied   |
              +--------------------------------------------+



   Molecular Orbital Statistic:
   ============================

   ------------------------------------------
   orbitals in total:  alpha spin   beta spin
   ------------------------------------------
    frozen occupied :     17          17
    active occupied :     33          33
    active virtual  :    372         372
    frozen virtual  :      0           0
    all together    :    422         422
   ----------------------------------------


     time in riccmos       cpu:  4.09 sec    wall:  0.35 sec    ratio: 11.6

     total memory allocated for calculation of (Q|P)**(-1/2) : 16 MiB


     calculation of (P|Q) ...
     time in lp2sym        cpu:  0.66 sec    wall:  0.04 sec    ratio: 15.7


     calculation of the Cholesky decomposition of (P|Q)**(-1) ...
     time in invmetri      cpu:  1.61 sec    wall:  0.10 sec    ratio: 15.7

   threshold for RMS(d[D]) in SCF was     :  0.10E-06
   integral neglect threshold             :  0.68E-11
   derivative integral neglect threshold  :  0.10E-07


   =========================================================================

     Energy of reference wave function is -1075.8049120910000
     Maximum orbital residual is           0.1911450685036E-06


     Number of symmetry-nonredundant auxiliary basis functions:     1154

     Block lengths for integral files:
        frozen occupied (BOI):        1 MiB
        active occupied (BJI):        1 MiB
        active virtual  (BAI):        4 MiB
        frozen virtual  (BGI):        0 MiB
               general  (BTI):        4 MiB

   =========================================================================



   restarted calculation begins with wavefunction model nb. 1 which is MP2     


   **************************************************************************
   *                                                                        *
   *          OPTIMIZATION OF THE GROUND STATE CLUSTER AMPLITUDES           *
   *                                                                        *
   **************************************************************************


   Iter.   MP2 energy       Norm(Omega)   Norm(t1)  Norm(t2)     cpu    wall
   ...........................................................................
    1  -1078.0770901021     ------          0.00000   0.97131    0.93    0.06
   ...........................................................................


     time in total         cpu: 56.07 sec    wall:  3.58 sec    ratio: 15.7


     **********************************************************************
     *                                                                    *
     *   UHF  energy                             :  -1075.8049120910      *
     *   MP2 correlation energy (doubles)        :     -2.2721780111      *
     *                                                                    *
     *   Final MP2 energy                        :  -1078.0770901021      *
     *                                                                    *
     *    E(OS)  =     -1.6559056643      E(SS)  =     -0.6162723468      *
     *                                                                    *
     *   SCS-MP2 energy                          :  -1077.9974230038      *
     *   (computed with  C(OS) =   1.2000  and  C(SS) =   0.3333)         *
     *                                                                    *
     *   SOS-MP2 energy                          :  -1077.9575894546      *
     *   (computed with  C(OS) =   1.3000)                                *
     *                                                                    *
     *   Norm of MP1 T2 amplitudes               :      0.9713074058      *
     *                                                                    *
     **********************************************************************



    ------------------------------------------------------------------------
         total  cpu-time :  1 minutes and 23 seconds
         total wall-time :   5.41 seconds
    ------------------------------------------------------------------------

   ****  ricc2 : all done  ****


    2019-03-11 20:09:26.571 

