
 define (gplogin3.local) : TURBOMOLE V7.1 ( ) 5 Apr 2016 at 11:26:39
 Copyright (C) 2016 TURBOMOLE GmbH, Karlsruhe


    2016-06-06 09:43:44.385 

             OPERATING SYSTEM = unix
                    HOST NAME = gplogin3.local
   STANDARD BASIS SET LIBRARY = /beegfs/modfac/apps/TURBOMOLE/7.1_intel/basen/
  ALTERNATE BASIS SET LIBRARY = /beegfs/modfac/apps/TURBOMOLE/7.1_intel/basold/
 LIBRARY FOR RI-J  BASIS SETS = /beegfs/modfac/apps/TURBOMOLE/7.1_intel/jbasen/
 LIBRARY FOR RI-JK BASIS SETS = /beegfs/modfac/apps/TURBOMOLE/7.1_intel/jkbasen/
 LIBRARY FOR RIMP2/RICC2 SETS = /beegfs/modfac/apps/TURBOMOLE/7.1_intel/cbasen/
 LIBRARY FOR RIR12 BASIS SETS = /beegfs/modfac/apps/TURBOMOLE/7.1_intel/cabasen/
 LIBRARY FOR OEP   BASIS SETS = /beegfs/modfac/apps/TURBOMOLE/7.1_intel/xbasen/
            STRUCTURE LIBRARY = /beegfs/modfac/apps/TURBOMOLE/7.1_intel/structures/

 
 ***********************************************************
 *                                                         *
 *                       D E F I N E                       *
 *                                                         *
 *         TURBOMOLE'S  INTERACTIVE  INPUT  PROGRAM        *
 *                                                         *
 *  Quantum Chemistry Group       University of Karlsruhe  *
 *                                                         *
 ***********************************************************
 

 FILE control ALREADY EXISTS 
 I WILL PLUG IN THE NEW DATA. 

 DATA WILL BE TAKEN FROM control BY DEFAULT
 
 INPUT TITLE 

 SYMMETRY c1   AND CARTESIAN COORDINATES FOR 113 ATOMS 
 HAVE BEEN READ FROM THE DEFAULT INPUT FILE control . 

 keyword $intdef  missing in file <control>

 DEFINITIONS OF INTERNAL COORDINATES HAVE  N O T  BEEN READ. 
 SPECIFICATION OF BOND TOPOLOGY HAS BEEN READ. 
 DO YOU WANT TO CHANGE THE GEOMETRY DATA ?  DEFAULT=n  GOBACK=&


 ATOMIC ATTRIBUTE DATA (BASES,CHARGES,MASSES,ECPS) HAVE BEEN
 TAKEN FROM THE DEFAULT INPUT FILE control.
 DO YOU WANT TO CHANGE THESE DATA ? DEFAULT=n  GOBACK=&


 BASIS SETS WILL BE WRITTEN TO FILE basis BY DEFAULT


              ATOMIC COORDINATES              ATOM SHELLS CHARGE PSEUDO MASS
    -0.07022222    6.58471292   -2.12953238    c     21      6.     0 12.011
     0.01787681   -6.60597233    2.18263368    c     21      6.     0 12.011
   -10.47734088   -1.15156131    0.76159743    c     21      6.     0 12.011
   -10.43720310    0.76921302   -1.45862291    c     21      6.     0 12.011
    -0.70817487    8.79376497   -4.00480211    c     21      6.     0 12.011
    -0.62551825   -8.76394509    4.11567234    c     21      6.     0 12.011
   -12.85289670   -2.81665570    0.62332616    c     21      6.     0 12.011
   -12.87466635    2.34809810   -1.48487121    c     21      6.     0 12.011
    -5.66829023   -0.54582850    3.79963454    c     21      6.     0 12.011
    -5.42525255    0.35103553   -4.18260644    c     21      6.     0 12.011
   -15.26825016   -1.22072529    0.58681666    c     21      6.     0 12.011
   -15.22784782    0.66620405   -1.61031123    c     21      6.     0 12.011
     8.85117485    4.27187710   -5.47931761    c     21      6.     0 12.011
     8.68319709   -3.60319751    5.68556232    c     21      6.     0 12.011
     6.27547813  -10.04797620   -4.26579218    c     21      6.     0 12.011
     5.73938172    9.92075984    4.78391729    c     21      6.     0 12.011
     3.72092745    7.38087343   -0.01810358    c     21      6.     0 12.011
     3.93703653   -7.37592235    0.30772300    c     21      6.     0 12.011
    -0.45733262    7.48477058    0.51638656    c     21      6.     0 12.011
    -0.20195503   -7.62884330   -0.43597872    c     21      6.     0 12.011
     2.82566969   -6.06522720    2.27073272    c     21      6.     0 12.011
     2.75582541    6.15177666   -2.10591080    c     21      6.     0 12.011
     7.93955207    6.58699948   -1.40984908    c     21      6.     0 12.011
     8.05106481   -6.35537575    1.84817106    c     21      6.     0 12.011
    -4.15909825   -4.42866768    1.31360533    c     21      6.     0 12.011
    -4.20450836    4.24674374   -1.56493890    c     21      6.     0 12.011
     4.41114992    5.11390127   -3.91201655    c     21      6.     0 12.011
     4.35149126   -4.82110710    4.05890497    c     21      6.     0 12.011
    -1.86298651   -4.49938123    2.76568978    c     21      6.     0 12.011
    -1.83522643    4.43074638   -2.87924343    c     21      6.     0 12.011
     6.55451509   -7.61423571   -0.04781007    c     21      6.     0 12.011
     6.30881290    7.65437350    0.49646885    c     21      6.     0 12.011
    -8.28763962    2.46446744   -1.21462147    n     21      7.     0 14.007
    -8.25725282   -2.76967711    0.66518360    n     21      7.     0 14.007
     7.03533701    5.35036270   -3.57668465    c     21      6.     0 12.011
     6.99616299   -4.95055334    3.83854400    c     21      6.     0 12.011
    -6.01923127    2.38096044   -2.29716998    c     21      6.     0 12.011
    -6.07176565   -2.60714176    1.89976058    c     21      6.     0 12.011
    -4.49427897   -6.16659211   -0.84166512    c     21      6.     0 12.011
    -4.72573263    5.92682366    0.60441001    c     21      6.     0 12.011
    -2.34390291   -7.61506719   -1.78433611    c     21      6.     0 12.011
    -2.67405696    7.38204506    1.73182062    c     21      6.     0 12.011
     7.38986853    8.81470314    2.74305087    c     21      6.     0 12.011
     7.78731573   -8.91196734   -2.13395434    c     21      6.     0 12.011
     2.10893436   -8.45465362   -1.28875543    o     21      8.     0 15.999
     1.78354242    8.31188481    1.53734890    o     21      8.     0 15.999
    10.57910263   -6.44228426    1.69861813    o     21      8.     0 15.999
    10.45413504    6.70427589   -1.09651359    o     21      8.     0 15.999
     3.33665164   -3.47904250    5.95944033    o     21      8.     0 15.999
     3.53106666    3.87773692   -5.94753506    o     21      8.     0 15.999
     9.74331456    8.88961188    3.02819164    o     21      8.     0 15.999
    10.15002142   -9.06654694   -2.21734795    o     21      8.     0 15.999
    -6.53686505   -6.30316262   -2.06669899    o     21      8.     0 15.999
    -6.85237372    5.99107435    1.68168618    o     21      8.     0 15.999
    -1.38492359   -3.13766348    4.63946663    o     21      8.     0 15.999
    -1.19916351    3.13702097   -4.75774459    o     21      8.     0 15.999
    10.70025297    7.61451917    0.58836623    h     15      1.     0  1.008
    10.94846850   -7.51313536    0.13825236    h     15      1.     0  1.008
    -8.38762503    3.92586825    0.13093912    h     15      1.     0  1.008
    -8.22580778   -4.24785868   -0.66410645    h     15      1.     0  1.008
     1.65292455    3.58033182   -5.69287556    h     15      1.     0  1.008
     1.44743573   -3.33005649    5.64544344    h     15      1.     0  1.008
   -10.49338465   -0.08745653    2.53359362    h     15      1.     0  1.008
   -10.29673975   -0.29358785   -3.22597038    h     15      1.     0  1.008
    -2.51514989   -8.44477035   -3.64873991    h     15      1.     0  1.008
    -2.96911880    8.12204292    3.61778620    h     15      1.     0  1.008
   -12.93286991    3.50874900    0.23562995    h     15      1.     0  1.008
   -12.75259004   -3.97562474   -1.09653249    h     15      1.     0  1.008
   -12.84484647   -4.11916833    2.23133193    h     15      1.     0  1.008
   -12.80376382    3.65095089   -3.09113842    h     15      1.     0  1.008
   -15.44206717   -0.18831121    2.37952425    h     15      1.     0  1.008
   -15.24273886   -0.36947925   -3.40972735    h     15      1.     0  1.008
    -5.45730230   -1.35595409    5.68875596    h     15      1.     0  1.008
    -3.65110207   -0.56982802   -3.67462916    h     15      1.     0  1.008
   -16.91869917   -2.46176513    0.44616434    h     15      1.     0  1.008
   -16.92769427    1.84673486   -1.58342042    h     15      1.     0  1.008
    -3.89396967    0.43138668    3.40885807    h     15      1.     0  1.008
    -6.91571734   -1.06452053   -4.28022969    h     15      1.     0  1.008
     7.64411228   -2.09653776    6.63783312    h     15      1.     0  1.008
     7.95567143    2.74960822   -6.54531213    h     15      1.     0  1.008
    -7.20985322    0.81696640    3.79028040    h     15      1.     0  1.008
    -5.11930589    1.18285518   -6.04878658    h     15      1.     0  1.008
    10.33179417   -2.81782733    4.71739893    h     15      1.     0  1.008
    10.55079453    3.56411797   -4.54539606    h     15      1.     0  1.008
     7.58794962  -10.86001042   -5.63195079    h     15      1.     0  1.008
     6.95851964   10.69961047    6.25225340    h     15      1.     0  1.008
     0.58611746  -10.39617714    3.75171109    h     15      1.     0  1.008
     0.41908456   10.45449409   -3.51859447    h     15      1.     0  1.008
     4.50907553    8.46039838    5.57871721    h     15      1.     0  1.008
     5.11187926   -8.59432327   -5.16811751    h     15      1.     0  1.008
    -0.27801651   -8.06586136    6.02769724    h     15      1.     0  1.008
    -0.24556991    8.19230294   -5.92542526    h     15      1.     0  1.008
    -2.71684036    9.26595084   -3.88864064    h     15      1.     0  1.008
    -2.60736853   -9.31986473    3.92879732    h     15      1.     0  1.008
     4.98604240  -11.50525741   -3.56606439    h     15      1.     0  1.008
     4.51143768   11.39837450    4.01854042    h     15      1.     0  1.008
     9.45501794    5.72243088   -6.83217255    h     15      1.     0  1.008
     9.39687107   -4.90281886    7.13473660    h     15      1.     0  1.008
     5.37744248   -1.46325274   -2.07862316    c     21      6.     0 12.011
     3.66733481   -0.28338333   -0.32336994    c     21      6.     0 12.011
     8.94745640    0.29311542    0.09339027    c     21      6.     0 12.011
     4.69780247    1.19031959    1.67701856    c     21      6.     0 12.011
     7.27457634    1.46478342    1.82985961    c     21      6.     0 12.011
     8.04303347   -1.18270400   -1.84153812    c     21      6.     0 12.011
     3.08554483    2.42769337    3.53216270    n     21      7.     0 14.007
     4.06423399   -2.74066981   -3.78139868    n     21      7.     0 14.007
     1.59717763   -2.36162854   -3.10691763    o     21      8.     0 15.999
     1.31621315   -0.85995767   -0.97341683    n     21      7.     0 14.007
    10.01530284   -2.64996296   -3.95534797    cl    23     17.     0 35.453
     0.77949313    2.29407083    3.19187972    o     21      8.     0 15.999
     4.11616367    3.54291525    5.30899660    o     21      8.     0 15.999
    10.96385087    0.57485469    0.30209162    h     15      1.     0  1.008
     8.03451080    2.60855906    3.34882147    h     15      1.     0  1.008
 

 we will work with the  1s 3p 5d  7f  9g basis set


 there are 1 real representations :   a   

    mo occupation :
   irrep   mo's   occupied
    a     8703      252
 
 number of basis functions   :         8703
 number of occupied orbitals :          252
 

 reading orbital data $scfmo  from file mos
 orbital characterization : scfconv=9

 MOLECULAR ORBITAL DATA (OCCUPATION NUMBERS,MOS) HAVE BEEN 
 TAKEN FROM THE DEFAULT INPUT FILE control . 
 DO YOU WANT TO CHANGE THESE DATA ?  DEFAULT=n  GOBACK=&


 orbitals $scfmo will be written to file mos

 ADJUSTING DATA GROUP  $drvopt  FOR CURRENT REQUIREMENTS

 ADJUSTING DATA GROUP  $optimize  FOR CURRENT REQUIREMENTS


 DO YOU WANT TO DELETE DATA GROUPS LIKE
     $energy
     $grad
     $dipole
 LEFT OVER FROM PREVIOUS CALCULATIONS ? DEFAULT(n)


    mo occupation :
   irrep   mo's   occupied
    a     8703      252
 
 number of basis functions   :         8703
 number of occupied orbitals :          252
 

 GENERAL MENU : SELECT YOUR TOPIC 
 scf    : SELECT NON-DEFAULT SCF PARAMETER 
 mp2    : OPTIONS AND DATA GROUPS FOR rimp2 and mpgrad
 cc     : OPTIONS AND DATA GROUPS FOR ricc2
 ex     : EXCITED STATE AND RESPONSE OPTIONS
 prop   : SELECT TOOLS FOR SCF-ORBITAL ANALYSIS 
 drv    : SELECT NON-DEFAULT INPUT PARAMETER FOR EVALUATION
          OF ANALYTICAL ENERGY DERIVATIVES 
          (GRADIENTS, FORCE CONSTANTS) 
 rex    : SELECT OPTIONS FOR GEOMETRY UPDATES USING RELAX
 stp    : SELECT NON-DEFAULT STRUCTURE OPTIMIZATION PARAMETER
 e      : DEFINE EXTERNAL ELECTROSTATIC FIELD 
 dft    : DFT Parameters 
 ri     : RI Parameters 
 rijk   : RI-JK-HF Parameters 
 rirpa  : RIRPA Parameters 
 senex  : seminumeric exchange parameters 
 hybno  : hybrid Noga/Diag parameters
 dsp    : DFT dispersion correction
 trunc  : USE TRUNCATED AUXBASIS DURING ITERATIONS 
 marij  : MULTIPOLE ACCELERATED RI-J 
 dis    : DISPLAY MOLECULAR GEOMETRY 
 list   : LIST OF CONTROL FILE 
 &      : GO BACK TO OCCUPATION/ORBITAL ASSIGNMENT MENU

 * or q : END OF DEFINE SESSION 


 NO DEFINITION OF BASIS SETS ($jkbas) IN control
  TRY TO OBTAIN BASIS SETS FROM LIBRARY !

 keyword $jkbas  missing in file <control>

 c cc-pV5Z                                                               
 c d-aug-cc-pV5Z                                                         
 c cc-pVQZ-F12                                                           
 c YP-aug-cc-pVQZ                                                        
 c YP-aug-cc-pV5Z                                                        

 keyword $jkbas  missing in file <control>

 n cc-pV5Z                                                               
 n d-aug-cc-pV5Z                                                         
 n cc-pVQZ-F12                                                           
 n YP-aug-cc-pVQZ                                                        
 n YP-aug-cc-pV5Z                                                        

 keyword $jkbas  missing in file <control>

 o cc-pV5Z                                                               
 o d-aug-cc-pV5Z                                                         
 o cc-pVQZ-F12                                                           
 o YP-aug-cc-pVQZ                                                        
 o YP-aug-cc-pV5Z                                                        

 keyword $jkbas  missing in file <control>

 h cc-pV5Z                                                               
 h d-aug-cc-pV5Z                                                         
 h cc-pVQZ-F12                                                           
 h YP-aug-cc-pVQZ                                                        
 h YP-aug-cc-pV5Z                                                        

 keyword $jkbas  missing in file <control>

 cl cc-pV5Z                                                              
 cl cc-pVQZ-F12                                                          
 cl YP-aug-cc-pVQZ                                                       
 cl YP-aug-cc-pV5Z                                                       


STATUS OF RI-OPTIONS:
    RI IS USED
    Memory for RI:         50000 Mb
    Filename for auxbasis: auxbasis

 ENTER RI-OPTION TO BE MODIFIED 
      m: CHANGE MEMORY FOR RI 
      f: CHANGE FILENAME 
  jkbas: ASSIGN AUXILIARY RI-JK BASIS SETS
    off: TO SWITCH OFF RI 
 Use <ENTER>, q, end, or '*' to leave this menu

 GENERAL MENU : SELECT YOUR TOPIC 
 scf    : SELECT NON-DEFAULT SCF PARAMETER 
 mp2    : OPTIONS AND DATA GROUPS FOR rimp2 and mpgrad
 cc     : OPTIONS AND DATA GROUPS FOR ricc2
 ex     : EXCITED STATE AND RESPONSE OPTIONS
 prop   : SELECT TOOLS FOR SCF-ORBITAL ANALYSIS 
 drv    : SELECT NON-DEFAULT INPUT PARAMETER FOR EVALUATION
          OF ANALYTICAL ENERGY DERIVATIVES 
          (GRADIENTS, FORCE CONSTANTS) 
 rex    : SELECT OPTIONS FOR GEOMETRY UPDATES USING RELAX
 stp    : SELECT NON-DEFAULT STRUCTURE OPTIMIZATION PARAMETER
 e      : DEFINE EXTERNAL ELECTROSTATIC FIELD 
 dft    : DFT Parameters 
 ri     : RI Parameters 
 rijk   : RI-JK-HF Parameters 
 rirpa  : RIRPA Parameters 
 senex  : seminumeric exchange parameters 
 hybno  : hybrid Noga/Diag parameters
 dsp    : DFT dispersion correction
 trunc  : USE TRUNCATED AUXBASIS DURING ITERATIONS 
 marij  : MULTIPOLE ACCELERATED RI-J 
 dis    : DISPLAY MOLECULAR GEOMETRY 
 list   : LIST OF CONTROL FILE 
 &      : GO BACK TO OCCUPATION/ORBITAL ASSIGNMENT MENU

 * or q : END OF DEFINE SESSION 

 
 ***********************************************************
 *                                                         *
 *                       e n d   o f                       *
 *                       D E F I N E                       *
 *                                                         *
 *         TURBOMOLE'S  INTERACTIVE  INPUT  PROGRAM        *
 *                                                         *
 *  Quantum Chemistry Group       University of Karlsruhe  *
 *                                                         *
 ***********************************************************


    ------------------------------------------------------------------------
         total  cpu-time :  2 minutes and  5 seconds
         total wall-time :  2 minutes and 11 seconds
    ------------------------------------------------------------------------

   ****  define : all done  ****


    2016-06-06 09:45:55.042 

