
   OpenMP run-time library returned nthreads = 28
 operating system is UNIX !

 dscf (c-13-38) : TURBOMOLE V7.3 ( 22142 ) 4 Jul 2018 at 18:12:42
 Copyright (C) 2018 TURBOMOLE GmbH, Karlsruhe


    2019-04-01 21:39:17.455 



                             d s c f - program

                   idea & directorship : reinhart ahlrichs
                   program development : marco haeser
                                         michael baer
                           dft version : oliver treutler


                          quantum chemistry group
                          universitaet  karlsruhe
                                  germany




                          References             
                                                 
          TURBOMOLE:                             
              R. Ahlrichs, M. Baer, M. Haeser, H. Horn, and
              C. Koelmel
              Electronic structure calculations on workstation
              computers: the program system TURBOMOLE
              Chem. Phys. Lett. 162: 165 (1989)
          Density Functional:                              
              O. Treutler and R. Ahlrichs                      
              Efficient Molecular Numerical Integration Schemes
              J. Chem. Phys. 102: 346 (1995)                   
          Parallel Version:                                
              Performance of parallel TURBOMOLE for Density    
              Functional Calculations                          
              M. v. Arnim and R. Ahlrichs                      
              J. Comp. Chem. 19: 1746 (1998)                   
                                         




              +--------------------------------------------------+
              | Atomic coordinate, charge and isotop information |
              +--------------------------------------------------+

                    atomic coordinates            atom    charge  isotop
          4.53325169   -0.86081022    0.37236018    n      7.000     0
          5.09311834   -0.34200909   -1.38127779    h      1.000     0
          5.71158979   -2.27374015    0.89240310    h      1.000     0
          4.83604246    1.28442690    2.09895627    c      6.000     0
          4.32545678    0.68973806    3.99936523    h      1.000     0
          6.73977205    2.08146909    2.16882273    h      1.000     0
          3.52733080    2.76932736    1.54591423    h      1.000     0
 
       center of nuclear mass  :    4.73898621    0.20344164    1.21416681
       center of nuclear charge:    4.78590469    0.25587084    1.24586035

              +--------------------------------------------------+
              |               basis set information              |
              +--------------------------------------------------+

              we will work with the 1s 3p 5d 7f 9g ... basis set
              ...i.e. with spherical basis functions...

   type   atoms  prim   cont   basis
   ---------------------------------------------------------------------------
    n        1     77     55   cc-pVQZ   [5s4p3d2f1g|21s6p3d2f1g]
    h        5     32     30   cc-pVQZ   [4s3p2d1f|6s3p2d1f]
    c        1     77     55   cc-pVQZ   [5s4p3d2f1g|21s6p3d2f1g]
   ---------------------------------------------------------------------------
   total:    7    314    260
   ---------------------------------------------------------------------------

   total number of primitive shells          :   78
   total number of contracted shells         :   80
   total number of cartesian basis functions :  315
   total number of SCF-basis functions       :  260


 integral neglect threshold       :  0.11E-12
 integral storage threshold THIZE :  0.10E-04
 integral storage threshold THIME :         5


 DENSITY CONVERGENCE CHECK SWITCHED ON !
 SCF CONVERGENCE IF RMS(delta[D]) <     0.1000000000E-06


 symmetry group of the molecule :   c1 

 the group has the following generators :
   c1(z)

    1 symmetry operations found

 there are 1 real representations :   a   

 maximum number of shells which are related by symmetry :  1


    mo occupation :
   irrep   mo's   occupied
    a      260        9
 
 number of basis functions   :                    260
 number of occupied orbitals :                      9
 

 automatic virtual orbital shift switched on 
      shift if e(lumo)-e(homo) < 0.10000000    


          ------------------------
          nuclear repulsion energy  :   42.0598292999    
          ------------------------


         -----------------
         -S,T+V- integrals
         -----------------

 1e-integrals will be neglected if expon. factor < 0.106094E-13
 
   Difference densities algorithm switched on.
   The maximal number of linear combinations of
   difference densities is                    20 .

 DIIS switched on: error vector is FDS-SDF
 Max. Iterations for DIIS is     :   5
 DIIS matrix (see manual) 
    Scaling factor of diagonals  :  1.200
    threshold for scaling factor :  0.000

 scf convergence criterion : increment of total energy < .1000000D-08
                  and increment of one-electron energy < .1000000D-05

  MOs are in ASCII format !


 reading orbital data $scfmo  from file mos
 orbital characterization : scfconv=9

 DSCF restart information will be dumped onto file mos

 
                                              current damping :  0.700
 ITERATION  ENERGY          1e-ENERGY        2e-ENERGY     RMS[dD(SAO)]   TOL
   1  -95.241446860968    -211.69682504     74.395548877    0.000D+00 0.106D-12
          max. resid. norm for Fia-block=  1.106D-01 for orbital      1a         
          max. resid. fock norm         =  2.546D-01 for orbital    259a         
          Delta Eig. =    26.0535197166 eV 
 
                                              current damping :  0.650
 ITERATION  ENERGY          1e-ENERGY        2e-ENERGY     RMS[dD(SAO)]   TOL
   2  -95.256842560277    -211.47196637     74.155294511    0.971D-03 0.683D-13
          Norm of current diis error: 0.37673    
          max. resid. norm for Fia-block=  5.179D-02 for orbital      1a         
          max. resid. fock norm         =  9.251D-02 for orbital    260a         
          Delta Eig. =    11.1606367723 eV 
 
                                              current damping :  0.600
 ITERATION  ENERGY          1e-ENERGY        2e-ENERGY     RMS[dD(SAO)]   TOL
   3  -95.259903179442    -211.53306731     74.213334835    0.491D-03 0.509D-13
          Norm of current diis error: 0.16654    
          max. resid. norm for Fia-block=  2.125D-02 for orbital      1a         
          max. resid. fock norm         =  3.788D-02 for orbital    259a         
          Delta Eig. =     4.4834012226 eV 
 
                                              current damping :  0.650
 ITERATION  ENERGY          1e-ENERGY        2e-ENERGY     RMS[dD(SAO)]   TOL
   4  -95.260519893019    -211.51136126     74.191012069    0.210D-03 0.448D-13
          Norm of current diis error: 0.65657E-01
          max. resid. norm for Fia-block=  8.104D-03 for orbital      1a         
          max. resid. fock norm         =  1.382D-02 for orbital    259a         
          Delta Eig. =     1.6181169860 eV 
 
                                              current damping :  0.500
 ITERATION  ENERGY          1e-ENERGY        2e-ENERGY     RMS[dD(SAO)]   TOL
   5  -95.260618407143    -211.50977933     74.189331618    0.845D-04 0.413D-13
          Norm of current diis error: 0.27768E-01
          max. resid. norm for Fia-block=  3.167D-03 for orbital      1a         
          max. resid. fock norm         =  5.459D-03 for orbital    260a         
 mo-orthogonalization: Cholesky decomposition
          Delta Eig. =     0.7009346567 eV 
 
                                              current damping :  0.350
 ITERATION  ENERGY          1e-ENERGY        2e-ENERGY     RMS[dD(SAO)]   TOL
   6  -95.260637744998    -211.50826253     74.187795489    0.394D-04 0.383D-13
          Norm of current diis error: 0.10280E-01
          max. resid. norm for Fia-block=  1.044D-03 for orbital      1a         
          max. resid. fock norm         =  1.819D-03 for orbital    260a         
          Delta Eig. =     0.2596510647 eV 
 
                                              current damping :  0.200
 ITERATION  ENERGY          1e-ENERGY        2e-ENERGY     RMS[dD(SAO)]   TOL
   7  -95.260640768508    -211.50764429     74.187174220    0.166D-04 0.354D-13
          Norm of current diis error: 0.32311E-02
          max. resid. norm for Fia-block=  2.892D-04 for orbital      7a         
          max. resid. fock norm         =  4.720D-04 for orbital    260a         
          Delta Eig. =     0.0757029890 eV 
 
                                              current damping :  0.050
 ITERATION  ENERGY          1e-ENERGY        2e-ENERGY     RMS[dD(SAO)]   TOL
   8  -95.260641131134    -211.50748222     74.187011790    0.615D-05 0.329D-13
          Norm of current diis error: 0.85520E-03
          max. resid. norm for Fia-block=  7.578D-05 for orbital      5a         
          max. resid. fock norm         =  8.041D-05 for orbital    260a         
          Delta Eig. =     0.0145996052 eV 
 
                                              current damping :  0.050
 ITERATION  ENERGY          1e-ENERGY        2e-ENERGY     RMS[dD(SAO)]   TOL
   9  -95.260641165537    -211.50738028     74.186909815    0.202D-05 0.307D-13
          Norm of current diis error: 0.19551E-03
          max. resid. norm for Fia-block=  2.302D-05 for orbital      9a         
          max. resid. fock norm         =  2.329D-05 for orbital      9a         
          Delta Eig. =     0.0007664143 eV 
 
                                              current damping :  0.050
 ITERATION  ENERGY          1e-ENERGY        2e-ENERGY     RMS[dD(SAO)]   TOL
  10  -95.260641167993    -211.50737951     74.186909041    0.538D-06 0.292D-13
          Norm of current diis error: 0.53184E-04
          max. resid. norm for Fia-block=  7.817D-06 for orbital      9a         
          max. resid. fock norm         =  7.939D-06 for orbital      9a         
 mo-orthogonalization: Cholesky decomposition
          Delta Eig. =     0.0000818170 eV 
 
                                              current damping :  0.050
 ITERATION  ENERGY          1e-ENERGY        2e-ENERGY     RMS[dD(SAO)]   TOL
  11  -95.260641168205    -211.50736575     74.186895286    0.164D-06 0.302D-13
          Norm of current diis error: 0.13951E-04
          max. resid. norm for Fia-block=  2.396D-06 for orbital      9a         
          max. resid. fock norm         =  2.439D-06 for orbital      9a         
          Delta Eig. =     0.0000476829 eV 

 DENSITY CONVERGED !

 
                                              current damping :  0.100
 ITERATION  ENERGY          1e-ENERGY        2e-ENERGY     RMS[dD(SAO)]   TOL
  12  -95.260641168221    -211.50737173     74.186901264    0.416D-07 0.303D-13
          Norm of current diis error: 0.45182E-05
          max. resid. norm for Fia-block=  6.259D-07 for orbital      9a         
          max. resid. fock norm         =  6.373D-07 for orbital      9a         
          Delta Eig. =     0.0000208763 eV 

 ENERGY & DENSITY CONVERGED !

 
                                              current damping :  0.150
 ITERATION  ENERGY          1e-ENERGY        2e-ENERGY     RMS[dD(SAO)]   TOL
  13  -95.260641168223    -211.50736875     74.186898284    0.921D-08 0.301D-13
          max. resid. norm for Fia-block=  1.903D-07 for orbital      9a         
          max. resid. fock norm         =  1.957D-07 for orbital      9a         

 convergence criteria satisfied after    13 iterations


                  ------------------------------------------ 
                 |  total energy      =    -95.26064116822  |
                  ------------------------------------------ 
                 :  kinetic energy    =     95.17068982895  :
                 :  potential energy  =   -190.43133099717  :
                 :  virial theorem    =      1.99905573448  :
                 :  wavefunction norm =      1.00000000000  :
                  .......................................... 


 orbitals $scfmo  will be written to file mos

    irrep                  5a          6a          7a          8a          9a   
 eigenvalues H         -0.66052    -0.60345    -0.55407    -0.51652    -0.39343
            eV         -17.9737    -16.4208    -15.0772    -14.0553    -10.7059
 occupation              2.0000      2.0000      2.0000      2.0000      2.0000 

    irrep                 10a         11a         12a         13a         14a   
 eigenvalues H          0.11172     0.14891     0.16645     0.19147     0.21000
            eV           3.0402      4.0521      4.5293      5.2103      5.7144
 
 
 
 
 ==============================================================================
                           electrostatic moments
 ==============================================================================

 reference point for electrostatic moments:    0.00000   0.00000   0.00000

 
              nuc           elec       ->  total
 ------------------------------------------------------------------------------
                          charge      
 ------------------------------------------------------------------------------
          18.000000     -18.000000      -0.000000
 
 ------------------------------------------------------------------------------
                       dipole moment  
 ------------------------------------------------------------------------------
   x      86.146284     -85.604815       0.541469
   y       4.605675      -4.446908       0.158767
   z      22.425486     -22.437100      -0.011614
 
   | dipole moment | =     0.5644 a.u. =     1.4345 debye 
 
 ------------------------------------------------------------------------------
                     quadrupole moment
 ------------------------------------------------------------------------------
  xx     419.314715    -425.438952      -6.124237
  yy      32.849765     -43.081887     -10.232122
  zz      53.197146     -62.758229      -9.561083
  xy      22.005202     -22.517573      -0.512371
  xz     108.151299    -108.186880      -0.035581
  yz      23.929327     -24.147419      -0.218093
 
     1/3  trace=      -8.639147
     anisotropy=       3.937325
 
 ==============================================================================
 


    ------------------------------------------------------------------------
         total  cpu-time :  9 minutes and 22 seconds
         total wall-time :  1 minutes and  6 seconds
    ------------------------------------------------------------------------

   ****  dscf : all done  ****


    2019-04-01 21:40:23.877 

