 operating system is UNIX !

 ridft (c-12-251.gp.local) : TURBOMOLE V7.2 ( 21285 ) 30 Jun 2017 at 11:51:10
 Copyright (C) 2017 TURBOMOLE GmbH, Karlsruhe


    2018-02-07 23:04:20.525 



                                  r i d f t

                        DFT program with RI approximation 
                                for coulomb part 




                                                 
                                 References:     
                                                 
          TURBOMOLE:                             
              R. Ahlrichs, M. Baer, M. Haeser, H. Horn, and
              C. Koelmel
              Electronic structure calculations on workstation
              computers: the program system TURBOMOLE
              Chem. Phys. Lett. 162: 165 (1989)
          Density Functional:                              
              O. Treutler and R. Ahlrichs                      
              Efficient Molecular Numerical Integration Schemes
              J. Chem. Phys. 102: 346 (1995)                   
          Parallel Version:                                
              Performance of parallel TURBOMOLE for Density    
              Functional Calculations                          
              M. v. Arnim and R. Ahlrichs                      
              J. Comp. Chem. 19: 1746 (1998)                   
          RI-J Method:                                     
              Auxiliary Basis Sets to approximate Coulomb      
              Potentials                                       
              Chem. Phys. Lett. 240: 283 (1995)                
              K. Eichkorn, O. Treutler, H. Oehm, M. Haeser     
              and R. Ahlrichs                                  
              Chem. Phys. Lett. 242: 652 (1995)                
                                                           
              Auxiliary Basis Sets for Main Row Atoms and their
              Use to approximate Coulomb Potentials            
              K. Eichkorn, F. Weigend, O. Treutler and         
              R. Ahlrichs                                      
              Theo. Chem. Acc. 97: 119 (1997)                   
                                                           
              Accurate Coulomb-fitting basis sets for H to Rn 
              F. Weigend                                        
              Phys. Chem. Chem. Phys. 8: 1057 (2006)            
                                                           
          Multipole accelerated RI-J (MARI-J):             
              Fast evaluation of the Coulomb potential for     
              electron densities using multipole accelerated   
              resolution of identity approximation             
              M. Sierka, A. Hogekamp and R. Ahlrichs           
              J. Chem. Phys. 118: 9136 (2003)                  
          RI-JK Method:                                     
              A fully direct RI-HF algorithm: Implementation,
              optimised auxiliary basis sets, demonstration of
              accuracy and efficiency                         
              F. Weigend                                      
              Phys. Chem. Chem. Phys. 4: 4285 (2002)           
          Two-component HF and DFT with spin-orbit coupling:  
              Self-consistent treatment of spin-orbit         
              interactions with efficient Hartree-Fock and    
              density functional methods                      
              M. K. Armbruster, F. Weigend, C. van Wüllen and 
              W. Klopper                                      
              Phys. Chem. Chem. Phys. 10: 1748 (2008)         
          Relativistic all-electron 2c calculations           
              An efficient implementation of two-component    
              relativistic exact-decoupling methods for large 
              molecules                                       
              D. Peng, N. Middendorf, F. Weigend, M. Reiher   
              J. Chem. Phys. 138, 184105 (2013)               
                                         




              +--------------------------------------------------+
              |      general information about current run       |
              +--------------------------------------------------+

 

 DENSITY CONVERGENCE CHECK SWITCHED ON !
 SCF CONVERGENCE IF RMS(delta[D]) <     0.1000000000E-06

 PBE functional
 exchange:    LDA + PBE
 correlation: LDA (PW) + PBE
 A DFT calculation using the RI-J approximation will be carried out.
 Allocatable memory for RI due to $ricore (MB):                  5000


              +--------------------------------------------------+
              | Atomic coordinate, charge and isotop information |
              +--------------------------------------------------+

                    atomic coordinates            atom    charge  isotop
         -3.02021322   -5.57287040    6.14160993    c      6.000     0
         -7.55992498   -5.49254003    6.14160993    c      6.000     0
         -7.57917751   -2.96661681    6.14160993    c      6.000     0
         -5.13872849   -1.73612541    6.14160993    c      6.000     0
         -5.34962382   -6.77813772    6.14160993    n      7.000     0
         -3.01397334   -3.02330859    6.14160993    n      7.000     0
         -5.01381949    0.76047871    6.14160993    n      7.000     0
         -1.13019040   -6.85880446    6.14160993    o      8.000     0
         -5.30378284   -8.65690911    6.14160993    h      1.000     0
         -9.25454067   -6.60873133    6.14160993    h      1.000     0
         -9.30421779   -1.90668642    6.14160993    h      1.000     0
         -6.57529074    1.79538156    6.14160993    h      1.000     0
         -3.32233507    1.63396871    6.14160993    h      1.000     0
          2.02057455    2.09509212    6.14160993    c      6.000     0
          4.31882924   -1.93152310    6.14160993    c      6.000     0
          6.52909072    1.59570364    6.14160993    c      6.000     0
          4.48320895    3.19202901    6.14160993    c      6.000     0
          7.66977287    5.57318976    6.14160993    c      6.000     0
          2.15879290   -0.53650459    6.14160993    n      7.000     0
          6.57508098   -0.94499535    6.14160993    n      7.000     0
          5.26063662    5.68364992    6.14160993    n      7.000     0
          8.57326795    3.13252153    6.14160993    n      7.000     0
          4.03373759   -4.43966966    6.14160993    n      7.000     0
         -0.02458345    3.12065405    6.14160993    o      8.000     0
          0.48192174   -1.43893196    6.14160993    h      1.000     0
          8.92516519    7.16093010    6.14160993    h      1.000     0
         10.36302946    2.57112358    6.14160993    h      1.000     0
          5.59543373   -5.47388087    6.14160993    h      1.000     0
          2.33979087   -5.28069984    6.14160993    h      1.000     0
         -2.86614385    0.50730076    0.00000000    c      0.000     0
         -2.35868435   -4.10118003    0.00000000    c      0.000     0
         -6.22007703   -2.54675178    0.00000000    c      0.000     0
         -5.50322076   -0.05275926    0.00000000    c      0.000     0
         -9.48081459    0.00062550    0.00000000    c      0.000     0
         -1.43115007   -1.70294749    0.00000000    n      0.000     0
         -4.76389754   -4.62925266    0.00000000    n      0.000     0
         -7.59671039    1.50604370    0.00000000    n      0.000     0
         -8.77716940   -2.50497750    0.00000000    n      0.000     0
         -0.65378855   -5.96273979    0.00000000    n      0.000     0
         -1.81438653    2.53911162    0.00000000    o      0.000     0
          0.45590021   -1.44738660    0.00000000    h      0.000     0
        -11.42969860    0.54723256    0.00000000    h      0.000     0
         -9.89513516   -4.01115348    0.00000000    h      0.000     0
         -1.30933455   -7.71737697    0.00000000    h      0.000     0
          1.21098753   -5.64747111    0.00000000    h      0.000     0
          5.71905583   -2.73330933    0.00000000    c      0.000     0
          9.34454077    0.00005480    0.00000000    c      0.000     0
          7.87541665    2.05488631    0.00000000    c      0.000     0
          5.17778724    1.61591426    0.00000000    c      0.000     0
          8.31202654   -2.33919749    0.00000000    n      0.000     0
          4.21541208   -0.67433743    0.00000000    n      0.000     0
          3.60926731    3.56229061    0.00000000    n      0.000     0
          4.94584793   -4.88457923    0.00000000    o      0.000     0
          9.37925504   -3.88610085    0.00000000    h      0.000     0
         11.37159519    0.09310681    0.00000000    h      0.000     0
          8.64799150    3.92634068    0.00000000    h      0.000     0
          4.26422182    5.31735297    0.00000000    h      0.000     0
          1.72740244    3.27472720    0.00000000    h      0.000     0
 
       center of nuclear mass  :    0.31843654   -0.98004659    3.07080497
       center of nuclear charge:    0.64423729   -0.88671593    6.14160993

              +--------------------------------------------------+
              |               basis set information              |
              +--------------------------------------------------+

              we will work with the 1s 3p 5d 7f 9g ... basis set
              ...i.e. with spherical basis functions...

   type   atoms  prim   cont   basis
   ---------------------------------------------------------------------------
    c       18     77     55   cc-pVQZ   [5s4p3d2f1g|21s6p3d2f1g]
    n       16     77     55   cc-pVQZ   [5s4p3d2f1g|21s6p3d2f1g]
    o        4     77     55   cc-pVQZ   [5s4p3d2f1g|21s6p3d2f1g]
    h       20     32     30   cc-pVQZ   [4s3p2d1f|6s3p2d1f]
   ---------------------------------------------------------------------------
   total:   58   3566   2690
   ---------------------------------------------------------------------------

   total number of primitive shells          :  111
   total number of contracted shells         :  770
   total number of cartesian basis functions : 3360
   total number of SCF-basis functions       : 2690


 integral neglect threshold       :  0.99E-14
 integral storage threshold THIZE :  0.10E-04
 integral storage threshold THIME :         5

 RI-J AUXILIARY BASIS SET information:

              we will work with the 1s 3p 5d 7f 9g ... basis set
              ...i.e. with spherical basis functions...

   type   atoms  prim   cont   basis
   ---------------------------------------------------------------------------
    c       18     70     49   cc-pVQZ   [6s4p3d1f1g|12s5p4d2f1g]
    n       16     70     49   cc-pVQZ   [6s4p3d1f1g|12s5p4d2f1g]
    o        4     70     49   cc-pVQZ   [6s4p3d1f1g|12s5p4d2f1g]
    h       20     16     11   cc-pVQZ   [3s1p1d|5s2p1d]
   ---------------------------------------------------------------------------
   total:   58   2980   2082
   ---------------------------------------------------------------------------

   total number of primitive shells          :   80
   total number of contracted shells         :  670
   total number of cartesian basis functions : 2558
   total number of SCF-basis functions       : 2082


 symmetry group of the molecule :   c1 

 the group has the following generators :
   c1(z)

    1 symmetry operations found

 there are 1 real representations :   a   

 maximum number of shells which are related by symmetry :  1


    mo occupation :
   irrep   mo's   occupied
    a     2690       68
 
 number of basis functions   :                   2690
 number of occupied orbitals :                     68
 
  
           ------------------
           density functional
           ------------------
 Dummy atoms with grid-point found.
 DFT quadrature threshold dgrenze tightened by factor 1/10.

 PBE functional
 exchange:    LDA + PBE
 correlation: LDA (PW) + PBE
 Dummy atoms with grid-point found.
 DFT quadrature threshold dgrenze tightened by factor 1/10.

 Dummy atoms with grid-point found.
 DFT quadrature threshold dgrenze tightened by factor 1/10.


 iterations will be done with small grid
  
 spherical integration : Lebedev's spherical grid
 spherical gridsize    :                     5
    i.e. gridpoints    :                   590
 value for diffuse not defined
 radial integration    : Chebyshev 2nd kind (scaling 3)
 radial gridsize       :                     8
 integration cells     :                    58
 partition function    : becke
 partition sharpness   :                     3
  
 found dummy atom(s) with basis: included in dft

 biggest AO integral is expected to be     4.785886462
  
           ------------------------
               RI-J - INFORMATION
           ------------------------
 Contributions to RI integral batches: 
  neglected integral batches:                152658
  direct contribution:                       106860
  memory contribution:                 37317
 Memory core needed for (P|Q) and Cholesky     34 MByte
 Memory core minimum needed except of (P|Q)     3 MByte
 Total minimum memory core needed (sum)        36 MByte
  
 ****************************************
 Memory allocated for RI-J  2859 MByte
 ****************************************
                                            

          ------------------------
          nuclear repulsion energy  :   1391.97687302    
          ------------------------


         -----------------
         -S,T+V- integrals
         -----------------

 1e-integrals will be neglected if expon. factor < 0.994631E-15
 
   Difference densities algorithm switched on.
   The maximal number of linear combinations of
   difference densities is                    20 .

 DIIS switched on: error vector is FDS-SDF
 Max. Iterations for DIIS is     :   4
 DIIS matrix (see manual) 
    Scaling factor of diagonals  :  1.200
    threshold for scaling factor :  0.000

 scf convergence criterion : increment of total energy < .1000000D-08
                  and increment of one-electron energy < .1000000D-05

  MOs are in ASCII format !


 automatic virtual orbital shift switched on 
      shift if e(lumo)-e(homo) < 0.10000000    


 reading orbital data $scfmo  from file mos
 orbital characterization : expanded
 mo provided and orthogonalized by Cholesky decomposition

 DSCF restart information will be dumped onto file mos


 Starting SCF iterations

          Overall gridpoints after grid construction =        369084

 ITERATION  ENERGY          1e-ENERGY        2e-ENERGY     RMS[dD(SAO)]   TOL
   1  -932.81763690693    -4020.0563165     1695.2618065    0.000D+00 0.992D-14
                            Exc = -123.542598584     Coul =  1818.80440513    
                              N = 135.99974140    
                            current damping = 0.700
 
          max. resid. norm for Fia-block=  3.752D-01 for orbital     57a         
          max. resid. fock norm         =  2.383D+01 for orbital   2498a         

 ITERATION  ENERGY          1e-ENERGY        2e-ENERGY     RMS[dD(SAO)]   TOL
   2  -936.23346942513    -4035.3725635     1707.1622211    0.306D-02 0.826D-14
                            Exc = -123.923586866     Coul =  1831.08580792    
                              N = 135.99978523    
                            current damping = 0.650
 
          Norm of current diis error:  5.0655    
          max. resid. norm for Fia-block=  1.679D-01 for orbital      2a         
          max. resid. fock norm         =  3.175D-01 for orbital   2331a         

 ITERATION  ENERGY          1e-ENERGY        2e-ENERGY     RMS[dD(SAO)]   TOL
   3  -936.70814308714    -4039.8980844     1711.2130683    0.135D-02 0.527D-14
                            Exc = -124.425766669     Coul =  1835.63883493    
                              N = 135.99979645    
                            current damping = 0.550
 
          Norm of current diis error:  2.4692    
          max. resid. norm for Fia-block=  6.667D-02 for orbital      2a         
          max. resid. fock norm         =  8.348D-02 for orbital   2658a         

 ITERATION  ENERGY          1e-ENERGY        2e-ENERGY     RMS[dD(SAO)]   TOL
   4  -936.85826080935    -4040.3293049     1711.4941710    0.791D-03 0.431D-14
                            Exc = -124.313298730     Coul =  1835.80746975    
                              N = 135.99979515    
                            current damping = 0.400
 
          Norm of current diis error:  1.0530    
          max. resid. norm for Fia-block=  3.944D-02 for orbital     57a         
          max. resid. fock norm         =  8.759D-02 for orbital   2473a         

 ITERATION  ENERGY          1e-ENERGY        2e-ENERGY     RMS[dD(SAO)]   TOL
   5  -936.87775214435    -4041.2661253     1712.4115001    0.414D-03 0.390D-14
                            Exc = -124.500520274     Coul =  1836.91202037    
                              N = 135.99978875    
                            current damping = 0.300
 
          Norm of current diis error: 0.73042    
          max. resid. norm for Fia-block=  2.049D-02 for orbital     66a         
          max. resid. fock norm         =  2.582D-02 for orbital     66a         
          mo-orthogonalization: Cholesky decomposition

 ITERATION  ENERGY          1e-ENERGY        2e-ENERGY     RMS[dD(SAO)]   TOL
   6  -936.89118774921    -4041.7050677     1712.8370069    0.259D-03 0.368D-14
                            Exc = -124.477209087     Coul =  1837.31421598    
                              N = 135.99979149    
                            current damping = 0.150
 
          Norm of current diis error: 0.24279    
          max. resid. norm for Fia-block=  6.387D-03 for orbital     59a         
          max. resid. fock norm         =  1.208D-02 for orbital   2359a         

 ITERATION  ENERGY          1e-ENERGY        2e-ENERGY     RMS[dD(SAO)]   TOL
   7  -936.89145979936    -4041.1385316     1712.2701988    0.104D-03 0.359D-14
                            Exc = -124.446294400     Coul =  1836.71649319    
                              N = 135.99978685    
                            current damping = 0.200
 
          Norm of current diis error: 0.22811    
          max. resid. norm for Fia-block=  3.686D-03 for orbital     68a         
          max. resid. fock norm         =  5.919D-03 for orbital   2380a         

 ITERATION  ENERGY          1e-ENERGY        2e-ENERGY     RMS[dD(SAO)]   TOL
   8  -936.89276389720    -4041.3334088     1712.4637718    0.394D-04 0.357D-14
                            Exc = -124.457619629     Coul =  1836.92139147    
                              N = 135.99978821    
                            current damping = 0.250
 
          Norm of current diis error: 0.52122E-01
          max. resid. norm for Fia-block=  1.398D-03 for orbital     63a         
          max. resid. fock norm         =  2.344D-03 for orbital   2456a         

 ITERATION  ENERGY          1e-ENERGY        2e-ENERGY     RMS[dD(SAO)]   TOL
   9  -936.89277606601    -4041.4691519     1712.5995028    0.150D-04 0.358D-14
                            Exc = -124.470795895     Coul =  1837.07029866    
                              N = 135.99978876    
                            current damping = 0.100
 
          Norm of current diis error: 0.45339E-01
          max. resid. norm for Fia-block=  7.073D-04 for orbital     54a         
          max. resid. fock norm         =  1.356D-03 for orbital   2468a         

 ITERATION  ENERGY          1e-ENERGY        2e-ENERGY     RMS[dD(SAO)]   TOL
  10  -936.89281837597    -4041.4249302     1712.5552388    0.102D-04 0.356D-14
                            Exc = -124.465862438     Coul =  1837.02110126    
                              N = 135.99978873    
                            current damping = 0.150
 
          Norm of current diis error: 0.20615E-01
          max. resid. norm for Fia-block=  3.409D-04 for orbital     61a         
          max. resid. fock norm         =  6.045D-04 for orbital   2448a         
          mo-orthogonalization: Cholesky decomposition

 ITERATION  ENERGY          1e-ENERGY        2e-ENERGY     RMS[dD(SAO)]   TOL
  11  -936.89282738895    -4041.4168476     1712.5471471    0.316D-05 0.355D-14
                            Exc = -124.464744156     Coul =  1837.01189130    
                              N = 135.99978858    
                            current damping = 0.050
 
          Norm of current diis error: 0.73518E-02
          max. resid. norm for Fia-block=  1.435D-04 for orbital     61a         
          max. resid. fock norm         =  2.399D-04 for orbital   2660a         
          irrep a   : virtual orbitals shifted by    0.00195

 ITERATION  ENERGY          1e-ENERGY        2e-ENERGY     RMS[dD(SAO)]   TOL
  12  -936.89282752207    -4041.4113790     1712.5416784    0.130D-05 0.354D-14
                            Exc = -124.465537994     Coul =  1837.00721642    
                              N = 135.99978858    
                            current damping = 0.050
 
          Norm of current diis error: 0.68898E-02
          max. resid. norm for Fia-block=  9.260D-05 for orbital     62a         
          max. resid. fock norm         =  1.382D-04 for orbital     55a         
          irrep a   : virtual orbitals shifted by    0.00194

 ITERATION  ENERGY          1e-ENERGY        2e-ENERGY     RMS[dD(SAO)]   TOL
  13  -936.89282860115    -4041.4183350     1712.5486334    0.893D-06 0.354D-14
                            Exc = -124.465142367     Coul =  1837.01377572    
                              N = 135.99978862    
                            current damping = 0.100
 
          Norm of current diis error: 0.16901E-02
          max. resid. norm for Fia-block=  4.187D-05 for orbital     55a         
          max. resid. fock norm         =  6.376D-05 for orbital   2227a         

 ITERATION  ENERGY          1e-ENERGY        2e-ENERGY     RMS[dD(SAO)]   TOL
  14  -936.89282863247    -4041.4161200     1712.5464183    0.362D-06 0.353D-14
                            Exc = -124.465271114     Coul =  1837.01168942    
                              N = 135.99978860    
                            current damping = 0.150
 
          Norm of current diis error: 0.12687E-02
          max. resid. norm for Fia-block=  1.851D-05 for orbital     65a         
          max. resid. fock norm         =  3.866D-05 for orbital   2661a         

 ITERATION  ENERGY          1e-ENERGY        2e-ENERGY     RMS[dD(SAO)]   TOL
  15  -936.89282866856    -4041.4163545     1712.5466528    0.170D-06 0.353D-14
                            Exc = -124.465196930     Coul =  1837.01184978    
                              N = 135.99978860    
                            current damping = 0.200
 
          Norm of current diis error: 0.36839E-03
          max. resid. norm for Fia-block=  7.113D-06 for orbital     61a         
          max. resid. fock norm         =  1.204D-05 for orbital   2653a         
          mo-orthogonalization: Cholesky decomposition

 DENSITY CONVERGED !


 ITERATION  ENERGY          1e-ENERGY        2e-ENERGY     RMS[dD(SAO)]   TOL
  16  -936.89282867056    -4041.4166200     1712.5469183    0.611D-07 0.352D-14
                            Exc = -124.465198717     Coul =  1837.01211700    
                              N = 135.99978860    
                            current damping = 0.050
 
          Norm of current diis error: 0.20502E-03
          max. resid. norm for Fia-block=  3.894D-06 for orbital     62a         
          max. resid. fock norm         =  6.461D-06 for orbital   2468a         
          irrep a   : virtual orbitals shifted by    0.00193

 DENSITY CONVERGED !


 ITERATION  ENERGY          1e-ENERGY        2e-ENERGY     RMS[dD(SAO)]   TOL
  17  -936.89282867098    -4041.4167374     1712.5470357    0.430D-07 0.351D-14
                            Exc = -124.465210894     Coul =  1837.01224661    
                              N = 135.99978861    
                            current damping = 0.050
 
          Norm of current diis error: 0.14603E-03
          max. resid. norm for Fia-block=  2.138D-06 for orbital     62a         
          max. resid. fock norm         =  3.577D-06 for orbital   2468a         
          irrep a   : virtual orbitals shifted by    0.00193

 DENSITY CONVERGED !


 ITERATION  ENERGY          1e-ENERGY        2e-ENERGY     RMS[dD(SAO)]   TOL
  18  -936.89282867155    -4041.4165966     1712.5468949    0.241D-07 0.352D-14
                            Exc = -124.465205003     Coul =  1837.01209990    
                              N = 135.99978860    
                            current damping = 0.100
 
          Norm of current diis error: 0.48317E-04
          max. resid. norm for Fia-block=  1.042D-06 for orbital     68a         
          max. resid. fock norm         =  1.908D-06 for orbital   2379a         

 ENERGY & DENSITY CONVERGED !

          Overall gridpoints after grid construction =        923678

 ITERATION  ENERGY          1e-ENERGY        2e-ENERGY     RMS[dD(SAO)]   TOL
  19  -936.89284682161    -4041.4166109     1712.5468911    0.124D-07 0.350D-14
                            Exc = -124.465221837     Coul =  1837.01211289    
                              N = 136.00003060    
                            current damping = 0.150
 
          Norm of current diis error: 0.33491E-04
          max. resid. norm for Fia-block=  6.618D-07 for orbital     68a         
          max. resid. fock norm         =  1.261D-06 for orbital   2379a         

 End of SCF iterations

   convergence criteria satisfied after   19 iterations


                  ------------------------------------------ 
                 |  total energy      =   -936.89284682161  |
                  ------------------------------------------ 
                 :  kinetic energy    =    934.16293811589  :
                 :  potential energy  =  -1871.05578493750  :
                 :  virial theorem    =      1.99708621032  :
                 :  wavefunction norm =      1.00000000000  :
                  .......................................... 


 <geterg> : there is no data group $energy 


 orbitals $scfmo  will be written to file mos

    irrep                 64a         65a         66a         67a         68a   
 eigenvalues H         -0.23040    -0.22676    -0.21525    -0.20684    -0.17214
            eV          -6.2696     -6.1705     -5.8574     -5.6284     -4.6842
 occupation              2.0000      2.0000      2.0000      2.0000      2.0000 

    irrep                 69a         70a         71a         72a         73a   
 eigenvalues H         -0.07874    -0.03450    -0.02492    -0.02057    -0.01227
            eV          -2.1427     -0.9388     -0.6780     -0.5598     -0.3339
 
 
 
 
 ==============================================================================
                           electrostatic moments
 ==============================================================================

 reference point for electrostatic moments:    0.00000   0.00000   0.00000

 
              nuc           elec       ->  total
 ------------------------------------------------------------------------------
                          charge      
 ------------------------------------------------------------------------------
         136.000000    -136.000000       0.000000
 
 ------------------------------------------------------------------------------
                       dipole moment  
 ------------------------------------------------------------------------------
   x      87.616272     -89.215991      -1.599719
   y    -120.593366     118.995719      -1.597648
   z     835.258951    -835.217503       0.041448
 
   | dipole moment | =     2.2613 a.u. =     5.7475 debye 
 
 ------------------------------------------------------------------------------
                     quadrupole moment
 ------------------------------------------------------------------------------
  xx    3852.641636   -3897.718141     -45.076505
  yy    2280.633262   -2359.283928     -78.650666
  zz    5129.834668   -5212.443794     -82.609126
  xy    1645.863375   -1634.194106      11.669269
  xz     538.104963    -547.876585      -9.771621
  yz    -740.637417     730.784884      -9.852533
 
     1/3  trace=     -68.778766
     anisotropy=      47.560300
 
 ==============================================================================
 


    ------------------------------------------------------------------------
         total  cpu-time :  1 hours 41 minutes and 12 seconds
         total wall-time :  1 hours 46 minutes and 18 seconds
    ------------------------------------------------------------------------

   ****  ridft : all done  ****


    2018-02-08 00:50:38.152 

