STARTING dscf ON 2 PROCESSORS!
RUNNING PROGRAM /beegfs/modfac/apps/TURBOMOLE/7.2.1-official/bin/em64t-unknown-linux-gnu_mpi/dscf_mpi.
PLEASE WAIT UNTIL dscf HAS FINISHED.
Look for the output in slave1.output.
MACHINEFILE is ./hostlist
 this is node-proc. number 1 running on node c-15-38.local
 the total number of node-proc. spawned is   3
  parallel platform: MPP or cluster with fast interconnect

 dscf (c-15-38.local) : TURBOMOLE V7.2 ( 21471 ) 7 Nov 2017 at 16:15:16
 Copyright (C) 2017 TURBOMOLE GmbH, Karlsruhe


    2018-02-14 09:35:53.977 


 SCF run will be profiled !



                             d s c f - program

                   idea & directorship : reinhart ahlrichs
                   program development : marco haeser
                                         michael baer
                           dft version : oliver treutler
           parallelized version : malte v. arnim, gina corongiu, GMD 


                          quantum chemistry group
                          universitaet  karlsruhe
                                  germany




                          References             
                                                 
          TURBOMOLE:                             
              R. Ahlrichs, M. Baer, M. Haeser, H. Horn, and
              C. Koelmel
              Electronic structure calculations on workstation
              computers: the program system TURBOMOLE
              Chem. Phys. Lett. 162: 165 (1989)
          Density Functional:                              
              O. Treutler and R. Ahlrichs                      
              Efficient Molecular Numerical Integration Schemes
              J. Chem. Phys. 102: 346 (1995)                   
          Parallel Version:                                
              Performance of parallel TURBOMOLE for Density    
              Functional Calculations                          
              M. v. Arnim and R. Ahlrichs                      
              J. Comp. Chem. 19: 1746 (1998)                   
                                         




              +--------------------------------------------------+
              | Atomic coordinate, charge and isotop information |
              +--------------------------------------------------+

                    atomic coordinates            atom    charge  isotop
         -2.28170963    0.00000000   -2.34009961    c      6.000     0
         -2.27274361    0.00000000    0.29854732    c      6.000     0
          0.00000000    0.00000000   -3.67272512    c      6.000     0
          0.00000000    0.00000000    1.65224385    c      6.000     0
          2.28170963    0.00000000   -2.34009961    c      6.000     0
          2.27274361    0.00000000    0.29854732    c      6.000     0
          0.00000000    0.00000000    4.58243267    c      6.000     0
          2.15490929    0.00000000    5.59892366    o      8.000     0
         -2.15490929    0.00000000    5.59892366    o      8.000     0
         -4.06540167    0.00000000   -3.36943437    h      1.000     0
         -4.00977500    0.00000000    1.39631906    h      1.000     0
          0.00000000    0.00000000   -5.73046351    h      1.000     0
          4.06540167    0.00000000   -3.36943437    h      1.000     0
          4.00977500    0.00000000    1.39631906    h      1.000     0
 
       center of nuclear mass  :    0.00000000    0.00000000    1.24783966
       center of nuclear charge:   -0.00000000    0.00000000    1.12347881

              +--------------------------------------------------+
              |               basis set information              |
              +--------------------------------------------------+

              we will work with the 1s 3p 5d 7f 9g ... basis set
              ...i.e. with spherical basis functions...

   type   atoms  prim   cont   basis
   ---------------------------------------------------------------------------
    c        7     50     30   cc-pVTZ   [4s3p2d1f|18s5p2d1f]
    o        2     50     30   cc-pVTZ   [4s3p2d1f|18s5p2d1f]
    h        5     16     14   cc-pVTZ   [3s2p1d|5s2p1d]
   ---------------------------------------------------------------------------
   total:   14    530    340
   ---------------------------------------------------------------------------

   total number of primitive shells          :   60
   total number of contracted shells         :  120
   total number of cartesian basis functions :  390
   total number of SCF-basis functions       :  340


 integral neglect threshold       :  0.85E-13
 integral storage threshold THIZE :  0.10E-04
 integral storage threshold THIME :         5


 DENSITY CONVERGENCE CHECK SWITCHED ON !
 SCF CONVERGENCE IF RMS(delta[D]) <     0.1000000000E-06


 symmetry group of the molecule :   c1 

 the group has the following generators :
   c1(z)

    1 symmetry operations found

 there are 1 real representations :   a   

 maximum number of shells which are related by symmetry :  1


    mo occupation :
   irrep   mo's   occupied
    a      340       32
 
 number of basis functions   :                    340
 number of occupied orbitals :                     32
 

 automatic virtual orbital shift switched on 
      shift if e(lumo)-e(homo) < 0.10000000    


 keyword $2e-ints_shell_statistics missing in file <control>

 ! One task per shell generated
  No pre-computed optimal task distribution found
  ... using automatic task generation

          ------------------------
          nuclear repulsion energy  :   390.759859890    
          ------------------------


         -----------------
         -S,T+V- integrals
         -----------------

 1e-integrals will be neglected if expon. factor < 0.856913E-14
 
   Difference densities algorithm switched on.
   The maximal number of linear combinations of
   difference densities is                    20 .

 DIIS switched on: error vector is FDS-SDF
 Max. Iterations for DIIS is     :   5
 DIIS matrix (see manual) 
    Scaling factor of diagonals  :  1.200
    threshold for scaling factor :  0.000

 scf convergence criterion : increment of total energy < .1000000D-08
                  and increment of one-electron energy < .1000000D-05

  MOs are in ASCII format !


 reading orbital data $scfmo  from file mos
 orbital characterization : scfconv=9

 DSCF restart information will be dumped onto file mos

 
                                              current damping :  0.300
 ITERATION  ENERGY          1e-ENERGY        2e-ENERGY     RMS[dD(SAO)]   TOL
   1  -417.89921785753    -1356.1198314     547.46075363    0.000D+00 0.855D-13
          max. resid. norm for Fia-block=  2.694D-04 for orbital     32a         
          max. resid. fock norm         =  2.617D-03 for orbital    329a         
          Delta Eig. =     0.1718034373 eV 
 
                                              current damping :  0.250
 ITERATION  ENERGY          1e-ENERGY        2e-ENERGY     RMS[dD(SAO)]   TOL
   2  -417.89921814582    -1356.1211274     547.46204937    0.113D-04 0.542D-13
          Norm of current diis error: 0.74440E-03
          max. resid. norm for Fia-block=  8.130D-05 for orbital     32a         
          max. resid. fock norm         =  6.059D-04 for orbital    329a         
          Delta Eig. =     0.0411091131 eV 
 
                                              current damping :  0.200
 ITERATION  ENERGY          1e-ENERGY        2e-ENERGY     RMS[dD(SAO)]   TOL
   3  -417.89921817302    -1356.1207444     547.46166636    0.411D-05 0.425D-13
          Norm of current diis error: 0.21364E-03
          max. resid. norm for Fia-block=  2.065D-05 for orbital     32a         
          max. resid. fock norm         =  1.218D-04 for orbital    329a         
          Delta Eig. =     0.0084303680 eV 
 
                                              current damping :  0.250
 ITERATION  ENERGY          1e-ENERGY        2e-ENERGY     RMS[dD(SAO)]   TOL
   4  -417.89921817513    -1356.1208852     547.46180710    0.113D-05 0.378D-13
          Norm of current diis error: 0.56491E-04
          max. resid. norm for Fia-block=  3.947D-06 for orbital     23a         
          max. resid. fock norm         =  2.008D-05 for orbital    329a         
          Delta Eig. =     0.0014768446 eV 
 
                                              current damping :  0.300
 ITERATION  ENERGY          1e-ENERGY        2e-ENERGY     RMS[dD(SAO)]   TOL
   5  -417.89921817529    -1356.1208808     547.46180269    0.233D-06 0.358D-13
          Norm of current diis error: 0.15854E-04
          max. resid. norm for Fia-block=  1.241D-06 for orbital     29a         
          max. resid. fock norm         =  4.115D-06 for orbital    329a         
 mo-orthogonalization: Cholesky decomposition
          Delta Eig. =     0.0002439381 eV 

 DENSITY CONVERGED !

 
                                              current damping :  0.150
 ITERATION  ENERGY          1e-ENERGY        2e-ENERGY     RMS[dD(SAO)]   TOL
   6  -417.89921817531    -1356.1208733     547.46179523    0.688D-07 0.342D-13
          Norm of current diis error: 0.64402E-05
          max. resid. norm for Fia-block=  5.504D-07 for orbital     27a         
          max. resid. fock norm         =  9.138D-07 for orbital    329a         
          Delta Eig. =     0.0000699890 eV 

 ENERGY & DENSITY CONVERGED !

 
                                              current damping :  0.200
 ITERATION  ENERGY          1e-ENERGY        2e-ENERGY     RMS[dD(SAO)]   TOL
   7  -417.89921817532    -1356.1208746     547.46179650    0.299D-07 0.321D-13
          max. resid. norm for Fia-block=  1.786D-07 for orbital     22a         
          max. resid. fock norm         =  2.262D-07 for orbital     22a         

 convergence criteria satisfied after     7 iterations


                  ------------------------------------------ 
                 |  total energy      =   -417.89921817532  |
                  ------------------------------------------ 
                 :  kinetic energy    =    417.22176883067  :
                 :  potential energy  =   -835.12098700599  :
                 :  virial theorem    =      1.99837891694  :
                 :  wavefunction norm =      1.00000000000  :
                  .......................................... 


 orbitals $scfmo  will be written to file mos

    irrep                 28a         29a         30a         31a         32a   
 eigenvalues H         -0.21799    -0.21359    -0.20757    -0.19573    -0.19312
            eV          -5.9319     -5.8120     -5.6483     -5.3261     -5.2550
 occupation              2.0000      2.0000      2.0000      2.0000      2.0000 

    irrep                 33a         34a         35a         36a         37a   
 eigenvalues H          0.24932     0.25196     0.26136     0.27776     0.29697
            eV           6.7845      6.8563      7.1120      7.5582      8.0812
 
 
 
 
 ==============================================================================
                           electrostatic moments
 ==============================================================================

 reference point for electrostatic moments:    0.00000   0.00000   0.00000

 
              nuc           elec       ->  total
 ------------------------------------------------------------------------------
                          charge      
 ------------------------------------------------------------------------------
          63.000000     -64.000000      -1.000000
 
 ------------------------------------------------------------------------------
                       dipole moment  
 ------------------------------------------------------------------------------
   x       0.000000      -0.000000      -0.000000
   y       0.000000       0.000000       0.000000
   z      70.779165     -75.626493      -4.847328
 
   | dipole moment | =     4.8473 a.u. =    12.3207 debye 
 
 ------------------------------------------------------------------------------
                     quadrupole moment
 ------------------------------------------------------------------------------
  xx     263.968465    -308.429127     -44.460662
  yy       0.000000     -42.386084     -42.386084
  zz     851.098351    -923.581281     -72.482930
  xy       0.000000      -0.000000      -0.000000
  xz       0.000000      -0.000000      -0.000000
  yz       0.000000       0.000000       0.000000
 
     1/3  trace=     -53.109892
     anisotropy=      29.115043
 
 ==============================================================================
 

    dscf profiling
  --------------------------------------------------------------------
             module   cpu total (s)       %  wall total (s)       %

          dscf.total           274.3  100.00           275.1  100.00
        dscf.prepare             0.4    0.16             0.5    0.19
      prepare.oneint             0.0    0.01             0.0    0.01
     prepare.moinput             0.2    0.08             0.2    0.08
     moinput_orthmos             0.0    0.01             0.0    0.01
            dscf.scf           273.7   99.78           274.3   99.71
             scf.pre             0.0    0.00             0.0    0.00
        scf.makedmat             0.1    0.03             0.1    0.04
          scf.shloop           268.3   97.81           268.5   97.62
          shloop_omp           268.3   97.80           268.5   97.62
          scf.symcar             0.0    0.01             0.0    0.01
        scf.makefock             0.0    0.02             0.1    0.04
          scf.newerg             0.0    0.00             0.0    0.00
          scf.newcnv             0.1    0.05             0.1    0.05
           scf.fdiag             0.5    0.19             0.5    0.19
         diag_tritrn             0.1    0.03             0.1    0.03
          diag_rdiag             0.4    0.16             0.4    0.16
          scf.modump             3.9    1.41             4.0    1.46
           ortho_all             0.0    0.01             0.0    0.01
            scf.post             0.7    0.25             0.8    0.28
        dscf.postscf             0.2    0.06             0.3    0.10
 


    ------------------------------------------------------------------------
         total  cpu-time :  4 minutes and 35 seconds
         total wall-time :  4 minutes and 36 seconds
    ------------------------------------------------------------------------

   ****  dscf : all done  ****


    2018-02-14 09:40:29.119 

