Using Slurm to start processes with PMI2
STARTING ridft ON 8 PROCESSORS!
RUNNING PROGRAM /beegfs/modfac/apps/TURBOMOLE/7.0_intel_GA/bin/em64t-unknown-linux-gnu_mpi/ridft_mpi.
PLEASE WAIT UNTIL ridft HAS FINISHED.
Look for the output in slave1.output.
  this is node-proc. number 1 running on node c-9-373.local
  the total number of node-proc. spawned is            8
  parallel platform: MPP, or cluster with fast interconnect

 ridft (c-9-373.local) : TURBOMOLE V7.0.2( ) 15 Jan 2016 at 17:47:42
 Copyright (C) 2016 TURBOMOLE GmbH, Karlsruhe


    2017-11-01 20:16:36.832 



                                  r i d f t

                        DFT program with RI approximation 
                                for coulomb part 




                                                 
                                 References:     
                                                 
          TURBOMOLE:                             
              R. Ahlrichs, M. Baer, M. Haeser, H. Horn, and
              C. Koelmel
              Electronic structure calculations on workstation
              computers: the program system TURBOMOLE
              Chem. Phys. Lett. 162: 165 (1989)
          Density Functional:                              
              O. Treutler and R. Ahlrichs                      
              Efficient Molecular Numerical Integration Schemes
              J. Chem. Phys. 102: 346 (1995)                   
          Parallel Version:                                
              Performance of parallel TURBOMOLE for Density    
              Functional Calculations                          
              M. v. Arnim and R. Ahlrichs                      
              J. Comp. Chem. 19: 1746 (1998)                   
          RI-J Method:                                     
              Auxiliary Basis Sets to approximate Coulomb      
              Potentials                                       
              Chem. Phys. Lett. 240: 283 (1995)                
              K. Eichkorn, O. Treutler, H. Oehm, M. Haeser     
              and R. Ahlrichs                                  
              Chem. Phys. Lett. 242: 652 (1995)                
                                                           
              Auxiliary Basis Sets for Main Row Atoms and their
              Use to approximate Coulomb Potentials            
              K. Eichkorn, F. Weigend, O. Treutler and         
              R. Ahlrichs                                      
              Theo. Chem. Acc. 97: 119 (1997)                   
                                                           
              Accurate Coulomb-fitting basis sets for H to Rn 
              F. Weigend                                        
              Phys. Chem. Chem. Phys. 8: 1057 (2006)            
                                                           
          Multipole accelerated RI-J (MARI-J):             
              Fast evaluation of the Coulomb potential for     
              electron densities using multipole accelerated   
              resolution of identity approximation             
              M. Sierka, A. Hogekamp and R. Ahlrichs           
              J. Chem. Phys. 118: 9136 (2003)                  
          RI-JK Method:                                     
              A fully direct RI-HF algorithm: Implementation,
              optimised auxiliary basis sets, demonstration of
              accuracy and efficiency                         
              F. Weigend                                      
              Phys. Chem. Chem. Phys. 4: 4285 (2002)           
          Two-component HF and DFT with spin-orbit coupling:  
              Self-consistent treatment of spin-orbit         
              interactions with efficient Hartree-Fock and    
              density functional methods                      
              M. K. Armbruster, F. Weigend, C. van Wüllen and 
              W. Klopper                                      
              Phys. Chem. Chem. Phys. 10: 1748 (2008)         
          Relativistic all-electron 2c calculations           
              An efficient implementation of two-component    
              relativistic exact-decoupling methods for large 
              molecules                                       
              D. Peng, N. Middendorf, F. Weigend, M. Reiher   
              J. Chem. Phys. 138, 184105 (2013)               
                                         


 


              +--------------------------------------------------+
              |      general information about current run       |
              +--------------------------------------------------+

 

 SCF run will be profiled !


 DENSITY CONVERGENCE CHECK SWITCHED ON !
 SCF CONVERGENCE IF RMS(delta[D]) <     0.1000000000E-06

 PBE functional
 exchange:    LDA + PBE
 correlation: LDA (PW) + PBE
 A DFT calculation using the RI-J approximation will be carried out.
 Allocatable memory for RI due to $ricore (MB):       10000


              +--------------------------------------------------+
              | Atomic coordinate, charge and isotop information |
              +--------------------------------------------------+

                    atomic coordinates            atom    charge  isotop
         -3.27416980    5.67930690   -2.27969354    c      6.000     0
         -3.27416980   -5.67930690   -2.27969354    c      6.000     0
         -3.27416980    5.67930690    2.27969354    c      6.000     0
         -3.27416980   -5.67930690    2.27969354    c      6.000     0
          5.98707185   -2.67014708    2.27969354    c      6.000     0
          5.98707185    2.67014708    2.27969354    c      6.000     0
          5.98707185    2.67014708   -2.27969354    c      6.000     0
          5.98707185   -2.67014708   -2.27969354    c      6.000     0
         -0.68935383    6.51916452    2.27969354    c      6.000     0
         -0.68935383   -6.51916452    2.27969354    c      6.000     0
         -0.68935383    6.51916452   -2.27969354    c      6.000     0
         -0.68935383   -6.51916452   -2.27969354    c      6.000     0
          4.38956772   -4.86892287    2.27969354    c      6.000     0
          4.38956772    4.86892287   -2.27969354    c      6.000     0
          4.38956772   -4.86892287   -2.27969354    c      6.000     0
          4.38956772    4.86892287    2.27969354    c      6.000     0
         -6.41311595   -1.35891818   -2.27969354    c      6.000     0
         -6.41311595    1.35891818   -2.27969354    c      6.000     0
         -6.41311595    1.35891818    2.27969354    c      6.000     0
         -6.41311595   -1.35891818    2.27969354    c      6.000     0
         -3.71941222    4.32736487   -4.61290060    c      6.000     0
         -3.71941222   -4.32736487   -4.61290060    c      6.000     0
         -3.71941222    4.32736487    4.61290060    c      6.000     0
         -3.71941222   -4.32736487    4.61290060    c      6.000     0
          2.96620698   -4.87460051   -4.61290060    c      6.000     0
          2.96620698   -4.87460051    4.61290060    c      6.000     0
          2.96620698    4.87460051   -4.61290060    c      6.000     0
          2.96620698    4.87460051    4.61290060    c      6.000     0
          5.55262894   -1.31469607   -4.61290060    c      6.000     0
          5.55262894   -1.31469607    4.61290060    c      6.000     0
          5.55262894    1.31469607   -4.61290060    c      6.000     0
          5.55262894    1.31469607    4.61290060    c      6.000     0
          0.46550644   -5.68712737    4.61290060    c      6.000     0
          0.46550644   -5.68712737   -4.61290060    c      6.000     0
          0.46550644    5.68712737    4.61290060    c      6.000     0
          0.46550644    5.68712737   -4.61290060    c      6.000     0
         -5.26493014   -2.20014194    4.61290060    c      6.000     0
         -5.26493014    2.20014194   -4.61290060    c      6.000     0
         -5.26493014    2.20014194    4.61290060    c      6.000     0
         -5.26493014   -2.20014194   -4.61290060    c      6.000     0
         -1.41140559    4.34385973   -6.08396922    c      6.000     0
         -1.41140559   -4.34385973   -6.08396922    c      6.000     0
         -1.41140559   -4.34385973    6.08396922    c      6.000     0
         -1.41140559    4.34385973    6.08396922    c      6.000     0
         -4.56740442    0.00000000    6.08396922    c      6.000     0
         -4.56740442    0.00000000   -6.08396922    c      6.000     0
          3.69510779    2.68465296    6.08396922    c      6.000     0
          3.69510779    2.68465296   -6.08396922    c      6.000     0
          3.69510779   -2.68465296   -6.08396922    c      6.000     0
          3.69510779   -2.68465296    6.08396922    c      6.000     0
         -2.33356460    0.00000000    7.49342187    c      6.000     0
         -2.33356460    0.00000000   -7.49342187    c      6.000     0
          1.88789342    1.37163485    7.49342187    c      6.000     0
          1.88789342   -1.37163485    7.49342187    c      6.000     0
          1.88789342    1.37163485   -7.49342187    c      6.000     0
          1.88789342   -1.37163485   -7.49342187    c      6.000     0
         -0.72111112   -2.21935182    7.49342187    c      6.000     0
         -0.72111112    2.21935182    7.49342187    c      6.000     0
         -0.72111112   -2.21935182   -7.49342187    c      6.000     0
         -0.72111112    2.21935182   -7.49342187    c      6.000     0
          6.58736779   -1.38697353    0.00000000    c      6.000     0
          6.58736779    1.38697353    0.00000000    c      6.000     0
         -6.14453508    2.74987248    0.00000000    c      6.000     0
         -6.14453508   -2.74987248    0.00000000    c      6.000     0
         -4.51404991   -4.99404280    0.00000000    c      6.000     0
         -4.51404991    4.99404280    0.00000000    c      6.000     0
          3.35469881   -5.83636067    0.00000000    c      6.000     0
          3.35469881    5.83636067    0.00000000    c      6.000     0
          0.71651838   -6.69355746    0.00000000    c      6.000     0
          0.71651838    6.69355746    0.00000000    c      6.000     0
 
       center of nuclear mass  :   -0.00000000    0.00000000    0.00000000
       center of nuclear charge:   -0.00000000    0.00000000    0.00000000

              +--------------------------------------------------+
              |               basis set information              |
              +--------------------------------------------------+

              we will work with the 1s 3p 5d 7f 9g ... basis set
              ...i.e. with spherical basis functions...

   type   atoms  prim   cont   basis
   ---------------------------------------------------------------------------
    c       70     77     57   def2-QZVP   [7s4p3d2f1g|15s8p3d2f1g]
   ---------------------------------------------------------------------------
   total:   70   5390   3990
   ---------------------------------------------------------------------------

   total number of primitive shells          :   29
   total number of contracted shells         : 1190
   total number of cartesian basis functions : 5040
   total number of SCF-basis functions       : 3990


 integral neglect threshold       :  0.66E-14
 integral storage threshold THIZE :  0.10E-04
 integral storage threshold THIME :         5

 RI-J AUXILIARY BASIS SET information:

              we will work with the 1s 3p 5d 7f 9g ... basis set
              ...i.e. with spherical basis functions...

   type   atoms  prim   cont   basis
   ---------------------------------------------------------------------------
    c       70     70     49   def2-QZVP   [6s4p3d1f1g|12s5p4d2f1g]
   ---------------------------------------------------------------------------
   total:   70   4900   3430
   ---------------------------------------------------------------------------

   total number of primitive shells          :   24
   total number of contracted shells         : 1050
   total number of cartesian basis functions : 4270
   total number of SCF-basis functions       : 3430


 symmetry group of the molecule :   c1 

 the group has the following generators :
   c1(z)

    1 symmetry operations found

 there are 1 real representations :   a   

 maximum number of shells which are related by symmetry :  1


    mo occupation :
   irrep   mo's   occupied
    a     3990      210
 
 number of basis functions   :         3990
 number of occupied orbitals :          210
 
  
           ------------------
           density functional
           ------------------
 PBE functional
 exchange:    LDA + PBE
 correlation: LDA (PW) + PBE
 grinp -> nfun, dfgga, dfhybrid 
           6 T F
 iterations will be done with small grid
  
 spherical integration : Lebedev's spherical grid
 spherical gridsize    :           5
    i.e. gridpoints    :         590
 value for diffuse not defined
 radial integration    : Chebyshev 2nd kind (scaling 3)
 radial gridsize       :           8
 integration cells     :          70
 partition function    : becke
 partition sharpness   :           3
  

 <rddim> : input of entry tasksize
           from data group '$pardft' failed !

               Default values taken

 <rddim> : input of entry memdiv
           from data group '$pardft' failed !

               Default values taken
  RIDFT: memory allocation for DFT gridpoints
  MEMORY is divided by 1 as DEFAULT
 Each node can hold at most  the            1 -th part
 of the gridpoints    

 biggest AO integral is expected to be     5.262544080
  
           ------------------------
               RI-J - INFORMATION
           ------------------------
 
 
 **************************************************
 *      MEMORY ALLOCATION FOR PARALLEL RI-DFT     *
 **************************************************
 
 
MEMORY FOR (MU NU/ ALPHA), SEQUENTIAL RUN               9903 MByte
 
            DIFFERENCE IN MEMORY NEED:       DIAG./SLAVE  
 
      TOTAL DIFFERENCE :                    747 MByte
 
      difference in xcore:                   98 MByte
      difference in fatmat:                 213 MByte
      getcor calls skipped by slaves:       437 MByte
 
 
           Integral memory available for diagonal.      9903 MByte
 
           Integral memory available for slave             0 MByte
 
         MEMORY FOR (MU NU/ ALPHA) ON DIAGONALIZER      9903 MByte
 
         MEMORY FOR (MU NU/ ALPHA) ON ONE SLAVE            0 MByte
 
         TOTAL MEMORY FOR (MU NU/ ALPHA),ALL NODES      9903 MByte
 
 Contributions to RI integral batches: 
  neglected integral batches:      329370
  direct contribution:             332750
  memory contribution:       46525
 Memory core needed for (P|Q) and Cholesky     90 MByte
 Memory core minimum needed except of (P|Q)    10 MByte
 Total minimum memory core needed (sum)       100 MByte
     number of direct tasks:         160
  
 ****************************************
 Memory allocated for RI-J 10002 MByte
 ****************************************
                                            

          ------------------------
          nuclear repulsion energy  :   10621.3291945    
          ------------------------

 
          -----------------
          -S integrals
          -----------------

 1e-integrals will be neglected if expon. factor < 0.663088E-15
 
          -----------------
          -T+V integrals
          -----------------

 1e-integrals will be neglected if expon. factor < 0.663088E-15
 Difference densities >>NOT<< switched on in parallel ridft!

 automatic virtual orbital shift switched on 
      shift if e(lumo)-e(homo) < 0.10000000    


 DIIS switched on: error vector is FDS-SDF
 Max. Iterations for DIIS is     :   4
 DIIS matrix (see manual) 
    Scaling factor of diagonals  :  1.200
    threshold for scaling factor :  0.000

 scf convergence criterion : increment of total energy < .1000000D-08
                  and increment of one-electron energy < .1000000D-05


 <geterg> : there is no data group $energy 

  MOs are in ASCII format !


 reading orbital data $scfmo  from file mos . 

 orbital characterization : expanded
 
 mo provided and orthogonalized by Cholesky decomposition

 DSCF restart information will be dumped onto file mos


 Starting SCF iterations


 ITERATION  ENERGY          1e-ENERGY        2e-ENERGY     RMS[dD(SAO)]   TOL
   1  -2657.5599327207    -24641.530655     11362.641528    0.000D+00 0.661D-14
                            Exc = -370.675389674     Coul =  11733.3169174    
                              N = 419.99937230    
                            current damping = 0.700
 
          max. resid. norm for Fia-block=  5.188D-01 for orbital     71a         
          max. resid. fock norm         =  4.508D+01 for orbital   3248a         

 ITERATION  ENERGY          1e-ENERGY        2e-ENERGY     RMS[dD(SAO)]   TOL
   2  -2663.5606191692    -24741.734927     11456.845114    0.754D-01 0.661D-14
                            Exc = -375.479058992     Coul =  11832.3241727    
                              N = 419.99942863    
                            current damping = 0.650
 
          Norm of current diis error:  9.8192    
          max. resid. norm for Fia-block=  1.416D-01 for orbital     76a         
          max. resid. fock norm         =  1.769D-01 for orbital    424a         

 ITERATION  ENERGY          1e-ENERGY        2e-ENERGY     RMS[dD(SAO)]   TOL
   3  -2664.7583718279    -24748.645988     11462.558421    0.216D-01 0.661D-14
                            Exc = -376.586853940     Coul =  11839.1452751    
                              N = 419.99940282    
                            current damping = 0.550
 
          Norm of current diis error:  4.8956    
          max. resid. norm for Fia-block=  6.521D-02 for orbital     76a         
          max. resid. fock norm         =  7.373D-02 for orbital     76a         

 ITERATION  ENERGY          1e-ENERGY        2e-ENERGY     RMS[dD(SAO)]   TOL
   4  -2665.1595225876    -24771.941349     11485.452632    0.379D-02 0.661D-14
                            Exc = -377.243946836     Coul =  11862.6965785    
                              N = 419.99936557    
                            current damping = 0.450
 
          Norm of current diis error:  1.9902    
          max. resid. norm for Fia-block=  2.839D-02 for orbital     75a         
          max. resid. fock norm         =  3.251D-02 for orbital     75a         

 ITERATION  ENERGY          1e-ENERGY        2e-ENERGY     RMS[dD(SAO)]   TOL
   5  -2665.2254635763    -24765.876153     11479.321495    0.243D-02 0.661D-14
                            Exc = -377.398092124     Coul =  11856.7195872    
                              N = 419.99934875    
                            current damping = 0.500
 
          Norm of current diis error: 0.88060    
          max. resid. norm for Fia-block=  8.958D-03 for orbital    114a         
          max. resid. fock norm         =  1.049D-02 for orbital    213a         
          mo-orthogonalization: Cholesky decomposition

 ITERATION  ENERGY          1e-ENERGY        2e-ENERGY     RMS[dD(SAO)]   TOL
   6  -2665.2395589108    -24772.444531     11485.875778    0.794D-03 0.661D-14
                            Exc = -377.555853736     Coul =  11863.4316313    
                              N = 419.99934269    
                            current damping = 0.550
 
          Norm of current diis error: 0.26290    
          max. resid. norm for Fia-block=  3.268D-03 for orbital    184a         
          max. resid. fock norm         =  5.518D-03 for orbital   3943a         

 ITERATION  ENERGY          1e-ENERGY        2e-ENERGY     RMS[dD(SAO)]   TOL
   7  -2665.2402701063    -24771.734253     11485.164789    0.485D-03 0.661D-14
                            Exc = -377.561816403     Coul =  11862.7266051    
                              N = 419.99934240    
                            current damping = 0.600
 
          Norm of current diis error: 0.18881    
          max. resid. norm for Fia-block=  1.690D-03 for orbital    192a         
          max. resid. fock norm         =  3.708D-03 for orbital   3949a         

 ITERATION  ENERGY          1e-ENERGY        2e-ENERGY     RMS[dD(SAO)]   TOL
   8  -2665.2409753296    -24771.705894     11485.135724    0.191D-03 0.661D-14
                            Exc = -377.563249539     Coul =  11862.6989739    
                              N = 419.99934058    
                            current damping = 0.450
 
          Norm of current diis error: 0.58075E-01
          max. resid. norm for Fia-block=  1.126D-03 for orbital    195a         
          max. resid. fock norm         =  1.915D-03 for orbital   3922a         
          irrep a   : virtual orbitals shifted by    0.00807

 ITERATION  ENERGY          1e-ENERGY        2e-ENERGY     RMS[dD(SAO)]   TOL
   9  -2665.2409068182    -24771.721918     11485.151817    0.709D-04 0.661D-14
                            Exc = -377.568304642     Coul =  11862.7201212    
                              N = 419.99934173    
                            current damping = 0.500
 
          Norm of current diis error: 0.83252E-01
          max. resid. norm for Fia-block=  4.487D-04 for orbital    201a         
          max. resid. fock norm         =  8.050D-04 for orbital   3922a         
          irrep a   : virtual orbitals shifted by    0.00517

 ITERATION  ENERGY          1e-ENERGY        2e-ENERGY     RMS[dD(SAO)]   TOL
  10  -2665.2410247029    -24771.974821     11485.404602    0.682D-05 0.661D-14
                            Exc = -377.573316347     Coul =  11862.9779180    
                              N = 419.99934107    
                            current damping = 0.350
 
          Norm of current diis error: 0.38576E-01
          max. resid. norm for Fia-block=  3.095D-04 for orbital    201a         
          max. resid. fock norm         =  4.598D-04 for orbital   3922a         
          irrep a   : virtual orbitals shifted by    0.01469
          mo-orthogonalization: Cholesky decomposition

 ITERATION  ENERGY          1e-ENERGY        2e-ENERGY     RMS[dD(SAO)]   TOL
  11  -2665.2410507430    -24771.777131     11485.206886    0.258D-04 0.661D-14
                            Exc = -377.570080478     Coul =  11862.7769665    
                              N = 419.99934079    
                            current damping = 0.400
 
          Norm of current diis error: 0.12233E-01
          max. resid. norm for Fia-block=  1.392D-04 for orbital    192a         
          max. resid. fock norm         =  2.976D-04 for orbital   3942a         
          irrep a   : virtual orbitals shifted by    0.01150

 ITERATION  ENERGY          1e-ENERGY        2e-ENERGY     RMS[dD(SAO)]   TOL
  12  -2665.2410513519    -24771.845132     11485.274886    0.332D-05 0.661D-14
                            Exc = -377.570301642     Coul =  11862.8451878    
                              N = 419.99934067    
                            current damping = 0.450
 
          Norm of current diis error: 0.99266E-02
          max. resid. norm for Fia-block=  5.923D-05 for orbital    192a         
          max. resid. fock norm         =  1.486D-04 for orbital   3948a         
          irrep a   : virtual orbitals shifted by    0.00839

 ITERATION  ENERGY          1e-ENERGY        2e-ENERGY     RMS[dD(SAO)]   TOL
  13  -2665.2410533882    -24771.832591     11485.262343    0.196D-05 0.661D-14
                            Exc = -377.569955530     Coul =  11862.8322989    
                              N = 419.99934073    
                            current damping = 0.500
 
          Norm of current diis error: 0.20255E-02
          max. resid. norm for Fia-block=  2.357D-05 for orbital    209a         
          max. resid. fock norm         =  4.365D-05 for orbital   3938a         
          irrep a   : virtual orbitals shifted by    0.00525

 ITERATION  ENERGY          1e-ENERGY        2e-ENERGY     RMS[dD(SAO)]   TOL
  14  -2665.2410533738    -24771.821704     11485.251456    0.148D-05 0.661D-14
                            Exc = -377.569872620     Coul =  11862.8213289    
                              N = 419.99934074    
                            current damping = 0.550
 
          Norm of current diis error: 0.18888E-02
          max. resid. norm for Fia-block=  1.745D-05 for orbital    209a         
          max. resid. fock norm         =  3.316D-05 for orbital   3988a         
          irrep a   : virtual orbitals shifted by    0.00210

 ITERATION  ENERGY          1e-ENERGY        2e-ENERGY     RMS[dD(SAO)]   TOL
  15  -2665.2410534434    -24771.822156     11485.251909    0.289D-06 0.661D-14
                            Exc = -377.569933466     Coul =  11862.8218420    
                              N = 419.99934075    
                            current damping = 0.600
 
          Norm of current diis error: 0.10436E-02
          max. resid. norm for Fia-block=  1.117D-05 for orbital    201a         
          max. resid. fock norm         =  2.136D-05 for orbital   3985a         
          mo-orthogonalization: Cholesky decomposition

 ITERATION  ENERGY          1e-ENERGY        2e-ENERGY     RMS[dD(SAO)]   TOL
  16  -2665.2410534625    -24771.822843     11485.252595    0.132D-06 0.661D-14
                            Exc = -377.569961913     Coul =  11862.8225571    
                              N = 419.99934073    
                            current damping = 0.450
 
          Norm of current diis error: 0.47361E-03
          max. resid. norm for Fia-block=  3.512D-06 for orbital    196a         
          max. resid. fock norm         =  5.212D-06 for orbital   3984a         
          irrep a   : virtual orbitals shifted by    0.00841

 ITERATION  ENERGY          1e-ENERGY        2e-ENERGY     RMS[dD(SAO)]   TOL
  17  -2665.2410534657    -24771.825296     11485.255048    0.208D-06 0.661D-14
                            Exc = -377.569988427     Coul =  11862.8250369    
                              N = 419.99934074    
                            current damping = 0.300
 
          Norm of current diis error: 0.17512E-03
          max. resid. norm for Fia-block=  3.472D-06 for orbital    201a         
          max. resid. fock norm         =  7.792D-06 for orbital   3948a         
          irrep a   : virtual orbitals shifted by    0.01788

 ITERATION  ENERGY          1e-ENERGY        2e-ENERGY     RMS[dD(SAO)]   TOL
  18  -2665.2410534627    -24771.824880     11485.254632    0.103D-06 0.661D-14
                            Exc = -377.569965613     Coul =  11862.8245981    
                              N = 419.99934073    
                            current damping = 0.350
 
          Norm of current diis error: 0.37610E-03
          max. resid. norm for Fia-block=  1.608D-06 for orbital    201a         
          max. resid. fock norm         =  4.052D-06 for orbital   3960a         
          irrep a   : virtual orbitals shifted by    0.01473

 DENSITY CONVERGED !


 ITERATION  ENERGY          1e-ENERGY        2e-ENERGY     RMS[dD(SAO)]   TOL
  19  -2665.2410534663    -24771.824519     11485.254271    0.368D-07 0.661D-14
                            Exc = -377.569961896     Coul =  11862.8242329    
                              N = 419.99934074    
                            current damping = 0.200
 
          Norm of current diis error: 0.14648E-03
          max. resid. norm for Fia-block=  1.245D-06 for orbital    201a         
          max. resid. fock norm         =  2.714D-06 for orbital   3961a         
          irrep a   : virtual orbitals shifted by    0.02420

 DENSITY CONVERGED !


 ITERATION  ENERGY          1e-ENERGY        2e-ENERGY     RMS[dD(SAO)]   TOL
  20  -2665.2410534658    -24771.824422     11485.254174    0.227D-07 0.661D-14
                            Exc = -377.569964241     Coul =  11862.8241381    
                              N = 419.99934074    
                            current damping = 0.050
 
          Norm of current diis error: 0.10976E-03
          max. resid. norm for Fia-block=  6.362D-07 for orbital    209a         
          max. resid. fock norm         =  1.415D-06 for orbital   3988a         
          irrep a   : virtual orbitals shifted by    0.03368
          mo-orthogonalization: Cholesky decomposition

 DENSITY CONVERGED !


 ITERATION  ENERGY          1e-ENERGY        2e-ENERGY     RMS[dD(SAO)]   TOL
  21  -2665.2410534663    -24771.824550     11485.254302    0.126D-07 0.661D-14
                            Exc = -377.569967448     Coul =  11862.8242696    
                              N = 419.99934074    
                            current damping = 0.100
 
          Norm of current diis error: 0.31177E-04
          max. resid. norm for Fia-block=  4.339D-07 for orbital    209a         
          max. resid. fock norm         =  7.308D-07 for orbital   3942a         
          irrep a   : virtual orbitals shifted by    0.03052

 DENSITY CONVERGED !


 ITERATION  ENERGY          1e-ENERGY        2e-ENERGY     RMS[dD(SAO)]   TOL
  22  -2665.2410534663    -24771.824815     11485.254567    0.215D-07 0.661D-14
                            Exc = -377.569971639     Coul =  11862.8245389    
                              N = 419.99934074    
                            current damping = 0.050
 
          Norm of current diis error: 0.43878E-04
          max. resid. norm for Fia-block=  2.781D-07 for orbital    201a         
          max. resid. fock norm         =  5.573D-07 for orbital   3985a         
          irrep a   : virtual orbitals shifted by    0.03368

 DENSITY CONVERGED !


 ITERATION  ENERGY          1e-ENERGY        2e-ENERGY     RMS[dD(SAO)]   TOL
  23  -2665.2410534666    -24771.824704     11485.254456    0.963D-08 0.661D-14
                            Exc = -377.569969893     Coul =  11862.8244256    
                              N = 419.99934074    
                            current damping = 0.100
 
          Norm of current diis error: 0.13285E-04
          max. resid. norm for Fia-block=  1.002D-07 for orbital    201a         
          max. resid. fock norm         =  4.569D-07 for orbital    732a         
          irrep a   : virtual orbitals shifted by    0.03052

 DENSITY CONVERGED !


 ITERATION  ENERGY          1e-ENERGY        2e-ENERGY     RMS[dD(SAO)]   TOL
  24  -2665.2410534663    -24771.824620     11485.254372    0.734D-08 0.661D-14
                            Exc = -377.569968416     Coul =  11862.8243407    
                              N = 419.99934074    
                            current damping = 0.050
 
          Norm of current diis error: 0.73807E-05
          max. resid. norm for Fia-block=  1.197D-07 for orbital    209a         
          max. resid. fock norm         =  3.223D-07 for orbital    732a         
          irrep a   : virtual orbitals shifted by    0.03368

 DENSITY CONVERGED !


 ITERATION  ENERGY          1e-ENERGY        2e-ENERGY     RMS[dD(SAO)]   TOL
  25  -2665.2410534662    -24771.824669     11485.254421    0.443D-08 0.661D-14
                            Exc = -377.569969173     Coul =  11862.8243899    
                              N = 419.99934074    
                            current damping = 0.100
 
          Norm of current diis error: 0.11928E-04
          max. resid. norm for Fia-block=  6.349D-08 for orbital    207a         
          max. resid. fock norm         =  1.736D-07 for orbital   3988a         
          irrep a   : virtual orbitals shifted by    0.03052
          mo-orthogonalization: Cholesky decomposition

 ENERGY & DENSITY CONVERGED !


 ITERATION  ENERGY          1e-ENERGY        2e-ENERGY     RMS[dD(SAO)]   TOL
  26  -2665.2411217721    -24771.824653     11485.254337    0.213D-08 0.661D-14
                            Exc = -377.570037346     Coul =  11862.8243741    
                              N = 419.99999070    
                            current damping = 0.150
 
          Norm of current diis error: 0.75204E-05
          max. resid. norm for Fia-block=  4.041D-08 for orbital    201a         
          max. resid. fock norm         =  1.593D-07 for orbital    732a         

 End of SCF iterations

   convergence criteria satisfied after   26 iterations


                  ------------------------------------------ 
                 |  total energy      =  -2665.24112177213  |
                  ------------------------------------------ 
                 :  kinetic energy    =   2653.16489266342  :
                 :  potential energy  =  -5318.40601443555  :
                 :  virial theorem    =      1.99546899190  :
                 :  wavefunction norm =      1.00000000000  :
                  .......................................... 


 <geterg> : there is no data group $energy 


 <skperg> : $end is missing 


 orbitals $scfmo  will be written to file mos

    irrep                206a        207a        208a        209a        210a   
 eigenvalues H         -0.22704    -0.22314    -0.21630    -0.21446    -0.21445
            eV          -6.1780     -6.0720     -5.8858     -5.8357     -5.8356
 occupation              2.0000      2.0000      2.0000      2.0000      2.0000 

    irrep                211a        212a        213a        214a        215a   
 eigenvalues H         -0.15129    -0.15128    -0.14753    -0.13351    -0.12393
            eV          -4.1168     -4.1166     -4.0146     -3.6330     -3.3724
 
 
 ! grave: sending quit signal to master process
 
 
 
 
 ==============================================================================
                           electrostatic moments
 ==============================================================================

 reference point for electrostatic moments:    0.00000   0.00000   0.00000

 
              nuc           elec       ->  total
 ------------------------------------------------------------------------------
                          charge      
 ------------------------------------------------------------------------------
         420.000000    -420.000000       0.000000
 
 ------------------------------------------------------------------------------
                       dipole moment  
 ------------------------------------------------------------------------------
   x      -0.000000       0.000038       0.000038
   y       0.000000       0.000000       0.000000
   z       0.000000      -0.000000      -0.000000
 
   | dipole moment | =     0.0000 a.u. =     0.0001 debye 
 
 ------------------------------------------------------------------------------
                     quadrupole moment
 ------------------------------------------------------------------------------
  xx    6680.804229   -6968.681841    -287.877612
  yy    6680.804229   -6968.681756    -287.877528
  zz    8767.065719   -9054.591822    -287.526103
  xy       0.000000      -0.000000      -0.000000
  xz       0.000000      -0.000000      -0.000000
  yz       0.000000      -0.000000      -0.000000
 
     1/3  trace=    -287.760414
     anisotropy=       0.351467
 
 ==============================================================================
 

    ridft profiling
  --------------------------------------------------------------------
             module   cpu total (s)       %  wall total (s)       %

               RIDFT          8326.4  100.00          8363.2  100.00
         Ridft_b_scf           112.6    1.35           114.9    1.37
        b_scf_prelim             0.0    0.00             0.0    0.00
        b_scf_molinp             0.0    0.00             0.0    0.00
         b_scf_init0             0.0    0.00             0.0    0.00
        b_scf_auxbas             0.0    0.00             0.0    0.00
      b_scf_symmetry             0.0    0.00             0.0    0.00
         b_scf_cosmo             0.0    0.00             0.0    0.00
        b_scf_params            14.7    0.18            14.7    0.18
          b_scf_ri-j            46.5    0.56            48.7    0.58
    b_scf_ri-j_auxpq            46.4    0.56            48.7    0.58
     ri-j_auxpq_chol             1.8    0.02             1.8    0.02
         b_scf_1elec             6.1    0.07             6.2    0.07
       b_scf_moinput            45.3    0.54            45.3    0.54
     moinput_orthmos            44.7    0.54            44.7    0.53
    b_scf_dft-dstmax             0.0    0.00             0.0    0.00
           Ridft_scf          8211.3   98.62          8245.7   98.60
          Scf_b_loop             0.0    0.00             0.0    0.00
                noga             0.0    0.00             0.0    0.00
            Scf_loop          8205.6   98.55          8238.7   98.51
     scf_loop_mkdmat            24.0    0.29            24.0    0.29
       scf_loop_ri-j          2819.7   33.86          2818.8   33.71
      parlp1.bc.dens             2.3    0.03             2.3    0.03
        parlp1.gs.gp            66.7    0.80            66.7    0.80
        parlp2.bc.gq             0.0    0.00             0.0    0.00
        scf_loop_dft          4466.2   53.64          4466.4   53.41
      pardft.bc.dens             0.0    0.00             0.0    0.00
        dft_grid_con             3.8    0.05             3.8    0.04
           dft_xcrhf          4370.4   52.49          4370.5   52.26
          dft_getval           127.0    1.52           127.2    1.52
          funct2 dst             1.6    0.02             1.7    0.02
      funct2 f2loop1            22.3    0.27            22.4    0.27
      funct2 f2loop2            54.4    0.65            54.4    0.65
          funct2 s+c            47.2    0.57            47.3    0.57
        funct2 cmf_2            42.2    0.51            42.5    0.51
          dft_mkdens          1703.2   20.46          1703.0   20.36
         dft_gga-fun             0.9    0.01             0.9    0.01
          dft_mkfock          2537.9   30.48          2538.2   30.35
     pardft.red.fock           286.7    3.44           286.6    3.43
     scf_loop_energy             0.2    0.00             0.2    0.00
     scf_loop_mkfock             0.4    0.00             0.4    0.00
       scf_loop_diis           331.1    3.98           331.1    3.96
       scf_loop_diag           343.6    4.13           343.6    4.11
         diag_tritrn           105.2    1.26           105.2    1.26
          diag_rdiag           237.4    2.85           237.4    2.84
     scf_loop_modump           128.0    1.54           161.7    1.93
      scf_loop_ortho            87.7    1.05            87.7    1.05
          Scf_a_loop             5.7    0.07             7.0    0.08
         Ridft_a_scf             2.5    0.03             2.6    0.03
         a_scf_fanal             2.4    0.03             2.5    0.03
 


    ------------------------------------------------------------------------
         total  cpu-time :  2 hours 19 minutes and  0 seconds
         total wall-time :  2 hours 19 minutes and 37 seconds
    ------------------------------------------------------------------------


   ****  ridft : all done  ****


    2017-11-01 22:36:13.822 

