
   OpenMP run-time library returned nthreads =  8

 ricc2 (c-15-42.local) : TURBOMOLE V7.2 ( 21471 ) 11 Oct 2017 at 17:04:51
 Copyright (C) 2017 TURBOMOLE GmbH, Karlsruhe


    2018-04-03 16:59:25.145 



                              R I C C 2 - PROGRAM

                          the quantum chemistry groups
                             at the universities in
                           Karlsruhe, Bochum & Mainz
                                   Germany



   *-----------------------------------------------------------------------*
   |                     program will use  8 thread(s)                     |
   *-----------------------------------------------------------------------*


              +--------------------------------------------------+
              | Atomic coordinate, charge and isotop information |
              +--------------------------------------------------+

                    atomic coordinates            atom    charge  isotop
          3.97940282    0.35506949   -1.19530840    c      6.000     0
          6.19090152    0.16772540    2.63989889    c      6.000     0
          8.71006308   -0.04201742    1.27188435    c      6.000     0
          6.42201396    0.19166849   -2.70111425    c      6.000     0
          8.32316372   -1.20602629   -1.22240112    n      7.000     0
          4.40544146    1.59163541    1.18067482    o      8.000     0
          9.99711346   -1.17398055   -2.17565549    h      1.000     0
         10.01363654   -1.21173539    2.37185051    h      1.000     0
          6.08982629   -0.82981161   -4.46890676    h      1.000     0
          2.56464943    1.48043183   -2.18778153    h      1.000     0
          6.40908551    1.18083206    4.42239846    h      1.000     0
          7.04667911    2.12593565   -3.16482104    h      1.000     0
          9.54362721    1.86173948    1.11313392    h      1.000     0
          5.41899358   -1.72891114    3.00900390    h      1.000     0
          3.21288341   -1.54823616   -0.84978299    h      1.000     0
 
       center of nuclear mass  :    6.33306754    0.19291384    0.00007844
       center of nuclear charge:    6.36700959    0.17670498   -0.01978764

              +--------------------------------------------------+
              |               basis set information              |
              +--------------------------------------------------+

              we will work with the 1s 3p 5d 7f 9g ... basis set
              ...i.e. with spherical basis functions...

   type   atoms  prim   cont   basis
   ---------------------------------------------------------------------------
    c        4     50     30   cc-pVTZ   [4s3p2d1f|18s5p2d1f]
    n        1     50     30   cc-pVTZ   [4s3p2d1f|18s5p2d1f]
    o        1     50     30   cc-pVTZ   [4s3p2d1f|18s5p2d1f]
    h        9     16     14   cc-pVTZ   [3s2p1d|5s2p1d]
   ---------------------------------------------------------------------------
   total:   15    444    306
   ---------------------------------------------------------------------------

   total number of primitive shells          :   86
   total number of contracted shells         :  114
   total number of cartesian basis functions :  345
   total number of SCF-basis functions       :  306


 symmetry group of the molecule :   c1 

 the group has the following generators :
   c1(z)

    1 symmetry operations found

 there are 1 real representations :   a   


   =========================================================================


     restricted closed shell calculation for the wavefunction models:
               MP2        - Second Order Moeller Plesset PT


     global parameters for ricc2 program:

        hard restart (reuse of interm.) :  enabled 
        soft restart (reuse of vectors) :  disabled
        threshold for vector function   :    0.100000E-05
        convergence threshold energy    :    0.100000E-06
        linear dependence threshold     :    0.100000E-13
        global print level              :      1
        maximum number of iterations    :   300
        maximum number DIIS vectors     :    10
        max. dim. of reduced space      :   100
        core memory limit (MB)          : 15258


     MP2 energy only: Energy will be calculated directly from T2 amplitudes!

     Scratch Directory : 


   =========================================================================

    der. integral neglect threshold  :  0.10E-07
    integral neglect threshold       :  0.97E-11
    integral storage threshold THIZE :  0.10E-04
    integral storage threshold THIME :         5


                  +------------------------------------------+
                  |     Auxiliary basis set information      |
                  +------------------------------------------+

              we will work with the 1s 3p 5d 7f 9g ... basis set
              ...i.e. with spherical basis functions...

   type   atoms  prim   cont   basis
   ---------------------------------------------------------------------------
    c        4     81     81   cc-pVTZ   [8s6p5d3f1g|8s6p5d3f1g]
    n        1     81     81   cc-pVTZ   [8s6p5d3f1g|8s6p5d3f1g]
    o        1     81     81   cc-pVTZ   [8s6p5d3f1g|8s6p5d3f1g]
    h        9     30     30   cc-pVTZ   [4s3p2d1f|4s3p2d1f]
   ---------------------------------------------------------------------------
   total:   15    756    756
   ---------------------------------------------------------------------------

   total number of primitive shells          :   79
   total number of contracted shells         :  228
   total number of cartesian basis functions :  921
   total number of SCF-basis functions       :  756


 maximum number of shells which are related by symmetry :  1


 The symmetry information takes   1 MB

*---------------------------------------------------------------------*
|               simplified C1 algorithm will be applied               |
*---------------------------------------------------------------------*
  MOs are in ASCII format !


 reading orbital data $scfmo  from file mos
 orbital characterization : scfconv=7



              +--------------------------------------------+
              | list of orbitals that will be kept frozen: |
              +--------------------------------------------+
              |   irrep   index      energy     occ/vir    |
              +--------------------------------------------+
              |   a         1      -20.5486     occupied   |
              |   a         2      -15.5453     occupied   |
              |   a         3      -11.2701     occupied   |
              |   a         4      -11.2700     occupied   |
              |   a         5      -11.2496     occupied   |
              |   a         6      -11.2491     occupied   |
              +--------------------------------------------+



   Molecular Orbital Statistic:
   ============================

   -----------------------------
   orbitals in total:
   -----------------------------
    frozen occupied :      6
    active occupied :     18
    active virtual  :    282
    frozen virtual  :      0
    all together    :    306
   -----------------------------


     time in riccmos       cpu:  1.61 sec    wall:  0.20 sec    ratio:  8.0

     total memory allocated for calculation of (Q|P)**(-1/2) : 7 MiB


     calculation of (P|Q) ...
     time in lp2sym        cpu:  0.25 sec    wall:  0.03 sec    ratio:  8.1


     calculation of the Cholesky decomposition of (P|Q)**(-1) ...
     time in invmetri      cpu:  0.78 sec    wall:  0.10 sec    ratio:  7.9

   threshold for RMS(d[D]) in SCF was     :  0.10E-06
   integral neglect threshold             :  0.97E-11
   derivative integral neglect threshold  :  0.10E-07


   =========================================================================

     Energy of reference wave function is  -286.1000206155000
     Maximum orbital residual is           0.1720918726303E-05


     Number of symmetry-nonredundant auxiliary basis functions:      756

     Block lengths for integral files:
        frozen occupied (BOI):        1 MiB
        active occupied (BJI):        1 MiB
        active virtual  (BAI):        2 MiB
        frozen virtual  (BGI):        0 MiB
               general  (BTI):        2 MiB

   =========================================================================



   restarted calculation begins with wavefunction model nb. 1 which is MP2     


   **************************************************************************
   *                                                                        *
   *          OPTIMIZATION OF THE GROUND STATE CLUSTER AMPLITUDES           *
   *                                                                        *
   **************************************************************************


   Iter.   MP2 energy       Norm(Omega)    Norm(t1)  Norm(t2)     cpu    wall
   ...........................................................................
    1   -287.2298858329     ------          0.00000   0.34335    0.06    0.01
   ...........................................................................


     time in total         cpu:  3.90 sec    wall:  0.49 sec    ratio:  7.9


     **********************************************************************
     *                                                                    *
     *   RHF  energy                             :   -286.1000206155      *
     *   MP2 correlation energy (doubles)        :     -1.1298652174      *
     *                                                                    *
     *   Final MP2 energy                        :   -287.2298858329      *
     *                                                                    *
     *    E(S)   =     -0.7262509342      E(T)   =     -0.4036142832      *
     *    E(OS)  =     -0.8607890286      E(SS)  =     -0.2690761888      *
     *                                                                    *
     *   SCS-MP2 energy                          :   -287.2226595127      *
     *   (computed with  C(OS) =   1.2000  and  C(SS) =   0.3333)         *
     *                                                                    *
     *   SOS-MP2 energy                          :   -287.2190463527      *
     *   (computed with  C(OS) =   1.3000)                                *
     *                                                                    *
     *   Norm of MP1 T2 amplitudes               :      0.3433521874      *
     *                                                                    *
     **********************************************************************



    ------------------------------------------------------------------------
         total  cpu-time :  14.06 seconds
         total wall-time :   1.84 seconds
    ------------------------------------------------------------------------

   ****  ricc2 : all done  ****


    2018-04-03 16:59:26.946 

