STARTING ridft ON 32 PROCESSORS!
RUNNING PROGRAM /sopt/TURBOMOLE/7.3-official/bin/em64t-unknown-linux-gnu_smp/ridft_mpi.
           SMPCPUS    set: Shared-memory Parallelization with  32 CPUs.

           SMP Parallelization Reference:
           C. van Wullen, J. Comput. Chem. 32 (2011) 1195--1201
 operating system is UNIX !

 ridft (c-16-28) : TURBOMOLE V7.3 ( 22118 ) 1 Jul 2018 at 20:38:15
 Copyright (C) 2018 TURBOMOLE GmbH, Karlsruhe


    2019-03-12 22:39:42.137 



                                  r i d f t

                        DFT program with RI approximation 
                                for coulomb part 




                                                 
                                 References:     
                                                 
          TURBOMOLE:                             
              R. Ahlrichs, M. Baer, M. Haeser, H. Horn, and
              C. Koelmel
              Electronic structure calculations on workstation
              computers: the program system TURBOMOLE
              Chem. Phys. Lett. 162: 165 (1989)
          Density Functional:                              
              O. Treutler and R. Ahlrichs                      
              Efficient Molecular Numerical Integration Schemes
              J. Chem. Phys. 102: 346 (1995)                   
          Parallel Version:                                
              Performance of parallel TURBOMOLE for Density    
              Functional Calculations                          
              M. v. Arnim and R. Ahlrichs                      
              J. Comp. Chem. 19: 1746 (1998)                   
          RI-J Method:                                     
              Auxiliary Basis Sets to approximate Coulomb      
              Potentials                                       
              Chem. Phys. Lett. 240: 283 (1995)                
              K. Eichkorn, O. Treutler, H. Oehm, M. Haeser     
              and R. Ahlrichs                                  
              Chem. Phys. Lett. 242: 652 (1995)                
                                                           
              Auxiliary Basis Sets for Main Row Atoms and their
              Use to approximate Coulomb Potentials            
              K. Eichkorn, F. Weigend, O. Treutler and         
              R. Ahlrichs                                      
              Theo. Chem. Acc. 97: 119 (1997)                   
                                                           
              Accurate Coulomb-fitting basis sets for H to Rn 
              F. Weigend                                        
              Phys. Chem. Chem. Phys. 8: 1057 (2006)            
                                                           
          Multipole accelerated RI-J (MARI-J):             
              Fast evaluation of the Coulomb potential for     
              electron densities using multipole accelerated   
              resolution of identity approximation             
              M. Sierka, A. Hogekamp and R. Ahlrichs           
              J. Chem. Phys. 118: 9136 (2003)                  
          RI-JK Method:                                     
              A fully direct RI-HF algorithm: Implementation,
              optimised auxiliary basis sets, demonstration of
              accuracy and efficiency                         
              F. Weigend                                      
              Phys. Chem. Chem. Phys. 4: 4285 (2002)           
          Two-component HF and DFT with spin-orbit coupling:  
              Self-consistent treatment of spin-orbit         
              interactions with efficient Hartree-Fock and    
              density functional methods                      
              M. K. Armbruster, F. Weigend, C. van Wüllen and 
              W. Klopper                                      
              Phys. Chem. Chem. Phys. 10: 1748 (2008)         
          Two-component difference density and DIIS algorithm 
              Efficient two-component self-consistent field   
              procedures and gradients: implementation in     
              TURBOMOLE and application to Au20-              
              A. Baldes, F. Weigend                           
              Mol. Phys. 111: 2617 (2013)                     
          Relativistic all-electron 2c calculations           
              An efficient implementation of two-component    
              relativistic exact-decoupling methods for large 
              molecules                                       
              D. Peng, N. Middendorf, F. Weigend, M. Reiher   
              J. Chem. Phys. 138: 184105 (2013)               
          Finite nucleus model and SNSO approximation         
              Efficient implementation of one- and two-       
              component analytical energy gradients in exact  
              two-component theory                            
              Y. J. Franzke, N. Middendorf, F. Weigend        
              J. Chem. Phys. 148: 104110 (2018)               
                                         




              +--------------------------------------------------+
              |      general information about current run       |
              +--------------------------------------------------+

 
 PBE functional
 exchange:    LDA + PBE
 correlation: LDA (PW) + PBE
 A DFT calculation using the RI-J approximation will be carried out.
 Allocatable memory for RI due to $ricore (MB):                  8000


              +--------------------------------------------------+
              | Atomic coordinate, charge and isotop information |
              +--------------------------------------------------+

                    atomic coordinates            atom    charge  isotop
          0.58950673    1.06018046    0.93862482    c      6.000     0
          1.40243394    2.93544219    0.91002730    h      1.000     0
          2.15841183   -1.05460817    1.01301008    c      6.000     0
          4.18859936   -0.82061384    1.04379050    h      1.000     0
          1.11078885   -3.47083551    1.04718106    c      6.000     0
          2.32797704   -5.11140972    1.10590890    h      1.000     0
         -1.50546492   -3.77260317    1.00715411    c      6.000     0
         -2.31826769   -5.64734124    1.03677384    h      1.000     0
         -3.07438216   -1.65818489    0.93384272    c      6.000     0
         -5.10438105   -1.89227720    0.90671891    h      1.000     0
         -2.02704355    0.75816928    0.89946045    c      6.000     0
         -3.24460982    2.39882056    0.84266658    h      1.000     0
          0.32213778    0.95645082    9.13624764    c      6.000     0
          3.05515170    1.29430996    8.27649503    c      6.000     0
          3.84100701    3.05794955    9.00105945    h      1.000     0
          4.23320569   -0.25642883    8.95463056    h      1.000     0
          3.16968637    1.33095418    6.21870758    h      1.000     0
          0.21935298    0.89716796   12.01782548    c      6.000     0
         -1.71910923    0.65637825   12.67750577    h      1.000     0
          1.34450708   -0.66315409   12.75964453    h      1.000     0
          0.95312322    2.65061578   12.81700121    h      1.000     0
         -0.71604003   -1.51813039    8.07744161    c      6.000     0
         -2.67166772   -1.80210905    8.66830528    h      1.000     0
          0.39220229   -3.12245829    8.74982746    h      1.000     0
         -0.66165403   -1.51898601    6.01704629    h      1.000     0
         -1.26782636    3.15717237    8.16076067    c      6.000     0
         -1.22711985    3.22525994    6.10096190    h      1.000     0
         -3.23274309    2.96107630    8.75504643    h      1.000     0
         -0.55794583    4.95372455    8.88283808    h      1.000     0
 
       center of nuclear mass  :   -0.08327502   -0.24547299    4.89158483
       center of nuclear charge:   -0.06782380   -0.19964315    5.05353241

              +--------------------------------------------------+
              |               basis set information              |
              +--------------------------------------------------+

              we will work with the 1s 3p 5d 7f 9g ... basis set
              ...i.e. with spherical basis functions...

   type   atoms  prim   cont   basis
   ---------------------------------------------------------------------------
    c       11     68     48   def2-QZVP   [7s4p3d2f|15s8p3d2f]
    h       18     26     23   def2-QZVP   [4s3p2d|7s3p2d]
   ---------------------------------------------------------------------------
   total:   29   1216    942
   ---------------------------------------------------------------------------

   total number of primitive shells          :   40
   total number of contracted shells         :  338
   total number of cartesian basis functions : 1077
   total number of SCF-basis functions       :  942


 integral neglect threshold       :  0.31E-11
 integral storage threshold THIZE :  0.10E-04
 integral storage threshold THIME :         5

 RI-J AUXILIARY BASIS SET information:

              we will work with the 1s 3p 5d 7f 9g ... basis set
              ...i.e. with spherical basis functions...

   type   atoms  prim   cont   basis
   ---------------------------------------------------------------------------
    c       11     70     49   def2-QZVP   [6s4p3d1f1g|12s5p4d2f1g]
    h       18     16     11   def2-QZVP   [3s1p1d|5s2p1d]
   ---------------------------------------------------------------------------
   total:   29   1058    737
   ---------------------------------------------------------------------------

   total number of primitive shells          :   32
   total number of contracted shells         :  255
   total number of cartesian basis functions :  887
   total number of SCF-basis functions       :  737


 symmetry group of the molecule :   c1 

 the group has the following generators :
   c1(z)

    1 symmetry operations found

 there are 1 real representations :   a   

 maximum number of shells which are related by symmetry :  1


    mo occupation :
   irrep   mo's   occupied
    a      942       42
 
 number of basis functions   :                    942
 number of occupied orbitals :                     42
 
  
           ------------------
           density functional
           ------------------
 PBE functional
 exchange:    LDA + PBE
 correlation: LDA (PW) + PBE

 iterations will be done with small grid
  
 spherical integration : Lebedev's spherical grid
 spherical gridsize    :                     4
    i.e. gridpoints    :                   434
 value for diffuse not defined
 radial integration    : Chebyshev 2nd kind (scaling 3)
 radial gridsize       :                     6
 integration cells     :                    29
 partition function    : becke
 partition sharpness   :                     3
  

 biggest AO integral is expected to be     5.262544080
  
           ------------------------
               RI-J - INFORMATION
           ------------------------
 Contributions to RI integral batches: 
  neglected integral batches:                 15660
  direct contribution:                            0
  memory contribution:                 41631
 Memory core needed for (P|Q) and Cholesky      5 MByte
 Memory core minimum needed except of (P|Q)     4 MByte
 Total minimum memory core needed (sum)         8 MByte
  
 ****************************************
 Memory allocated for RI-J  2853 MByte
 ****************************************
                                            

          ------------------------
          nuclear repulsion energy  :   598.081680146    
          ------------------------

  _________________________________
 |                                 |
 |         DFTD3 V3.1 Rev 0        |
 | S.Grimme, University Bonn       |
 |            June  2014           |
 |   see standalone version        |
 |       dftd3 -h for options      |
 |_________________________________|
 
 Please cite DFT-D3 work done with this code as:
 S. Grimme, J. Antony, S. Ehrlich and H. Krieg,
 J. Chem. Phys, 132 (2010), 154104.
 If used with BJ-damping cite also
 S. Grimme, S. Ehrlich and L. Goerigk,
 J. Comput. Chem. 32 (2011), 1456-1465
 For DFT-D2 the reference is
 S. Grimme, J. Comput. Chem., 27 (2006), 1787-1799
 
C6 coefficients used:
                     2  C6 for element                      1
Z=  1 CN= 0.912     C6(AA)=    3.03
Z=  1 CN= 0.000     C6(AA)=    7.59
                     5  C6 for element                      6
Z=  6 CN= 0.000     C6(AA)=   49.11
Z=  6 CN= 0.987     C6(AA)=   43.25
Z=  6 CN= 1.998     C6(AA)=   29.36
Z=  6 CN= 2.999     C6(AA)=   25.78
Z=  6 CN= 3.984     C6(AA)=   18.21

#           XYZ [au]              R0(AA) [Ang.]  CN          C6(AA)     C8(AA)   C10(AA) [au]
  1   0.58951   1.06018   0.93862   c   0.610  3.135        25.3       732.5     25951.4
  2   1.40243   2.93544   0.91003   h   0.395  1.004         3.1        37.3       552.9
  3   2.15841  -1.05461   1.01301   c   0.610  3.134        25.3       732.5     25952.6
  4   4.18860  -0.82061   1.04379   h   0.395  1.004         3.1        37.3       552.9
  5   1.11079  -3.47084   1.04718   c   0.610  3.134        25.3       732.6     25953.9
  6   2.32798  -5.11141   1.10591   h   0.395  1.004         3.1        37.3       552.9
  7  -1.50546  -3.77260   1.00715   c   0.610  3.134        25.3       732.6     25953.7
  8  -2.31827  -5.64734   1.03677   h   0.395  1.004         3.1        37.3       552.9
  9  -3.07438  -1.65818   0.93384   c   0.610  3.134        25.3       732.6     25953.9
 10  -5.10438  -1.89228   0.90672   h   0.395  1.004         3.1        37.3       552.9
 11  -2.02704   0.75817   0.89946   c   0.610  3.134        25.3       732.5     25952.6
 12  -3.24461   2.39882   0.84267   h   0.395  1.004         3.1        37.3       552.9
 13   0.32214   0.95645   9.13625   c   0.610  4.023        18.3       529.4     18757.9
 14   3.05515   1.29431   8.27650   c   0.610  4.097        18.3       528.2     18712.9
 15   3.84101   3.05795   9.00106   h   0.395  0.999         3.1        37.4       553.4
 16   4.23321  -0.25643   8.95463   h   0.395  0.999         3.1        37.4       553.3
 17   3.16969   1.33095   6.21871   h   0.395  0.999         3.1        37.4       553.3
 18   0.21935   0.89717  12.01783   c   0.610  4.096        18.3       528.2     18713.7
 19  -1.71911   0.65638  12.67751   h   0.395  0.999         3.1        37.4       553.3
 20   1.34451  -0.66315  12.75964   h   0.395  0.999         3.1        37.4       553.3
 21   0.95312   2.65062  12.81700   h   0.395  0.999         3.1        37.4       553.4
 22  -0.71604  -1.51813   8.07744   c   0.610  4.098        18.3       528.2     18712.6
 23  -2.67167  -1.80211   8.66831   h   0.395  0.999         3.1        37.4       553.3
 24   0.39220  -3.12246   8.74983   h   0.395  0.999         3.1        37.4       553.3
 25  -0.66165  -1.51899   6.01705   h   0.395  1.000         3.1        37.4       553.2
 26  -1.26783   3.15717   8.16076   c   0.610  4.097        18.3       528.2     18712.9
 27  -1.22712   3.22526   6.10096   h   0.395  0.999         3.1        37.4       553.3
 28  -3.23274   2.96108   8.75505   h   0.395  0.999         3.1        37.4       553.3
 29  -0.55795   4.95372   8.88284   h   0.395  0.999         3.1        37.4       553.4

molecular C6(AA) [au] =      6903.70

           DFT-D V3(BJ)
 DF pbe                                               
 parameters
 s6       :    1.0000
 s8       :    0.7875
 a1       :    0.4289
 a2       :    4.4407
 k1-k3    :   16.0000    1.3333   -4.0000
 
 Edisp /kcal,au:   -18.4573 -0.02941358

 E6    /kcal :   -13.2972
 E8    /kcal :    -5.1601
 % E8        : 27.96
 nuclear repulsion energy                  =     598.081680146
 empirical dispersive energy correction    =      -0.029413579
 nuclear repulsion + dispersion correction =     598.052266567


         -----------------
         -S,T+V- integrals
         -----------------

 1e-integrals will be neglected if expon. factor < 0.310303E-12
 Difference densities >>NOT<< switched on in parallel ridft!

 DIIS switched on: error vector is FDS-SDF
 Max. Iterations for DIIS is     :   4
 DIIS matrix (see manual) 
    Scaling factor of diagonals  :  1.200
    threshold for scaling factor :  0.000

 scf convergence criterion : increment of total energy < .1000000D-06
                  and increment of one-electron energy < .1000000D-03

  MOs are in ASCII format !


 automatic virtual orbital shift switched on 
      shift if e(lumo)-e(homo) < 0.10000000    


 reading orbital data $scfmo  from file mos
 orbital characterization : expanded
 mo provided and orthogonalized by Cholesky decomposition

 DSCF restart information will be dumped onto file mos


 Starting SCF iterations

          Overall gridpoints after grid construction =         69859

 ITERATION  ENERGY          1e-ENERGY        2e-ENERGY     NORM[dD(SAO)]  TOL
   1  -428.17286544982    -1745.2737770     719.04864494    0.000D+00 0.310D-11
                            Exc = -63.8289511355     Coul =  782.877596080    
                              N = 84.000195921    
                            current damping = 0.700
 
          max. resid. norm for Fia-block=  4.933D-01 for orbital     12a         
          max. resid. fock norm         =  4.458D+01 for orbital    794a         

 ITERATION  ENERGY          1e-ENERGY        2e-ENERGY     NORM[dD(SAO)]  TOL
   2  -429.32831695361    -1758.3801541     730.99957062    0.000D+00 0.310D-11
                            Exc = -65.1044951809     Coul =  796.104065798    
                              N = 84.000131089    
                            current damping = 0.650
 
          Norm of current diis error:  3.8103    
          max. resid. norm for Fia-block=  1.131D-01 for orbital      6a         
          max. resid. fock norm         =  1.291D-01 for orbital     73a         

 ITERATION  ENERGY          1e-ENERGY        2e-ENERGY     NORM[dD(SAO)]  TOL
   3  -429.54871864233    -1760.5426536     732.94166839    0.000D+00 0.310D-11
                            Exc = -65.4561535293     Coul =  798.397821917    
                              N = 84.000103560    
                            current damping = 0.550
 
          Norm of current diis error:  1.8532    
          max. resid. norm for Fia-block=  5.353D-02 for orbital     12a         
          max. resid. fock norm         =  6.216D-02 for orbital     12a         

 ITERATION  ENERGY          1e-ENERGY        2e-ENERGY     NORM[dD(SAO)]  TOL
   4  -429.61363367172    -1763.3250921     735.65919187    0.000D+00 0.310D-11
                            Exc = -65.7370241534     Coul =  801.396216019    
                              N = 84.000076173    
                            current damping = 0.450
 
          Norm of current diis error: 0.67091    
          max. resid. norm for Fia-block=  2.050D-02 for orbital     12a         
          max. resid. fock norm         =  2.308D-02 for orbital     12a         

 ITERATION  ENERGY          1e-ENERGY        2e-ENERGY     NORM[dD(SAO)]  TOL
   5  -429.62345977975    -1763.4337623     735.75803598    0.000D+00 0.310D-11
                            Exc = -65.8044823621     Coul =  801.562518339    
                              N = 84.000058687    
                            current damping = 0.300
 
          Norm of current diis error: 0.27781    
          max. resid. norm for Fia-block=  7.902D-03 for orbital     22a         
          max. resid. fock norm         =  9.302D-03 for orbital     22a         
          mo-orthogonalization: Cholesky decomposition

 ITERATION  ENERGY          1e-ENERGY        2e-ENERGY     NORM[dD(SAO)]  TOL
   6  -429.62502659823    -1764.2504247     736.57313155    0.000D+00 0.310D-11
                            Exc = -65.8665812105     Coul =  802.439712757    
                              N = 84.000052244    
                            current damping = 0.200
 
          Norm of current diis error: 0.11515    
          max. resid. norm for Fia-block=  3.153D-03 for orbital     39a         
          max. resid. fock norm         =  6.438D-03 for orbital    936a         

 ITERATION  ENERGY          1e-ENERGY        2e-ENERGY     NORM[dD(SAO)]  TOL
   7  -429.62525497443    -1764.0045921     736.32707057    0.000D+00 0.310D-11
                            Exc = -65.8601195374     Coul =  802.187190105    
                              N = 84.000048643    
                            current damping = 0.250
 
          Norm of current diis error: 0.46078E-01
          max. resid. norm for Fia-block=  1.184D-03 for orbital     42a         
          max. resid. fock norm         =  2.837D-03 for orbital    937a         

 ITERATION  ENERGY          1e-ENERGY        2e-ENERGY     NORM[dD(SAO)]  TOL
   8  -429.62527742063    -1764.0366019     736.35905795    0.000D+00 0.310D-11
                            Exc = -65.8617270627     Coul =  802.220785011    
                              N = 84.000048678    
                            current damping = 0.300
 
          Norm of current diis error: 0.30279E-01
          max. resid. norm for Fia-block=  6.838D-04 for orbital     42a         
          max. resid. fock norm         =  1.697D-03 for orbital    934a         

 ITERATION  ENERGY          1e-ENERGY        2e-ENERGY     NORM[dD(SAO)]  TOL
   9  -429.62529736228    -1764.0643702     736.38680627    0.000D+00 0.310D-11
                            Exc = -65.8635602560     Coul =  802.250366527    
                              N = 84.000048578    
                            current damping = 0.150
 
          Norm of current diis error: 0.64755E-02
          max. resid. norm for Fia-block=  1.790D-04 for orbital     42a         
          max. resid. fock norm         =  3.498D-04 for orbital    937a         

 ITERATION  ENERGY          1e-ENERGY        2e-ENERGY     NORM[dD(SAO)]  TOL
  10  -429.62529759176    -1764.0778353     736.40027113    0.000D+00 0.310D-11
                            Exc = -65.8643525122     Coul =  802.264623646    
                              N = 84.000048502    
                            current damping = 0.050
 
          Norm of current diis error: 0.56829E-02
          max. resid. norm for Fia-block=  1.009D-04 for orbital     28a         
          max. resid. fock norm         =  1.428D-04 for orbital     28a         
          mo-orthogonalization: Cholesky decomposition

 ITERATION  ENERGY          1e-ENERGY        2e-ENERGY     NORM[dD(SAO)]  TOL
  11  -429.62529822543    -1764.0648344     736.38726957    0.000D+00 0.310D-11
                            Exc = -65.8635986765     Coul =  802.250868248    
                              N = 84.000048505    
                            current damping = 0.100
 
          Norm of current diis error: 0.76888E-03
          max. resid. norm for Fia-block=  1.625D-05 for orbital     40a         
          max. resid. fock norm         =  3.500D-05 for orbital    936a         

 ITERATION  ENERGY          1e-ENERGY        2e-ENERGY     NORM[dD(SAO)]  TOL
  12  -429.62529823315    -1764.0680877     736.39052288    0.000D+00 0.310D-11
                            Exc = -65.8637745410     Coul =  802.254297424    
                              N = 84.000048513    
                            current damping = 0.150
 
          Norm of current diis error: 0.45144E-03
          max. resid. norm for Fia-block=  1.131D-05 for orbital     40a         
          max. resid. fock norm         =  2.502D-05 for orbital    936a         

 ITERATION  ENERGY          1e-ENERGY        2e-ENERGY     NORM[dD(SAO)]  TOL
  13  -429.62529823480    -1764.0671708     736.38960602    0.000D+00 0.310D-11
                            Exc = -65.8637355401     Coul =  802.253341557    
                              N = 84.000048506    
                            current damping = 0.200
 
          Norm of current diis error: 0.31350E-03
          max. resid. norm for Fia-block=  6.154D-06 for orbital     42a         
          max. resid. fock norm         =  1.488D-05 for orbital    937a         

 ENERGY CONVERGED !

          Overall gridpoints after grid construction =        261632

 ITERATION  ENERGY          1e-ENERGY        2e-ENERGY     NORM[dD(SAO)]  TOL
  14  -429.62512250784    -1764.0670904     736.38970137    0.000D+00 0.310D-11
                            Exc = -65.8635504251     Coul =  802.253251794    
                              N = 84.000028232    
                            current damping = 0.250
 
          Norm of current diis error: 0.51915E-04
          max. resid. norm for Fia-block=  1.118D-06 for orbital     42a         
          max. resid. fock norm         =  2.720D-06 for orbital    937a         

 End of SCF iterations

   convergence criteria satisfied after    14 iterations


                  ------------------------------------------ 
                 |  total energy      =   -429.62512250784  |
                  ------------------------------------------ 
                 :  kinetic energy    =    427.72332963412  :
                 :  potential energy  =   -857.34845214196  :
                 :  virial theorem    =      1.99557336670  :
                 :  wavefunction norm =      1.00000000000  :
                  .......................................... 


 orbitals $scfmo  will be written to file mos

    irrep                 38a         39a         40a         41a         42a   
 eigenvalues H         -0.27482    -0.27439    -0.27281    -0.23569    -0.23552
            eV          -7.4782     -7.4666     -7.4235     -6.4136     -6.4089
 occupation              2.0000      2.0000      2.0000      2.0000      2.0000 

    irrep                 43a         44a         45a         46a         47a   
 eigenvalues H         -0.04773    -0.04755    -0.00544     0.01337     0.02399
            eV          -1.2987     -1.2940     -0.1481      0.3638      0.6529
 
 
 
 
 ==============================================================================
                           electrostatic moments
 ==============================================================================

 reference point for electrostatic moments:    0.00000   0.00000   0.00000

 
              nuc           elec       ->  total
 ------------------------------------------------------------------------------
                          charge      
 ------------------------------------------------------------------------------
          84.000000     -84.000000       0.000000
 
 ------------------------------------------------------------------------------
                       dipole moment  
 ------------------------------------------------------------------------------
   x      -5.697199       5.674180      -0.023019
   y     -16.770025      16.706587      -0.063438
   z     424.496723    -424.653965      -0.157242
 
   | dipole moment | =     0.1711 a.u. =     0.4349 debye 
 
 ------------------------------------------------------------------------------
                     quadrupole moment
 ------------------------------------------------------------------------------
  xx     337.315384    -388.051785     -50.736400
  yy     439.786496    -490.558247     -50.771751
  zz    3677.760099   -3735.936319     -58.176220
  xy      39.098691     -39.114791      -0.016100
  xz     108.337319    -108.365767      -0.028448
  yz     307.639902    -308.115683      -0.475782
 
     1/3  trace=     -53.228124
     anisotropy=       7.468030
 
 ==============================================================================
 


    ------------------------------------------------------------------------
         total  cpu-time :  7 minutes and 49 seconds
         total wall-time :  1 minutes and 55 seconds
    ------------------------------------------------------------------------

   ****  ridft : all done  ****


    2019-03-12 22:41:37.348 

