           Doing BLAS/Lapack in the master proc. with  8 CPUs.
           SMPCPUS    set: Shared-memory Parallelization with   8 CPUs.

           SMP Parallelization Reference:
           C. van Wullen, J. Comput. Chem. 32 (2011) 1195--1201
 operating system is UNIX !

 ridft (c-18-412.gp.local) : TURBOMOLE V7.2 ( 21454 ) 4 Oct 2017 at 12:48:15
 Copyright (C) 2017 TURBOMOLE GmbH, Karlsruhe


    2018-04-24 21:16:46.649 



                                  r i d f t

                        DFT program with RI approximation 
                                for coulomb part 




                                                 
                                 References:     
                                                 
          TURBOMOLE:                             
              R. Ahlrichs, M. Baer, M. Haeser, H. Horn, and
              C. Koelmel
              Electronic structure calculations on workstation
              computers: the program system TURBOMOLE
              Chem. Phys. Lett. 162: 165 (1989)
          Density Functional:                              
              O. Treutler and R. Ahlrichs                      
              Efficient Molecular Numerical Integration Schemes
              J. Chem. Phys. 102: 346 (1995)                   
          Parallel Version:                                
              Performance of parallel TURBOMOLE for Density    
              Functional Calculations                          
              M. v. Arnim and R. Ahlrichs                      
              J. Comp. Chem. 19: 1746 (1998)                   
          RI-J Method:                                     
              Auxiliary Basis Sets to approximate Coulomb      
              Potentials                                       
              Chem. Phys. Lett. 240: 283 (1995)                
              K. Eichkorn, O. Treutler, H. Oehm, M. Haeser     
              and R. Ahlrichs                                  
              Chem. Phys. Lett. 242: 652 (1995)                
                                                           
              Auxiliary Basis Sets for Main Row Atoms and their
              Use to approximate Coulomb Potentials            
              K. Eichkorn, F. Weigend, O. Treutler and         
              R. Ahlrichs                                      
              Theo. Chem. Acc. 97: 119 (1997)                   
                                                           
              Accurate Coulomb-fitting basis sets for H to Rn 
              F. Weigend                                        
              Phys. Chem. Chem. Phys. 8: 1057 (2006)            
                                                           
          Multipole accelerated RI-J (MARI-J):             
              Fast evaluation of the Coulomb potential for     
              electron densities using multipole accelerated   
              resolution of identity approximation             
              M. Sierka, A. Hogekamp and R. Ahlrichs           
              J. Chem. Phys. 118: 9136 (2003)                  
          RI-JK Method:                                     
              A fully direct RI-HF algorithm: Implementation,
              optimised auxiliary basis sets, demonstration of
              accuracy and efficiency                         
              F. Weigend                                      
              Phys. Chem. Chem. Phys. 4: 4285 (2002)           
          Two-component HF and DFT with spin-orbit coupling:  
              Self-consistent treatment of spin-orbit         
              interactions with efficient Hartree-Fock and    
              density functional methods                      
              M. K. Armbruster, F. Weigend, C. van Wüllen and 
              W. Klopper                                      
              Phys. Chem. Chem. Phys. 10: 1748 (2008)         
          Relativistic all-electron 2c calculations           
              An efficient implementation of two-component    
              relativistic exact-decoupling methods for large 
              molecules                                       
              D. Peng, N. Middendorf, F. Weigend, M. Reiher   
              J. Chem. Phys. 138, 184105 (2013)               
                                         




              +--------------------------------------------------+
              |      general information about current run       |
              +--------------------------------------------------+

 

 DENSITY CONVERGENCE CHECK SWITCHED ON !
 SCF CONVERGENCE IF RMS(delta[D]) <     0.1000000000E-06

 TPSS meta-GGA functional
 exchange:    LDA + TPSS
 correlation: LDA (PW) + TPSS
 A DFT calculation using the RI-J approximation will be carried out.
 Allocatable memory for RI due to $ricore (MB):                   500


              +--------------------------------------------------+
              | Atomic coordinate, charge and isotop information |
              +--------------------------------------------------+

                    atomic coordinates            atom    charge  isotop
          1.54720758    1.63304905    0.35580919    c      6.000     0
          2.77055320    3.24403175    0.65142905    h      1.000     0
          2.58702963   -0.73798330   -0.12604130    c      6.000     0
          4.61666967   -0.96727888   -0.20895541    h      1.000     0
          1.00982921   -2.81284449   -0.51379393    c      6.000     0
          1.81574005   -4.65168223   -0.89857893    h      1.000     0
         -1.60459596   -2.51429450   -0.41554404    c      6.000     0
         -2.82905121   -4.12311840   -0.71725162    h      1.000     0
         -2.64464424   -0.14367626    0.07640950    c      6.000     0
         -4.67270062    0.08486340    0.17646651    h      1.000     0
         -1.06824764    1.93017262    0.45784135    c      6.000     0
         -1.87566028    3.76747387    0.84330572    h      1.000     0
         -4.53237960    0.30640185    6.65261336    n      7.000     0
         -3.37041359    2.49407696    7.18185798    c      6.000     0
         -4.59420790    4.10633735    7.48896132    h      1.000     0
         -0.75840598    2.76024061    7.35225612    c      6.000     0
          0.05766991    4.58127542    7.78919160    h      1.000     0
          0.75517280    0.64945563    6.94745050    c      6.000     0
          2.79148341    0.78246264    7.05107270    h      1.000     0
         -0.41750035   -1.63457138    6.39251432    c      6.000     0
          0.67055579   -3.32705146    6.04466310    h      1.000     0
         -3.04519152   -1.70645256    6.26883284    c      6.000     0
         -4.00678419   -3.46097517    5.83638286    h      1.000     0
 
       center of nuclear mass  :   -0.97302812    0.02120287    3.40687820
       center of nuclear charge:   -0.94096369    0.02004983    3.38679209

              +--------------------------------------------------+
              |               basis set information              |
              +--------------------------------------------------+

              we will work with the 1s 3p 5d 7f 9g ... basis set
              ...i.e. with spherical basis functions...

   type   atoms  prim   cont   basis
   ---------------------------------------------------------------------------
    c       11     77     55   cc-pVQZ   [5s4p3d2f1g|21s6p3d2f1g]
    h       11     32     30   cc-pVQZ   [4s3p2d1f|6s3p2d1f]
    n        1     77     55   cc-pVQZ   [5s4p3d2f1g|21s6p3d2f1g]
   ---------------------------------------------------------------------------
   total:   23   1276    990
   ---------------------------------------------------------------------------

   total number of primitive shells          :   78
   total number of contracted shells         :  290
   total number of cartesian basis functions : 1225
   total number of SCF-basis functions       :  990


 integral neglect threshold       :  0.27E-13
 integral storage threshold THIZE :  0.10E-04
 integral storage threshold THIME :         5

 RI-J AUXILIARY BASIS SET information:

              we will work with the 1s 3p 5d 7f 9g ... basis set
              ...i.e. with spherical basis functions...

   type   atoms  prim   cont   basis
   ---------------------------------------------------------------------------
    c       11     70     49   cc-pVQZ   [6s4p3d1f1g|12s5p4d2f1g]
    h       11     16     11   cc-pVQZ   [3s1p1d|5s2p1d]
    n        1     70     49   cc-pVQZ   [6s4p3d1f1g|12s5p4d2f1g]
   ---------------------------------------------------------------------------
   total:   23   1016    709
   ---------------------------------------------------------------------------

   total number of primitive shells          :   56
   total number of contracted shells         :  235
   total number of cartesian basis functions :  864
   total number of SCF-basis functions       :  709


 symmetry group of the molecule :   c1 

 the group has the following generators :
   c1(z)

    1 symmetry operations found

 there are 1 real representations :   a   

 maximum number of shells which are related by symmetry :  1


    mo occupation :
   irrep   mo's   occupied
    a      990       42
 
 number of basis functions   :                    990
 number of occupied orbitals :                     42
 
  
           ------------------
           density functional
           ------------------
 TPSS meta-GGA functional
 exchange:    LDA + TPSS
 correlation: LDA (PW) + TPSS

 iterations will be done with small grid
  
 spherical integration : Lebedev's spherical grid
 spherical gridsize    :                     5
    i.e. gridpoints    :                   590
 value for diffuse not defined
 radial integration    : Chebyshev 2nd kind (scaling 3)
 radial gridsize       :                     8
 integration cells     :                    23
 partition function    : becke
 partition sharpness   :                     3
  

 biggest AO integral is expected to be     4.161848376
  
           ------------------------
               RI-J - INFORMATION
           ------------------------
 Contributions to RI integral batches: 
  neglected integral batches:                 10125
  direct contribution:                        23512
  memory contribution:                  8558
 Memory core needed for (P|Q) and Cholesky      4 MByte
 Memory core minimum needed except of (P|Q)     1 MByte
 Total minimum memory core needed (sum)         5 MByte
  
 ****************************************
 Memory allocated for RI-J   235 MByte
 ****************************************
                                            

          ------------------------
          nuclear repulsion energy  :   630.674434831    
          ------------------------


         -----------------
         -S,T+V- integrals
         -----------------

 1e-integrals will be neglected if expon. factor < 0.272813E-14
 Difference densities >>NOT<< switched on in parallel ridft!

 DIIS switched on: error vector is FDS-SDF
 Max. Iterations for DIIS is     :   4
 DIIS matrix (see manual) 
    Scaling factor of diagonals  :  1.200
    threshold for scaling factor :  0.000

 scf convergence criterion : increment of total energy < .1000000D-08
                  and increment of one-electron energy < .1000000D-05

  MOs are in ASCII format !


 automatic virtual orbital shift switched on 
      shift if e(lumo)-e(homo) < 0.10000000    


 reading orbital data $scfmo  from file mos
 orbital characterization : expanded
 mo provided and orthogonalized by Cholesky decomposition

 DSCF restart information will be dumped onto file mos


 Starting SCF iterations

          Overall gridpoints after grid construction =        110989

 ITERATION  ENERGY          1e-ENERGY        2e-ENERGY     RMS[dD(SAO)]   TOL
   1  -479.06394749852    -1878.6288164     768.89043402    0.000D+00 0.272D-13
                            Exc = -68.9418880821     Coul =  837.832322102    
                              N = 83.999922582    
                            current damping = 0.700
 
          max. resid. norm for Fia-block=  2.906D-01 for orbital     29a         
          max. resid. fock norm         =  7.509D+00 for orbital    921a         

 ITERATION  ENERGY          1e-ENERGY        2e-ENERGY     RMS[dD(SAO)]   TOL
   2  -480.45818439330    -1892.5417138     781.40909453    0.580D-02 0.272D-13
                            Exc = -70.1506498167     Coul =  851.559744346    
                              N = 83.999943927    
                            current damping = 0.650
 
          Norm of current diis error:  3.9727    
          max. resid. norm for Fia-block=  1.395D-01 for orbital      1a         
          max. resid. fock norm         =  2.203D-01 for orbital    887a         

 ITERATION  ENERGY          1e-ENERGY        2e-ENERGY     RMS[dD(SAO)]   TOL
   3  -480.71690642268    -1895.4693272     784.07798597    0.225D-02 0.272D-13
                            Exc = -70.5558299976     Coul =  854.633815965    
                              N = 83.999951135    
                            current damping = 0.550
 
          Norm of current diis error:  1.9368    
          max. resid. norm for Fia-block=  5.810D-02 for orbital     42a         
          max. resid. fock norm         =  6.183D-02 for orbital     14a         

 ITERATION  ENERGY          1e-ENERGY        2e-ENERGY     RMS[dD(SAO)]   TOL
   4  -480.79898335704    -1897.6708739     786.19745571    0.106D-02 0.272D-13
                            Exc = -70.7591149638     Coul =  856.956570671    
                              N = 83.999957147    
                            current damping = 0.450
 
          Norm of current diis error: 0.74099    
          max. resid. norm for Fia-block=  2.954D-02 for orbital     13a         
          max. resid. fock norm         =  5.451D-02 for orbital    938a         

 ITERATION  ENERGY          1e-ENERGY        2e-ENERGY     RMS[dD(SAO)]   TOL
   5  -480.80924777250    -1898.6406015     787.15691893    0.478D-03 0.272D-13
                            Exc = -70.8892096138     Coul =  858.046128542    
                              N = 83.999959939    
                            current damping = 0.350
 
          Norm of current diis error: 0.44663    
          max. resid. norm for Fia-block=  1.739D-02 for orbital     42a         
          max. resid. fock norm         =  1.983D-02 for orbital     42a         
          mo-orthogonalization: Cholesky decomposition

 ITERATION  ENERGY          1e-ENERGY        2e-ENERGY     RMS[dD(SAO)]   TOL
   6  -480.81388570774    -1898.6459592     787.15763869    0.374D-03 0.272D-13
                            Exc = -70.8893340730     Coul =  858.046972759    
                              N = 83.999960569    
                            current damping = 0.200
 
          Norm of current diis error: 0.19335    
          max. resid. norm for Fia-block=  4.493D-03 for orbital     38a         
          max. resid. fock norm         =  9.769D-03 for orbital    882a         

 ITERATION  ENERGY          1e-ENERGY        2e-ENERGY     RMS[dD(SAO)]   TOL
   7  -480.81462157963    -1898.8197691     787.33071269    0.749D-04 0.272D-13
                            Exc = -70.9055919050     Coul =  858.236304594    
                              N = 83.999960678    
                            current damping = 0.050
 
          Norm of current diis error: 0.88678E-01
          max. resid. norm for Fia-block=  1.937D-03 for orbital     38a         
          max. resid. fock norm         =  3.770D-03 for orbital    979a         

 ITERATION  ENERGY          1e-ENERGY        2e-ENERGY     RMS[dD(SAO)]   TOL
   8  -480.81470812457    -1898.8220959     787.33295292    0.327D-04 0.272D-13
                            Exc = -70.9092664755     Coul =  858.242219391    
                              N = 83.999960811    
                            current damping = 0.050
 
          Norm of current diis error: 0.65202E-01
          max. resid. norm for Fia-block=  1.016D-03 for orbital     40a         
          max. resid. fock norm         =  2.258D-03 for orbital    981a         

 ITERATION  ENERGY          1e-ENERGY        2e-ENERGY     RMS[dD(SAO)]   TOL
   9  -480.81479550794    -1898.8025135     787.31328315    0.175D-04 0.272D-13
                            Exc = -70.9066826433     Coul =  858.219965793    
                              N = 83.999960719    
                            current damping = 0.100
 
          Norm of current diis error: 0.20366E-01
          max. resid. norm for Fia-block=  5.348D-04 for orbital     40a         
          max. resid. fock norm         =  1.208D-03 for orbital    981a         

 ITERATION  ENERGY          1e-ENERGY        2e-ENERGY     RMS[dD(SAO)]   TOL
  10  -480.81479929009    -1898.8109564     787.32172231    0.686D-05 0.272D-13
                            Exc = -70.9072510694     Coul =  858.228973379    
                              N = 83.999960753    
                            current damping = 0.150
 
          Norm of current diis error: 0.16075E-01
          max. resid. norm for Fia-block=  2.345D-04 for orbital     40a         
          max. resid. fock norm         =  5.280D-04 for orbital    981a         
          mo-orthogonalization: Cholesky decomposition

 ITERATION  ENERGY          1e-ENERGY        2e-ENERGY     RMS[dD(SAO)]   TOL
  11  -480.81480492196    -1898.8148271     787.32558735    0.393D-05 0.272D-13
                            Exc = -70.9075409651     Coul =  858.233128314    
                              N = 83.999960726    
                            current damping = 0.050
 
          Norm of current diis error: 0.40108E-02
          max. resid. norm for Fia-block=  1.512D-04 for orbital     42a         
          max. resid. fock norm         =  2.290D-04 for orbital    936a         

 ITERATION  ENERGY          1e-ENERGY        2e-ENERGY     RMS[dD(SAO)]   TOL
  12  -480.81480487461    -1898.8081082     787.31886853    0.306D-05 0.272D-13
                            Exc = -70.9069869320     Coul =  858.225855467    
                              N = 83.999960731    
                            current damping = 0.100
 
          Norm of current diis error: 0.42072E-02
          max. resid. norm for Fia-block=  7.139D-05 for orbital     38a         
          max. resid. fock norm         =  1.022D-04 for orbital     38a         

 ITERATION  ENERGY          1e-ENERGY        2e-ENERGY     RMS[dD(SAO)]   TOL
  13  -480.81480529154    -1898.8091415     787.31990134    0.123D-05 0.272D-13
                            Exc = -70.9071384888     Coul =  858.227039829    
                              N = 83.999960731    
                            current damping = 0.150
 
          Norm of current diis error: 0.90127E-03
          max. resid. norm for Fia-block=  2.290D-05 for orbital     42a         
          max. resid. fock norm         =  3.084D-05 for orbital    957a         

 ITERATION  ENERGY          1e-ENERGY        2e-ENERGY     RMS[dD(SAO)]   TOL
  14  -480.81480530603    -1898.8112102     787.32197008    0.403D-06 0.272D-13
                            Exc = -70.9072704502     Coul =  858.229240532    
                              N = 83.999960729    
                            current damping = 0.050
 
          Norm of current diis error: 0.40895E-03
          max. resid. norm for Fia-block=  9.110D-06 for orbital     39a         
          max. resid. fock norm         =  1.599D-05 for orbital    983a         

 ITERATION  ENERGY          1e-ENERGY        2e-ENERGY     RMS[dD(SAO)]   TOL
  15  -480.81480530850    -1898.8106582     787.32141810    0.135D-06 0.272D-13
                            Exc = -70.9072325068     Coul =  858.228650608    
                              N = 83.999960729    
                            current damping = 0.100
 
          Norm of current diis error: 0.24387E-03
          max. resid. norm for Fia-block=  5.036D-06 for orbital     41a         
          max. resid. fock norm         =  1.068D-05 for orbital    981a         
          mo-orthogonalization: Cholesky decomposition

 DENSITY CONVERGED !


 ITERATION  ENERGY          1e-ENERGY        2e-ENERGY     RMS[dD(SAO)]   TOL
  16  -480.81480530956    -1898.8105729     787.32133279    0.680D-07 0.272D-13
                            Exc = -70.9072336151     Coul =  858.228566401    
                              N = 83.999960729    
                            current damping = 0.050
 
          Norm of current diis error: 0.12502E-03
          max. resid. norm for Fia-block=  2.241D-06 for orbital     41a         
          max. resid. fock norm         =  4.880D-06 for orbital    981a         

 DENSITY CONVERGED !


 ITERATION  ENERGY          1e-ENERGY        2e-ENERGY     RMS[dD(SAO)]   TOL
  17  -480.81480530985    -1898.8106931     787.32145293    0.393D-07 0.272D-13
                            Exc = -70.9072370674     Coul =  858.228689993    
                              N = 83.999960729    
                            current damping = 0.100
 
          Norm of current diis error: 0.54162E-04
          max. resid. norm for Fia-block=  1.080D-06 for orbital     39a         
          max. resid. fock norm         =  1.929D-06 for orbital    983a         

 ENERGY & DENSITY CONVERGED !

          Overall gridpoints after grid construction =        356855

 ITERATION  ENERGY          1e-ENERGY        2e-ENERGY     RMS[dD(SAO)]   TOL
  18  -480.81461852386    -1898.8106965     787.32164313    0.209D-07 0.272D-13
                            Exc = -70.9070518359     Coul =  858.228694967    
                              N = 84.000008158    
                            current damping = 0.050
 
          Norm of current diis error: 0.20061E-04
          max. resid. norm for Fia-block=  4.011D-07 for orbital     42a         
          max. resid. fock norm         =  5.862D-07 for orbital    983a         

 End of SCF iterations

   convergence criteria satisfied after    18 iterations


                  ------------------------------------------ 
                 |  total energy      =   -480.81461852386  |
                  ------------------------------------------ 
                 :  kinetic energy    =    478.70035328040  :
                 :  potential energy  =   -959.51497180425  :
                 :  virial theorem    =      1.99560274342  :
                 :  wavefunction norm =      1.00000000000  :
                  .......................................... 


 <geterg> : there is no data group $energy 


 <skperg> : $end is missing 


 orbitals $scfmo  will be written to file mos

    irrep                 38a         39a         40a         41a         42a   
 eigenvalues H         -0.26203    -0.24054    -0.22974    -0.22663    -0.21696
            eV          -7.1302     -6.5456     -6.2515     -6.1670     -5.9038
 occupation              2.0000      2.0000      2.0000      2.0000      2.0000 

    irrep                 43a         44a         45a         46a         47a   
 eigenvalues H         -0.05561    -0.04290    -0.03525    -0.03371     0.00792
            eV          -1.5131     -1.1674     -0.9591     -0.9172      0.2154
 
 
 
 
 ==============================================================================
                           electrostatic moments
 ==============================================================================

 reference point for electrostatic moments:    0.00000   0.00000   0.00000

 
              nuc           elec       ->  total
 ------------------------------------------------------------------------------
                          charge      
 ------------------------------------------------------------------------------
          84.000000     -84.000000       0.000000
 
 ------------------------------------------------------------------------------
                       dipole moment  
 ------------------------------------------------------------------------------
   x     -79.040950      79.863715       0.822765
   y       1.684186      -1.639240       0.044946
   z     284.490536    -284.504317      -0.013781
 
   | dipole moment | =     0.8241 a.u. =     2.0947 debye 
 
 ------------------------------------------------------------------------------
                     quadrupole moment
 ------------------------------------------------------------------------------
  xx     511.459975    -565.784947     -54.324972
  yy     372.684179    -419.387080     -46.702901
  zz    1958.561654   -2015.451040     -56.889386
  xy     -38.227901      38.274084       0.046183
  xz    -525.515936     531.435304       5.919367
  yz     212.207687    -209.857507       2.350181
 
     1/3  trace=     -52.639086
     anisotropy=      14.349616
 
 ==============================================================================
 


    ------------------------------------------------------------------------
         total  cpu-time : 26 minutes and 39 seconds
         total wall-time :  3 minutes and 46 seconds
    ------------------------------------------------------------------------

   ****  ridft : all done  ****


    2018-04-24 21:20:32.758 

