           Doing BLAS/Lapack in the master proc. with  8 CPUs.
           SMPCPUS    set: Shared-memory Parallelization with   8 CPUs.

           SMP Parallelization Reference:
           C. van Wullen, J. Comput. Chem. 32 (2011) 1195--1201
 operating system is UNIX !

 ridft (c-18-313.gp.local) : TURBOMOLE V7.2 ( 21454 ) 4 Oct 2017 at 12:48:15
 Copyright (C) 2017 TURBOMOLE GmbH, Karlsruhe


    2018-04-24 21:17:59.483 



                                  r i d f t

                        DFT program with RI approximation 
                                for coulomb part 




                                                 
                                 References:     
                                                 
          TURBOMOLE:                             
              R. Ahlrichs, M. Baer, M. Haeser, H. Horn, and
              C. Koelmel
              Electronic structure calculations on workstation
              computers: the program system TURBOMOLE
              Chem. Phys. Lett. 162: 165 (1989)
          Density Functional:                              
              O. Treutler and R. Ahlrichs                      
              Efficient Molecular Numerical Integration Schemes
              J. Chem. Phys. 102: 346 (1995)                   
          Parallel Version:                                
              Performance of parallel TURBOMOLE for Density    
              Functional Calculations                          
              M. v. Arnim and R. Ahlrichs                      
              J. Comp. Chem. 19: 1746 (1998)                   
          RI-J Method:                                     
              Auxiliary Basis Sets to approximate Coulomb      
              Potentials                                       
              Chem. Phys. Lett. 240: 283 (1995)                
              K. Eichkorn, O. Treutler, H. Oehm, M. Haeser     
              and R. Ahlrichs                                  
              Chem. Phys. Lett. 242: 652 (1995)                
                                                           
              Auxiliary Basis Sets for Main Row Atoms and their
              Use to approximate Coulomb Potentials            
              K. Eichkorn, F. Weigend, O. Treutler and         
              R. Ahlrichs                                      
              Theo. Chem. Acc. 97: 119 (1997)                   
                                                           
              Accurate Coulomb-fitting basis sets for H to Rn 
              F. Weigend                                        
              Phys. Chem. Chem. Phys. 8: 1057 (2006)            
                                                           
          Multipole accelerated RI-J (MARI-J):             
              Fast evaluation of the Coulomb potential for     
              electron densities using multipole accelerated   
              resolution of identity approximation             
              M. Sierka, A. Hogekamp and R. Ahlrichs           
              J. Chem. Phys. 118: 9136 (2003)                  
          RI-JK Method:                                     
              A fully direct RI-HF algorithm: Implementation,
              optimised auxiliary basis sets, demonstration of
              accuracy and efficiency                         
              F. Weigend                                      
              Phys. Chem. Chem. Phys. 4: 4285 (2002)           
          Two-component HF and DFT with spin-orbit coupling:  
              Self-consistent treatment of spin-orbit         
              interactions with efficient Hartree-Fock and    
              density functional methods                      
              M. K. Armbruster, F. Weigend, C. van Wüllen and 
              W. Klopper                                      
              Phys. Chem. Chem. Phys. 10: 1748 (2008)         
          Relativistic all-electron 2c calculations           
              An efficient implementation of two-component    
              relativistic exact-decoupling methods for large 
              molecules                                       
              D. Peng, N. Middendorf, F. Weigend, M. Reiher   
              J. Chem. Phys. 138, 184105 (2013)               
                                         




              +--------------------------------------------------+
              |      general information about current run       |
              +--------------------------------------------------+

 

 DENSITY CONVERGENCE CHECK SWITCHED ON !
 SCF CONVERGENCE IF RMS(delta[D]) <     0.1000000000E-06

 TPSS meta-GGA functional
 exchange:    LDA + TPSS
 correlation: LDA (PW) + TPSS
 A DFT calculation using the RI-J approximation will be carried out.
 Allocatable memory for RI due to $ricore (MB):                   500


              +--------------------------------------------------+
              | Atomic coordinate, charge and isotop information |
              +--------------------------------------------------+

                    atomic coordinates            atom    charge  isotop
          0.58950673    1.06018046    0.93862482    c      6.000     0
          1.40243394    2.93544219    0.91002730    h      1.000     0
          2.15841183   -1.05460817    1.01301008    c      6.000     0
          4.18859936   -0.82061384    1.04379050    h      1.000     0
          1.11078885   -3.47083551    1.04718106    c      6.000     0
          2.32797704   -5.11140972    1.10590890    h      1.000     0
         -1.50546492   -3.77260317    1.00715411    c      6.000     0
         -2.31826769   -5.64734124    1.03677384    h      1.000     0
         -3.07438216   -1.65818489    0.93384272    c      6.000     0
         -5.10438105   -1.89227720    0.90671891    h      1.000     0
         -2.02704355    0.75816928    0.89946045    c      6.000     0
         -3.24460982    2.39882056    0.84266658    h      1.000     0
          0.32213778    0.95645082    9.13624764    c      6.000     0
          3.05515170    1.29430996    8.27649503    c      6.000     0
          3.84100701    3.05794955    9.00105945    h      1.000     0
          4.23320569   -0.25642883    8.95463056    h      1.000     0
          3.16968637    1.33095418    6.21870758    h      1.000     0
          0.21935298    0.89716796   12.01782548    c      6.000     0
         -1.71910923    0.65637825   12.67750577    h      1.000     0
          1.34450708   -0.66315409   12.75964453    h      1.000     0
          0.95312322    2.65061578   12.81700121    h      1.000     0
         -0.71604003   -1.51813039    8.07744161    c      6.000     0
         -2.67166772   -1.80210905    8.66830528    h      1.000     0
          0.39220229   -3.12245829    8.74982746    h      1.000     0
         -0.66165403   -1.51898601    6.01704629    h      1.000     0
         -1.26782636    3.15717237    8.16076067    c      6.000     0
         -1.22711985    3.22525994    6.10096190    h      1.000     0
         -3.23274309    2.96107630    8.75504643    h      1.000     0
         -0.55794583    4.95372455    8.88283808    h      1.000     0
 
       center of nuclear mass  :   -0.08327502   -0.24547299    4.89158483
       center of nuclear charge:   -0.06782380   -0.19964315    5.05353241

              +--------------------------------------------------+
              |               basis set information              |
              +--------------------------------------------------+

              we will work with the 1s 3p 5d 7f 9g ... basis set
              ...i.e. with spherical basis functions...

   type   atoms  prim   cont   basis
   ---------------------------------------------------------------------------
    c       11     77     57   def2-QZVP   [7s4p3d2f1g|15s8p3d2f1g]
    h       18     33     30   def2-QZVP   [4s3p2d1f|7s3p2d1f]
   ---------------------------------------------------------------------------
   total:   29   1441   1167
   ---------------------------------------------------------------------------

   total number of primitive shells          :   42
   total number of contracted shells         :  367
   total number of cartesian basis functions : 1422
   total number of SCF-basis functions       : 1167


 integral neglect threshold       :  0.23E-13
 integral storage threshold THIZE :  0.10E-04
 integral storage threshold THIME :         5

 RI-J AUXILIARY BASIS SET information:

              we will work with the 1s 3p 5d 7f 9g ... basis set
              ...i.e. with spherical basis functions...

   type   atoms  prim   cont   basis
   ---------------------------------------------------------------------------
    c       11     70     49   def2-QZVP   [6s4p3d1f1g|12s5p4d2f1g]
    h       18     16     11   def2-QZVP   [3s1p1d|5s2p1d]
   ---------------------------------------------------------------------------
   total:   29   1058    737
   ---------------------------------------------------------------------------

   total number of primitive shells          :   32
   total number of contracted shells         :  255
   total number of cartesian basis functions :  887
   total number of SCF-basis functions       :  737


 symmetry group of the molecule :   c1 

 the group has the following generators :
   c1(z)

    1 symmetry operations found

 there are 1 real representations :   a   

 maximum number of shells which are related by symmetry :  1


    mo occupation :
   irrep   mo's   occupied
    a     1167       42
 
 number of basis functions   :                   1167
 number of occupied orbitals :                     42
 
  
           ------------------
           density functional
           ------------------
 TPSS meta-GGA functional
 exchange:    LDA + TPSS
 correlation: LDA (PW) + TPSS

 iterations will be done with small grid
  
 spherical integration : Lebedev's spherical grid
 spherical gridsize    :                     5
    i.e. gridpoints    :                   590
 value for diffuse not defined
 radial integration    : Chebyshev 2nd kind (scaling 3)
 radial gridsize       :                     8
 integration cells     :                    29
 partition function    : becke
 partition sharpness   :                     3
  

 biggest AO integral is expected to be     5.262544080
  
           ------------------------
               RI-J - INFORMATION
           ------------------------
 Contributions to RI integral batches: 
  neglected integral batches:                 19399
  direct contribution:                        35385
  memory contribution:                 12744
 Memory core needed for (P|Q) and Cholesky      5 MByte
 Memory core minimum needed except of (P|Q)     1 MByte
 Total minimum memory core needed (sum)         5 MByte
  
 ****************************************
 Memory allocated for RI-J   329 MByte
 ****************************************
                                            

          ------------------------
          nuclear repulsion energy  :   598.081680146    
          ------------------------


         -----------------
         -S,T+V- integrals
         -----------------

 1e-integrals will be neglected if expon. factor < 0.235018E-14
 Difference densities >>NOT<< switched on in parallel ridft!

 DIIS switched on: error vector is FDS-SDF
 Max. Iterations for DIIS is     :   4
 DIIS matrix (see manual) 
    Scaling factor of diagonals  :  1.200
    threshold for scaling factor :  0.000

 scf convergence criterion : increment of total energy < .1000000D-08
                  and increment of one-electron energy < .1000000D-05

  MOs are in ASCII format !


 automatic virtual orbital shift switched on 
      shift if e(lumo)-e(homo) < 0.10000000    


 reading orbital data $scfmo  from file mos
 orbital characterization : expanded
 mo provided and orthogonalized by Cholesky decomposition

 DSCF restart information will be dumped onto file mos


 Starting SCF iterations

          Overall gridpoints after grid construction =        128783

 ITERATION  ENERGY          1e-ENERGY        2e-ENERGY     RMS[dD(SAO)]   TOL
   1  -428.79390386928    -1745.2775791     718.40199513    0.000D+00 0.234D-13
                            Exc = -64.4811550278     Coul =  782.883150157    
                              N = 84.000259331    
                            current damping = 0.700
 
          max. resid. norm for Fia-block=  5.207D-01 for orbital     12a         
          max. resid. fock norm         =  4.321D+01 for orbital    996a         

 ITERATION  ENERGY          1e-ENERGY        2e-ENERGY     RMS[dD(SAO)]   TOL
   2  -429.95282249823    -1758.1583674     730.12386477    0.365D-02 0.234D-13
                            Exc = -65.7824405875     Coul =  795.906305354    
                              N = 84.000218477    
                            current damping = 0.650
 
          Norm of current diis error:  4.0772    
          max. resid. norm for Fia-block=  1.112D-01 for orbital      6a         
          max. resid. fock norm         =  1.641D-01 for orbital    951a         

 ITERATION  ENERGY          1e-ENERGY        2e-ENERGY     RMS[dD(SAO)]   TOL
   3  -430.19174390799    -1760.5245213     732.25109722    0.177D-02 0.234D-13
                            Exc = -66.1950426033     Coul =  798.446139819    
                              N = 84.000197782    
                            current damping = 0.550
 
          Norm of current diis error:  1.9553    
          max. resid. norm for Fia-block=  5.522D-02 for orbital     12a         
          max. resid. fock norm         =  6.251D-02 for orbital     12a         

 ITERATION  ENERGY          1e-ENERGY        2e-ENERGY     RMS[dD(SAO)]   TOL
   4  -430.26261476670    -1763.2720299     734.92773499    0.910D-03 0.234D-13
                            Exc = -66.5052113968     Coul =  801.432946389    
                              N = 84.000185711    
                            current damping = 0.450
 
          Norm of current diis error: 0.71276    
          max. resid. norm for Fia-block=  2.097D-02 for orbital     12a         
          max. resid. fock norm         =  2.314D-02 for orbital     12a         

 ITERATION  ENERGY          1e-ENERGY        2e-ENERGY     RMS[dD(SAO)]   TOL
   5  -430.27373135707    -1763.5047134     735.14930193    0.416D-03 0.234D-13
                            Exc = -66.5948442006     Coul =  801.744146130    
                              N = 84.000180594    
                            current damping = 0.300
 
          Norm of current diis error: 0.27776    
          max. resid. norm for Fia-block=  7.895D-03 for orbital     22a         
          max. resid. fock norm         =  9.125D-03 for orbital     22a         
          mo-orthogonalization: Cholesky decomposition

 ITERATION  ENERGY          1e-ENERGY        2e-ENERGY     RMS[dD(SAO)]   TOL
   6  -430.27536611268    -1764.2576726     735.90062637    0.158D-03 0.234D-13
                            Exc = -66.6588923576     Coul =  802.559518723    
                              N = 84.000178719    
                            current damping = 0.200
 
          Norm of current diis error: 0.10702    
          max. resid. norm for Fia-block=  3.080D-03 for orbital     39a         
          max. resid. fock norm         =  5.886D-03 for orbital   1160a         

 ITERATION  ENERGY          1e-ENERGY        2e-ENERGY     RMS[dD(SAO)]   TOL
   7  -430.27556182740    -1764.0257798     735.66853781    0.569D-04 0.234D-13
                            Exc = -66.6550914044     Coul =  802.323629218    
                              N = 84.000178103    
                            current damping = 0.250
 
          Norm of current diis error: 0.46586E-01
          max. resid. norm for Fia-block=  1.069D-03 for orbital     42a         
          max. resid. fock norm         =  2.601D-03 for orbital   1159a         

 ITERATION  ENERGY          1e-ENERGY        2e-ENERGY     RMS[dD(SAO)]   TOL
   8  -430.27559002457    -1764.0770371     735.71976689    0.110D-04 0.234D-13
                            Exc = -66.6579976274     Coul =  802.377764514    
                              N = 84.000178038    
                            current damping = 0.300
 
          Norm of current diis error: 0.25673E-01
          max. resid. norm for Fia-block=  6.315D-04 for orbital     42a         
          max. resid. fock norm         =  1.585D-03 for orbital   1159a         

 ITERATION  ENERGY          1e-ENERGY        2e-ENERGY     RMS[dD(SAO)]   TOL
   9  -430.27560375165    -1764.1023352     735.74505126    0.440D-05 0.234D-13
                            Exc = -66.6596909504     Coul =  802.404742208    
                              N = 84.000178030    
                            current damping = 0.150
 
          Norm of current diis error: 0.65537E-02
          max. resid. norm for Fia-block=  1.597D-04 for orbital     42a         
          max. resid. fock norm         =  3.624D-04 for orbital   1159a         

 ITERATION  ENERGY          1e-ENERGY        2e-ENERGY     RMS[dD(SAO)]   TOL
  10  -430.27560435848    -1764.1080659     735.75078139    0.161D-05 0.234D-13
                            Exc = -66.6600455702     Coul =  802.410826957    
                              N = 84.000177986    
                            current damping = 0.050
 
          Norm of current diis error: 0.40924E-02
          max. resid. norm for Fia-block=  7.998D-05 for orbital     29a         
          max. resid. fock norm         =  1.154D-04 for orbital     29a         
          mo-orthogonalization: Cholesky decomposition

 ITERATION  ENERGY          1e-ENERGY        2e-ENERGY     RMS[dD(SAO)]   TOL
  11  -430.27560466764    -1764.0996789     735.74239411    0.814D-06 0.234D-13
                            Exc = -66.6595888334     Coul =  802.401982939    
                              N = 84.000178004    
                            current damping = 0.100
 
          Norm of current diis error: 0.87742E-03
          max. resid. norm for Fia-block=  1.871D-05 for orbital     28a         
          max. resid. fock norm         =  2.651D-05 for orbital   1113a         

 ITERATION  ENERGY          1e-ENERGY        2e-ENERGY     RMS[dD(SAO)]   TOL
  12  -430.27560468063    -1764.1023170     735.74503213    0.196D-06 0.234D-13
                            Exc = -66.6597242477     Coul =  802.404756378    
                              N = 84.000178000    
                            current damping = 0.150
 
          Norm of current diis error: 0.26910E-03
          max. resid. norm for Fia-block=  9.412D-06 for orbital     40a         
          max. resid. fock norm         =  2.028D-05 for orbital   1160a         

 DENSITY CONVERGED !


 ITERATION  ENERGY          1e-ENERGY        2e-ENERGY     RMS[dD(SAO)]   TOL
  13  -430.27560468087    -1764.1016079     735.74432304    0.666D-07 0.234D-13
                            Exc = -66.6596976033     Coul =  802.404020644    
                              N = 84.000177999    
                            current damping = 0.200
 
          Norm of current diis error: 0.23473E-03
          max. resid. norm for Fia-block=  3.805D-06 for orbital     41a         
          max. resid. fock norm         =  9.359D-06 for orbital   1159a         

 DENSITY CONVERGED !


 ITERATION  ENERGY          1e-ENERGY        2e-ENERGY     RMS[dD(SAO)]   TOL
  14  -430.27560468193    -1764.1017366     735.74445176    0.335D-07 0.234D-13
                            Exc = -66.6597001100     Coul =  802.404151871    
                              N = 84.000177999    
                            current damping = 0.250
 
          Norm of current diis error: 0.45428E-04
          max. resid. norm for Fia-block=  1.290D-06 for orbital     42a         
          max. resid. fock norm         =  3.275D-06 for orbital   1159a         

 ENERGY & DENSITY CONVERGED !

          Overall gridpoints after grid construction =        424730

 ITERATION  ENERGY          1e-ENERGY        2e-ENERGY     RMS[dD(SAO)]   TOL
  15  -430.27534908766    -1764.1017507     735.74472149    0.920D-08 0.234D-13
                            Exc = -66.6594444658     Coul =  802.404165960    
                              N = 84.000029235    
                            current damping = 0.100
 
          Norm of current diis error: 0.26011E-04
          max. resid. norm for Fia-block=  4.058D-07 for orbital     42a         
          max. resid. fock norm         =  9.640D-07 for orbital   1159a         

 End of SCF iterations

   convergence criteria satisfied after    15 iterations


                  ------------------------------------------ 
                 |  total energy      =   -430.27534908766  |
                  ------------------------------------------ 
                 :  kinetic energy    =    428.29564431126  :
                 :  potential energy  =   -858.57099339892  :
                 :  virial theorem    =      1.99539898165  :
                 :  wavefunction norm =      1.00000000000  :
                  .......................................... 


 <geterg> : there is no data group $energy 


 <skperg> : $end is missing 


 orbitals $scfmo  will be written to file mos

    irrep                 38a         39a         40a         41a         42a   
 eigenvalues H         -0.27767    -0.27722    -0.27575    -0.23412    -0.23398
            eV          -7.5558     -7.5435     -7.5035     -6.3708     -6.3669
 occupation              2.0000      2.0000      2.0000      2.0000      2.0000 

    irrep                 43a         44a         45a         46a         47a   
 eigenvalues H         -0.04038    -0.04019     0.00304     0.02188     0.03113
            eV          -1.0988     -1.0937      0.0827      0.5954      0.8470
 
 
 
 
 ==============================================================================
                           electrostatic moments
 ==============================================================================

 reference point for electrostatic moments:    0.00000   0.00000   0.00000

 
              nuc           elec       ->  total
 ------------------------------------------------------------------------------
                          charge      
 ------------------------------------------------------------------------------
          84.000000     -84.000000       0.000000
 
 ------------------------------------------------------------------------------
                       dipole moment  
 ------------------------------------------------------------------------------
   x      -5.697199       5.675303      -0.021896
   y     -16.770025      16.709471      -0.060554
   z     424.496723    -424.649927      -0.153205
 
   | dipole moment | =     0.1662 a.u. =     0.4224 debye 
 
 ------------------------------------------------------------------------------
                     quadrupole moment
 ------------------------------------------------------------------------------
  xx     337.315384    -387.821667     -50.506282
  yy     439.786496    -490.329176     -50.542680
  zz    3677.760099   -3735.613454     -57.853354
  xy      39.098691     -39.115176      -0.016484
  xz     108.337319    -108.367550      -0.030231
  yz     307.639902    -308.114000      -0.474099
 
     1/3  trace=     -52.967439
     anisotropy=       7.375042
 
 ==============================================================================
 


    ------------------------------------------------------------------------
         total  cpu-time : 28 minutes and 57 seconds
         total wall-time :  4 minutes and 14 seconds
    ------------------------------------------------------------------------

   ****  ridft : all done  ****


    2018-04-24 21:22:13.261 

