
   OpenMP run-time library returned nthreads = 28

 ricc2 (c-16-18) : TURBOMOLE V7.3 ( 22142 ) 4 Jul 2018 at 18:12:42
 Copyright (C) 2018 TURBOMOLE GmbH, Karlsruhe


    2019-04-01 22:44:20.480 



                              R I C C 2 - PROGRAM

                          the quantum chemistry groups
                             at the universities in
                           Karlsruhe, Bochum & Mainz
                                   Germany



   *-----------------------------------------------------------------------*
   |                     program will use 28 thread(s)                     |
   *-----------------------------------------------------------------------*


              +--------------------------------------------------+
              | Atomic coordinate, charge and isotop information |
              +--------------------------------------------------+

                    atomic coordinates            atom    charge  isotop
         -0.00098493    0.12088822    9.90463354    c      6.000     0
          0.00104037   -0.14392119   12.77651262    c      6.000     0
         -1.67521479    0.73305544   13.59546212    h      1.000     0
          0.01852317   -2.12960808   13.33022103    h      1.000     0
          1.66146755    0.76251347   13.59597926    h      1.000     0
         -2.34321607   -1.16724743    8.82012253    c      6.000     0
         -2.38724521   -0.99914283    6.76631301    h      1.000     0
         -2.36605460   -3.17276917    9.29824818    h      1.000     0
         -4.06465023   -0.31254082    9.56672520    h      1.000     0
          2.36609568   -1.12168382    8.82093166    c      6.000     0
          2.40639747   -0.95484809    6.76685423    h      1.000     0
          2.42870332   -3.12585336    9.30109655    h      1.000     0
          4.07027383   -0.23229686    9.56627956    h      1.000     0
         -0.02790951    2.91729077    9.19670193    c      6.000     0
          1.63082783    3.88216040    9.95061786    h      1.000     0
         -0.02890011    3.15625594    7.14889701    h      1.000     0
         -1.70618654    3.84955637    9.94841257    h      1.000     0
 
       center of nuclear mass  :   -0.00099656    0.12111698    9.90363714
       center of nuclear charge:   -0.00099774    0.12115337    9.90353619

              +--------------------------------------------------+
              |               basis set information              |
              +--------------------------------------------------+

              we will work with the 1s 3p 5d 7f 9g ... basis set
              ...i.e. with spherical basis functions...

   type   atoms  prim   cont   basis
   ---------------------------------------------------------------------------
    c        5     77     55   cc-pVQZ   [5s4p3d2f1g|21s6p3d2f1g]
    h       12     32     30   cc-pVQZ   [4s3p2d1f|6s3p2d1f]
   ---------------------------------------------------------------------------
   total:   17    769    635
   ---------------------------------------------------------------------------

   total number of primitive shells          :   45
   total number of contracted shells         :  195
   total number of cartesian basis functions :  770
   total number of SCF-basis functions       :  635


 symmetry group of the molecule :   c1 

 the group has the following generators :
   c1(z)

    1 symmetry operations found

 there are 1 real representations :   a   


   =========================================================================


     restricted closed shell calculation for the wavefunction models:
               MP2        - Second Order Moeller Plesset PT


     global parameters for ricc2 program:

        hard restart (reuse of interm.) :  disabled
        soft restart (reuse of vectors) :  disabled
        threshold for vector function   :    0.100000E-05
        convergence threshold energy    :    0.100000E-06
        linear dependence threshold     :    0.100000E-13
        global print level              :      1
        maximum number of iterations    :   300
        maximum number DIIS vectors     :    10
        max. dim. of reduced space      :   100
        core memory limit (MB)          : *****


     MP2 energy only: Energy will be calculated directly from T2 amplitudes!

     Scratch Directory : 


   =========================================================================

    der. integral neglect threshold  :  0.10E-07
    integral neglect threshold       :  0.43E-11
    integral storage threshold THIZE :  0.10E-04
    integral storage threshold THIME :         5


                  +------------------------------------------+
                  |     Auxiliary basis set information      |
                  +------------------------------------------+

              we will work with the 1s 3p 5d 7f 9g ... basis set
              ...i.e. with spherical basis functions...

   type   atoms  prim   cont   basis
   ---------------------------------------------------------------------------
    c        5    132    132   cc-pVQZ   [8s7p6d5f3g1h|8s7p6d5f3g1h]
    h       12     55     55   cc-pVQZ   [5s4p3d2f1g|5s4p3d2f1g]
   ---------------------------------------------------------------------------
   total:   17   1320   1320
   ---------------------------------------------------------------------------

   total number of primitive shells          :   45
   total number of contracted shells         :  330
   total number of cartesian basis functions : 1745
   total number of SCF-basis functions       : 1320


 maximum number of shells which are related by symmetry :  1


 The symmetry information takes   1 MB

*---------------------------------------------------------------------*
|               simplified C1 algorithm will be applied               |
*---------------------------------------------------------------------*
  MOs are in ASCII format !


 reading orbital data $scfmo  from file mos
 orbital characterization : scfconv=9



              +--------------------------------------------+
              | list of orbitals that will be kept frozen: |
              +--------------------------------------------+
              |   irrep   index      energy     occ/vir    |
              +--------------------------------------------+
              |   a         1      -11.2256     occupied   |
              |   a         2      -11.2045     occupied   |
              |   a         3      -11.2045     occupied   |
              |   a         4      -11.2045     occupied   |
              |   a         5      -11.2045     occupied   |
              +--------------------------------------------+



   Molecular Orbital Statistic:
   ============================

   -----------------------------
   orbitals in total:
   -----------------------------
    frozen occupied :      5
    active occupied :     16
    active virtual  :    614
    frozen virtual  :      0
    all together    :    635
   -----------------------------


     time in riccmos       cpu:  7.62 sec    wall:  0.58 sec    ratio: 13.1

     total memory allocated for calculation of (Q|P)**(-1/2) : 20 MiB


     calculation of (P|Q) ...
     time in lp2sym        cpu:  2.67 sec    wall:  0.10 sec    ratio: 26.9


     calculation of the Cholesky decomposition of (P|Q)**(-1) ...
     time in invmetri      cpu:  7.25 sec    wall:  0.26 sec    ratio: 27.8

   threshold for RMS(d[D]) in SCF was     :  0.10E-06
   integral neglect threshold             :  0.43E-11
   derivative integral neglect threshold  :  0.10E-07


   =========================================================================

     Energy of reference wave function is  -196.4160923153000
     Maximum orbital residual is           0.6710103782165E-07


     Number of symmetry-nonredundant auxiliary basis functions:     1320

     Block lengths for integral files:
        frozen occupied (BOI):        1 MiB
        active occupied (BJI):        1 MiB
        active virtual  (BAI):        7 MiB
        frozen virtual  (BGI):        0 MiB
               general  (BTI):        7 MiB

   =========================================================================




   **************************************************************************
   *                                                                        *
   *          OPTIMIZATION OF THE GROUND STATE CLUSTER AMPLITUDES           *
   *                                                                        *
   **************************************************************************


   Iter.   MP2 energy       Norm(Omega)   Norm(t1)  Norm(t2)     cpu    wall
   ...........................................................................
    1   -197.3701851103     ------          0.00000   0.32699    1.17    0.04
   ...........................................................................


     time in total         cpu:  1 min 10 s  wall:  0 min  3 s  ratio: 27.3


     **********************************************************************
     *                                                                    *
     *   RHF  energy                             :   -196.4160923153      *
     *   MP2 correlation energy (doubles)        :     -0.9540927950      *
     *                                                                    *
     *   Final MP2 energy                        :   -197.3701851103      *
     *                                                                    *
     *    E(S)   =     -0.6502447980      E(T)   =     -0.3038479971      *
     *    E(OS)  =     -0.7515274637      E(SS)  =     -0.2025653314      *
     *                                                                    *
     *   SCS-MP2 energy                          :   -197.3854470488      *
     *   (computed with  C(OS) =   1.2000  and  C(SS) =   0.3333)         *
     *                                                                    *
     *   SOS-MP2 energy                          :   -197.3930780180      *
     *   (computed with  C(OS) =   1.3000)                                *
     *                                                                    *
     *   Norm of MP1 T2 amplitudes               :      0.3269938303      *
     *                                                                    *
     **********************************************************************



    ------------------------------------------------------------------------
         total  cpu-time :  2 minutes and 33 seconds
         total wall-time :   6.28 seconds
    ------------------------------------------------------------------------

   ****  ricc2 : all done  ****


    2019-04-01 22:44:26.713 

