 this is node-proc. number 0 running on node c-13-38.gp.local
 the total number of node-proc. spawned is  17

 dscfserver (c-13-38.gp.local) : TURBOMOLE V7.2 ( 21471 ) 7 Nov 2017 at 16:15:16
 Copyright (C) 2017 TURBOMOLE GmbH, Karlsruhe


    2018-02-14 23:12:46.409 

 
    0:00:19 ---- Start global counter...
    0:57:02 ---- ... finished.
 
    0:57:35 ---- Start global counter...
    1:42:28 ---- ... finished.
 
    1:43:00 ---- Start global counter...
    2:19:30 ---- ... finished.
 
    2:20:03 ---- Start global counter...
    2:49:40 ---- ... finished.
 
    2:50:11 ---- Start global counter...
    3:16:50 ---- ... finished.
 
    3:17:28 ---- Start global counter...
    3:37:51 ---- ... finished.
 
    3:38:23 ---- Start global counter...
    3:56:13 ---- ... finished.
 
    3:56:45 ---- ByeBye Tag received


 ! Total wall-clock time in seconds  :    14204.6
 ! Time (sec) spent in global counter:    13955.6
 ! So-called SERIAL wall-clock time  :      249.0

  *** Regular termination of server ***
 total turnaround time of dscfserver 14205.42 sec
 cpu elapsed by dscfserver process   13954.94 sec 

   ***  dscf server : all done  ***


    2018-02-15 03:09:31.829 

