
 eiger (gplogin3.local) : TURBOMOLE V7.2 ( 21285 ) 30 Jun 2017 at 11:51:10
 Copyright (C) 2017 TURBOMOLE GmbH, Karlsruhe


    2017-11-05 19:14:21.755 

                                                                                
  
 HOMO-LUMO Separation
   HOMO:    60.    60 a     -0.19061199 H =     -5.18682 eV
   LUMO:    61.    61 a     -0.07788793 H =     -2.11944 eV
   Gap :                    +0.11272406 H =     +3.06738 eV
 
Number of MOs=   1350, Electrons=    120.00, Symmetry: c1   
 
   Nr.   Orbital    Occupation       Energy
   77.    77 a                     +0.109347 H =        +2.975 eV
   76.    76 a                     +0.086905 H =        +2.365 eV
   75.    75 a                     +0.079760 H =        +2.170 eV
   74.    74 a                     +0.064493 H =        +1.755 eV
   73.    73 a                     +0.060890 H =        +1.657 eV
   72.    72 a                     +0.060568 H =        +1.648 eV
   71.    71 a                     +0.044207 H =        +1.203 eV
   70.    70 a                     +0.042581 H =        +1.159 eV
   69.    69 a                     +0.038549 H =        +1.049 eV
   68.    68 a                     +0.024977 H =        +0.680 eV
   67.    67 a                     +0.021595 H =        +0.588 eV
   66.    66 a                     +0.019657 H =        +0.535 eV
   65.    65 a                     -0.014015 H =        -0.381 eV
   64.    64 a                     -0.015066 H =        -0.410 eV
   63.    63 a                     -0.054340 H =        -1.479 eV
   62.    62 a                     -0.064550 H =        -1.756 eV
   61.    61 a                     -0.077888 H =        -2.119 eV
   60.    60 a        2.000        -0.190612 H =        -5.187 eV
   59.    59 a        2.000        -0.208106 H =        -5.663 eV
   58.    58 a        2.000        -0.221465 H =        -6.026 eV
   57.    57 a        2.000        -0.252178 H =        -6.862 eV
   56.    56 a        2.000        -0.258833 H =        -7.043 eV
   55.    55 a        2.000        -0.282884 H =        -7.698 eV
   54.    54 a        2.000        -0.290500 H =        -7.905 eV
   53.    53 a        2.000        -0.294818 H =        -8.022 eV
   52.    52 a        2.000        -0.307033 H =        -8.355 eV
   51.    51 a        2.000        -0.308845 H =        -8.404 eV
   50.    50 a        2.000        -0.317840 H =        -8.649 eV
   49.    49 a        2.000        -0.339091 H =        -9.227 eV
   48.    48 a        2.000        -0.347024 H =        -9.443 eV
   47.    47 a        2.000        -0.359720 H =        -9.788 eV
   46.    46 a        2.000        -0.359981 H =        -9.796 eV
   45.    45 a        2.000        -0.367383 H =        -9.997 eV


    ------------------------------------------------------------------------
         total  cpu-time :   0.87 seconds
         total wall-time :   0.96 seconds
    ------------------------------------------------------------------------

   ****  eiger : all done  ****


    2017-11-05 19:14:22.692 

