Using Slurm to start processes with PMI2
STARTING ridft ON 8 PROCESSORS!
RUNNING PROGRAM /modfac/apps/TURBOMOLE/7.0_intel_GA/bin/em64t-unknown-linux-gnu_mpi/ridft_mpi.
PLEASE WAIT UNTIL ridft HAS FINISHED.
Look for the output in slave1.output.
  this is node-proc. number 1 running on node c-16-38.local
  the total number of node-proc. spawned is            8
  parallel platform: MPP, or cluster with fast interconnect

 ridft (c-16-38.local) : TURBOMOLE V7.0.2( ) 15 Jan 2016 at 17:47:42
 Copyright (C) 2016 TURBOMOLE GmbH, Karlsruhe


    2016-02-15 18:59:26.962 



                                  r i d f t

                        DFT program with RI approximation 
                                for coulomb part 




                                                 
                                 References:     
                                                 
          TURBOMOLE:                             
              R. Ahlrichs, M. Baer, M. Haeser, H. Horn, and
              C. Koelmel
              Electronic structure calculations on workstation
              computers: the program system TURBOMOLE
              Chem. Phys. Lett. 162: 165 (1989)
          Density Functional:                              
              O. Treutler and R. Ahlrichs                      
              Efficient Molecular Numerical Integration Schemes
              J. Chem. Phys. 102: 346 (1995)                   
          Parallel Version:                                
              Performance of parallel TURBOMOLE for Density    
              Functional Calculations                          
              M. v. Arnim and R. Ahlrichs                      
              J. Comp. Chem. 19: 1746 (1998)                   
          RI-J Method:                                     
              Auxiliary Basis Sets to approximate Coulomb      
              Potentials                                       
              Chem. Phys. Lett. 240: 283 (1995)                
              K. Eichkorn, O. Treutler, H. Oehm, M. Haeser     
              and R. Ahlrichs                                  
              Chem. Phys. Lett. 242: 652 (1995)                
                                                           
              Auxiliary Basis Sets for Main Row Atoms and their
              Use to approximate Coulomb Potentials            
              K. Eichkorn, F. Weigend, O. Treutler and         
              R. Ahlrichs                                      
              Theo. Chem. Acc. 97: 119 (1997)                   
                                                           
              Accurate Coulomb-fitting basis sets for H to Rn 
              F. Weigend                                        
              Phys. Chem. Chem. Phys. 8: 1057 (2006)            
                                                           
          Multipole accelerated RI-J (MARI-J):             
              Fast evaluation of the Coulomb potential for     
              electron densities using multipole accelerated   
              resolution of identity approximation             
              M. Sierka, A. Hogekamp and R. Ahlrichs           
              J. Chem. Phys. 118: 9136 (2003)                  
          RI-JK Method:                                     
              A fully direct RI-HF algorithm: Implementation,
              optimised auxiliary basis sets, demonstration of
              accuracy and efficiency                         
              F. Weigend                                      
              Phys. Chem. Chem. Phys. 4: 4285 (2002)           
          Two-component HF and DFT with spin-orbit coupling:  
              Self-consistent treatment of spin-orbit         
              interactions with efficient Hartree-Fock and    
              density functional methods                      
              M. K. Armbruster, F. Weigend, C. van Wüllen and 
              W. Klopper                                      
              Phys. Chem. Chem. Phys. 10: 1748 (2008)         
          Relativistic all-electron 2c calculations           
              An efficient implementation of two-component    
              relativistic exact-decoupling methods for large 
              molecules                                       
              D. Peng, N. Middendorf, F. Weigend, M. Reiher   
              J. Chem. Phys. 138, 184105 (2013)               
                                         


 


              +--------------------------------------------------+
              |      general information about current run       |
              +--------------------------------------------------+

 

 SCF run will be profiled !


 DENSITY CONVERGENCE CHECK SWITCHED ON !
 SCF CONVERGENCE IF RMS(delta[D]) <     0.1000000000E-06

 TPSS meta-GGA functional
 exchange:    LDA + TPSS
 correlation: LDA (PW) + TPSS
 A DFT calculation using the RI-J approximation will be carried out.
 Allocatable memory for RI due to $ricore (MB):        5000


              +--------------------------------------------------+
              | Atomic coordinate, charge and isotop information |
              +--------------------------------------------------+

                    atomic coordinates            atom    charge  isotop
          5.37744248   -1.46325274   -2.07862316    c      6.000     0
          3.66733481   -0.28338333   -0.32336994    c      6.000     0
          8.94745640    0.29311542    0.09339027    c      6.000     0
          4.69780247    1.19031959    1.67701856    c      6.000     0
          7.27457634    1.46478342    1.82985961    c      6.000     0
          8.04303347   -1.18270400   -1.84153812    c      6.000     0
          3.08554483    2.42769337    3.53216270    n      7.000     0
          4.06423399   -2.74066981   -3.78139868    n      7.000     0
          1.59717763   -2.36162854   -3.10691763    o      8.000     0
          1.31621315   -0.85995767   -0.97341683    n      7.000     0
         10.01530284   -2.64996296   -3.95534797    cl    17.000     0
          0.77949313    2.29407083    3.19187972    o      8.000     0
          4.11616367    3.54291525    5.30899660    o      8.000     0
         10.96385087    0.57485469    0.30209162    h      1.000     0
          8.03451080    2.60855906    3.34882147    h      1.000     0
 
       center of nuclear mass  :    5.27776528   -0.25726803   -0.37634145
       center of nuclear charge:    5.28509005   -0.22160365   -0.32856479

              +--------------------------------------------------+
              |               basis set information              |
              +--------------------------------------------------+

              we will work with the 1s 3p 5d 7f 9g ... basis set
              ...i.e. with spherical basis functions...

   type   atoms  prim   cont   basis
   ---------------------------------------------------------------------------
    c        6     77     55   cc-pVQZ   [5s4p3d2f1g|21s6p3d2f1g]
    n        3     77     55   cc-pVQZ   [5s4p3d2f1g|21s6p3d2f1g]
    o        3     77     55   cc-pVQZ   [5s4p3d2f1g|21s6p3d2f1g]
    cl       1    137     59   cc-pVQZ   [6s5p3d2f1g|42s19p3d2f1g]
    h        2     32     30   cc-pVQZ   [4s3p2d1f|6s3p2d1f]
   ---------------------------------------------------------------------------
   total:   15   1125    779
   ---------------------------------------------------------------------------

   total number of primitive shells          :  178
   total number of contracted shells         :  217
   total number of cartesian basis functions :  984
   total number of SCF-basis functions       :  779


 integral neglect threshold       :  0.34E-13
 integral storage threshold THIZE :  0.10E-04
 integral storage threshold THIME :         5

 RI-J AUXILIARY BASIS SET information:

              we will work with the 1s 3p 5d 7f 9g ... basis set
              ...i.e. with spherical basis functions...

   type   atoms  prim   cont   basis
   ---------------------------------------------------------------------------
    c        6     70     49   cc-pVQZ   [6s4p3d1f1g|12s5p4d2f1g]
    n        3     70     49   cc-pVQZ   [6s4p3d1f1g|12s5p4d2f1g]
    o        3     70     49   cc-pVQZ   [6s4p3d1f1g|12s5p4d2f1g]
    cl       1     77     51   cc-pVQZ   [8s4p3d1f1g|14s5p5d2f1g]
    h        2     16     11   cc-pVQZ   [3s1p1d|5s2p1d]
   ---------------------------------------------------------------------------
   total:   15    949    661
   ---------------------------------------------------------------------------

   total number of primitive shells          :  107
   total number of contracted shells         :  207
   total number of cartesian basis functions :  819
   total number of SCF-basis functions       :  661


 symmetry group of the molecule :   c1 

 the group has the following generators :
   c1(z)

    1 symmetry operations found

 there are 1 real representations :   a   

 maximum number of shells which are related by symmetry :  1


    mo occupation :
   irrep   mo's   occupied
    a      779       50
 
 number of basis functions   :          779
 number of occupied orbitals :           50
 
  
           ------------------
           density functional
           ------------------
 TPSS meta-GGA functional
 exchange:    LDA + TPSS
 correlation: LDA (PW) + TPSS
 grinp -> nfun, dfgga, dfhybrid 
           5 F F
 iterations will be done with small grid
  
 spherical integration : Lebedev's spherical grid
 spherical gridsize    :           5
    i.e. gridpoints    :         590
 value for diffuse not defined
 radial integration    : Chebyshev 2nd kind (scaling 3)
 radial gridsize       :           8
 integration cells     :          15
 partition function    : becke
 partition sharpness   :           3
  

 <rddim> : input of entry tasksize
           from data group '$pardft' failed !

               Default values taken

 <rddim> : input of entry memdiv
           from data group '$pardft' failed !

               Default values taken
  RIDFT: memory allocation for DFT gridpoints
  MEMORY is divided by 1 as DEFAULT
 Each node can hold at most  the            1 -th part
 of the gridpoints    

 biggest AO integral is expected to be    10.299525420
  
           ------------------------
               RI-J - INFORMATION
           ------------------------
 
 
 **************************************************
 *      MEMORY ALLOCATION FOR PARALLEL RI-DFT     *
 **************************************************
 
 
MEMORY FOR (MU NU/ ALPHA), SEQUENTIAL RUN               4997 MByte
 
            DIFFERENCE IN MEMORY NEED:       DIAG./SLAVE  
 
      TOTAL DIFFERENCE :                     29 MByte
 
      difference in xcore:                    4 MByte
      difference in fatmat:                   9 MByte
      getcor calls skipped by slaves:        17 MByte
 
 
           Integral memory available for diagonal.      4997 MByte
 
           Integral memory available for slave             0 MByte
 
         MEMORY FOR (MU NU/ ALPHA) ON DIAGONALIZER      4997 MByte
 
         MEMORY FOR (MU NU/ ALPHA) ON ONE SLAVE            0 MByte
 
         TOTAL MEMORY FOR (MU NU/ ALPHA),ALL NODES      4997 MByte
 
 Contributions to RI integral batches: 
  neglected integral batches:        5470
  direct contribution:                  0
  memory contribution:       18183
 Memory core needed for (P|Q) and Cholesky      4 MByte
 Memory core minimum needed except of (P|Q)     4 MByte
 Total minimum memory core needed (sum)         7 MByte
  
 ****************************************
 Memory allocated for RI-J  5003 MByte
 ****************************************
                                            

          ------------------------
          nuclear repulsion energy  :   847.156780140    
          ------------------------

 
          -----------------
          -S integrals
          -----------------

 1e-integrals will be neglected if expon. factor < 0.339630E-14
 
          -----------------
          -T+V integrals
          -----------------

 1e-integrals will be neglected if expon. factor < 0.339630E-14
 Difference densities >>NOT<< switched on in parallel ridft!

 automatic virtual orbital shift switched on 
      shift if e(lumo)-e(homo) < 0.10000000    


 DIIS switched on: error vector is FDS-SDF
 Max. Iterations for DIIS is     :   4
 DIIS matrix (see manual) 
    Scaling factor of diagonals  :  1.200
    threshold for scaling factor :  0.000

 scf convergence criterion : increment of total energy < .1000000D-08
                  and increment of one-electron energy < .1000000D-05


 <geterg> : there is no data group $energy 

  MOs are in ASCII format !


 reading orbital data $scfmo  from file mos . 

 orbital characterization : expanded
 
 mo provided and orthogonalized by Cholesky decomposition

 DSCF restart information will be dumped onto file mos


 Starting SCF iterations


 ITERATION  ENERGY          1e-ENERGY        2e-ENERGY     RMS[dD(SAO)]   TOL
   1  -1077.4519340355    -3138.9064174     1214.2977033    0.000D+00 0.339D-13
                            Exc = -107.262904393     Coul =  1321.56060766    
                              N = 100.00014575    
                            current damping = 0.700
 
          max. resid. norm for Fia-block=  4.180D-01 for orbital     33a         
          max. resid. fock norm         =  1.197D+01 for orbital    732a         

 ITERATION  ENERGY          1e-ENERGY        2e-ENERGY     RMS[dD(SAO)]   TOL
   2  -1079.7600694966    -3154.6944507     1227.7776011    0.210D-01 0.339D-13
                            Exc = -107.680795453     Coul =  1335.45839650    
                              N = 100.00011903    
                            current damping = 0.650
 
          Norm of current diis error:  3.5622    
          max. resid. norm for Fia-block=  1.493D-01 for orbital     18a         
          max. resid. fock norm         =  4.584D-01 for orbital    775a         

 ITERATION  ENERGY          1e-ENERGY        2e-ENERGY     RMS[dD(SAO)]   TOL
   3  -1080.0651950627    -3158.9750053     1231.7530301    0.764D-02 0.339D-13
                            Exc = -108.028098733     Coul =  1339.78112884    
                              N = 100.00010375    
                            current damping = 0.550
 
          Norm of current diis error:  1.7428    
          max. resid. norm for Fia-block=  5.932D-02 for orbital     41a         
          max. resid. fock norm         =  1.020D-01 for orbital    667a         

 ITERATION  ENERGY          1e-ENERGY        2e-ENERGY     RMS[dD(SAO)]   TOL
   4  -1080.1696228805    -3159.9782122     1232.6518092    0.284D-02 0.339D-13
                            Exc = -107.973723467     Coul =  1340.62553268    
                              N = 100.00009957    
                            current damping = 0.450
 
          Norm of current diis error: 0.75541    
          max. resid. norm for Fia-block=  3.680D-02 for orbital     18a         
          max. resid. fock norm         =  6.740D-02 for orbital    757a         

 ITERATION  ENERGY          1e-ENERGY        2e-ENERGY     RMS[dD(SAO)]   TOL
   5  -1080.1893820156    -3160.7338345     1233.3876724    0.127D-02 0.339D-13
                            Exc = -108.078076957     Coul =  1341.46574934    
                              N = 100.00009540    
                            current damping = 0.350
 
          Norm of current diis error: 0.45485    
          max. resid. norm for Fia-block=  1.113D-02 for orbital     36a         
          max. resid. fock norm         =  2.587D-02 for orbital    767a         
          mo-orthogonalization: Cholesky decomposition

 ITERATION  ENERGY          1e-ENERGY        2e-ENERGY     RMS[dD(SAO)]   TOL
   6  -1080.1947180722    -3160.9421020     1233.5906038    0.576D-03 0.339D-13
                            Exc = -108.080302230     Coul =  1341.67090605    
                              N = 100.00009481    
                            current damping = 0.200
 
          Norm of current diis error: 0.21474    
          max. resid. norm for Fia-block=  6.036D-03 for orbital     49a         
          max. resid. fock norm         =  1.232D-02 for orbital    775a         

 ITERATION  ENERGY          1e-ENERGY        2e-ENERGY     RMS[dD(SAO)]   TOL
   7  -1080.1946717551    -3161.0047337     1233.6532818    0.268D-03 0.339D-13
                            Exc = -108.065846753     Coul =  1341.71912853    
                              N = 100.00009406    
                            current damping = 0.250
 
          Norm of current diis error: 0.22912    
          max. resid. norm for Fia-block=  3.412D-03 for orbital     44a         
          max. resid. fock norm         =  1.031D-02 for orbital    775a         

 ITERATION  ENERGY          1e-ENERGY        2e-ENERGY     RMS[dD(SAO)]   TOL
   8  -1080.1960374247    -3160.9617688     1233.6089512    0.858D-04 0.339D-13
                            Exc = -108.066250465     Coul =  1341.67520169    
                              N = 100.00009423    
                            current damping = 0.300
 
          Norm of current diis error: 0.99387E-01
          max. resid. norm for Fia-block=  2.062D-03 for orbital     44a         
          max. resid. fock norm         =  3.860D-03 for orbital    774a         

 ITERATION  ENERGY          1e-ENERGY        2e-ENERGY     RMS[dD(SAO)]   TOL
   9  -1080.1962476012    -3160.9401260     1233.5870983    0.473D-04 0.339D-13
                            Exc = -108.075909911     Coul =  1341.66300821    
                              N = 100.00009408    
                            current damping = 0.150
 
          Norm of current diis error: 0.47482E-01
          max. resid. norm for Fia-block=  1.053D-03 for orbital     33a         
          max. resid. fock norm         =  2.361D-03 for orbital    774a         

 ITERATION  ENERGY          1e-ENERGY        2e-ENERGY     RMS[dD(SAO)]   TOL
  10  -1080.1962966344    -3160.9714804     1233.6184037    0.211D-04 0.339D-13
                            Exc = -108.072738966     Coul =  1341.69114263    
                              N = 100.00009418    
                            current damping = 0.200
 
          Norm of current diis error: 0.23800E-01
          max. resid. norm for Fia-block=  4.988D-04 for orbital     40a         
          max. resid. fock norm         =  9.018D-04 for orbital    715a         
          mo-orthogonalization: Cholesky decomposition

 ITERATION  ENERGY          1e-ENERGY        2e-ENERGY     RMS[dD(SAO)]   TOL
  11  -1080.1963059502    -3160.9532032     1233.6001171    0.800D-05 0.339D-13
                            Exc = -108.074817942     Coul =  1341.67493506    
                              N = 100.00009413    
                            current damping = 0.250
 
          Norm of current diis error: 0.14312E-01
          max. resid. norm for Fia-block=  3.237D-04 for orbital     40a         
          max. resid. fock norm         =  5.413D-04 for orbital     40a         

 ITERATION  ENERGY          1e-ENERGY        2e-ENERGY     RMS[dD(SAO)]   TOL
  12  -1080.1963105942    -3160.9554471     1233.6023564    0.565D-05 0.339D-13
                            Exc = -108.073508946     Coul =  1341.67586534    
                              N = 100.00009414    
                            current damping = 0.300
 
          Norm of current diis error: 0.69490E-02
          max. resid. norm for Fia-block=  2.000D-04 for orbital     47a         
          max. resid. fock norm         =  3.930D-04 for orbital    777a         

 ITERATION  ENERGY          1e-ENERGY        2e-ENERGY     RMS[dD(SAO)]   TOL
  13  -1080.1963112470    -3160.9566503     1233.6035589    0.329D-05 0.339D-13
                            Exc = -108.073667675     Coul =  1341.67722658    
                              N = 100.00009413    
                            current damping = 0.150
 
          Norm of current diis error: 0.49371E-02
          max. resid. norm for Fia-block=  1.216D-04 for orbital     47a         
          max. resid. fock norm         =  2.456D-04 for orbital    777a         

 ITERATION  ENERGY          1e-ENERGY        2e-ENERGY     RMS[dD(SAO)]   TOL
  14  -1080.1963117304    -3160.9568414     1233.6037495    0.262D-05 0.339D-13
                            Exc = -108.073959914     Coul =  1341.67770945    
                              N = 100.00009414    
                            current damping = 0.050
 
          Norm of current diis error: 0.29868E-02
          max. resid. norm for Fia-block=  9.178D-05 for orbital     47a         
          max. resid. fock norm         =  1.929D-04 for orbital    777a         
          irrep a   : virtual orbitals shifted by    0.00113

 ITERATION  ENERGY          1e-ENERGY        2e-ENERGY     RMS[dD(SAO)]   TOL
  15  -1080.1963117469    -3160.9565337     1233.6034418    0.182D-05 0.339D-13
                            Exc = -108.073741059     Coul =  1341.67718290    
                              N = 100.00009414    
                            current damping = 0.100
 
          Norm of current diis error: 0.28473E-02
          max. resid. norm for Fia-block=  5.213D-05 for orbital     47a         
          max. resid. fock norm         =  1.119D-04 for orbital    777a         
          mo-orthogonalization: Cholesky decomposition

 ITERATION  ENERGY          1e-ENERGY        2e-ENERGY     RMS[dD(SAO)]   TOL
  16  -1080.1963119757    -3160.9565161     1233.6034240    0.127D-05 0.339D-13
                            Exc = -108.073886199     Coul =  1341.67731018    
                              N = 100.00009413    
                            current damping = 0.050
 
          Norm of current diis error: 0.12172E-02
          max. resid. norm for Fia-block=  3.081D-05 for orbital     40a         
          max. resid. fock norm         =  5.144D-05 for orbital    708a         
          irrep a   : virtual orbitals shifted by    0.00113

 ITERATION  ENERGY          1e-ENERGY        2e-ENERGY     RMS[dD(SAO)]   TOL
  17  -1080.1963119789    -3160.9567784     1233.6036863    0.579D-06 0.339D-13
                            Exc = -108.073734227     Coul =  1341.67742052    
                              N = 100.00009414    
                            current damping = 0.100
 
          Norm of current diis error: 0.11901E-02
          max. resid. norm for Fia-block=  2.191D-05 for orbital     40a         
          max. resid. fock norm         =  4.473D-05 for orbital    777a         

 ITERATION  ENERGY          1e-ENERGY        2e-ENERGY     RMS[dD(SAO)]   TOL
  18  -1080.1963120085    -3160.9564751     1233.6033830    0.466D-06 0.339D-13
                            Exc = -108.073839013     Coul =  1341.67722198    
                              N = 100.00009414    
                            current damping = 0.150
 
          Norm of current diis error: 0.59411E-03
          max. resid. norm for Fia-block=  1.941D-05 for orbital     47a         
          max. resid. fock norm         =  4.062D-05 for orbital    777a         

 ITERATION  ENERGY          1e-ENERGY        2e-ENERGY     RMS[dD(SAO)]   TOL
  19  -1080.1963120116    -3160.9566336     1233.6035415    0.349D-06 0.339D-13
                            Exc = -108.073833359     Coul =  1341.67737483    
                              N = 100.00009414    
                            current damping = 0.200
 
          Norm of current diis error: 0.50998E-03
          max. resid. norm for Fia-block=  1.201D-05 for orbital     47a         
          max. resid. fock norm         =  2.493D-05 for orbital    777a         

 ITERATION  ENERGY          1e-ENERGY        2e-ENERGY     RMS[dD(SAO)]   TOL
  20  -1080.1963120179    -3160.9565827     1233.6034905    0.237D-06 0.339D-13
                            Exc = -108.073812577     Coul =  1341.67730308    
                              N = 100.00009414    
                            current damping = 0.250
 
          Norm of current diis error: 0.25311E-03
          max. resid. norm for Fia-block=  7.487D-06 for orbital     47a         
          max. resid. fock norm         =  1.541D-05 for orbital    777a         
          mo-orthogonalization: Cholesky decomposition

 ITERATION  ENERGY          1e-ENERGY        2e-ENERGY     RMS[dD(SAO)]   TOL
  21  -1080.1963120181    -3160.9566183     1233.6035261    0.141D-06 0.339D-13
                            Exc = -108.073831179     Coul =  1341.67735730    
                              N = 100.00009414    
                            current damping = 0.300
 
          Norm of current diis error: 0.23562E-03
          max. resid. norm for Fia-block=  3.864D-06 for orbital     44a         
          max. resid. fock norm         =  1.031D-05 for orbital    775a         

 DENSITY CONVERGED !


 ITERATION  ENERGY          1e-ENERGY        2e-ENERGY     RMS[dD(SAO)]   TOL
  22  -1080.1963120197    -3160.9565951     1233.6035030    0.904D-07 0.339D-13
                            Exc = -108.073821246     Coul =  1341.67732420    
                              N = 100.00009414    
                            current damping = 0.350
 
          Norm of current diis error: 0.72098E-04
          max. resid. norm for Fia-block=  2.145D-06 for orbital     40a         
          max. resid. fock norm         =  3.582D-06 for orbital    708a         

 DENSITY CONVERGED !


 ITERATION  ENERGY          1e-ENERGY        2e-ENERGY     RMS[dD(SAO)]   TOL
  23  -1080.1963120197    -3160.9565689     1233.6034768    0.382D-07 0.339D-13
                            Exc = -108.073828714     Coul =  1341.67730547    
                              N = 100.00009414    
                            current damping = 0.200
 
          Norm of current diis error: 0.79057E-04
          max. resid. norm for Fia-block=  1.344D-06 for orbital     47a         
          max. resid. fock norm         =  2.847D-06 for orbital    777a         

 DENSITY CONVERGED !


 ITERATION  ENERGY          1e-ENERGY        2e-ENERGY     RMS[dD(SAO)]   TOL
  24  -1080.1963120199    -3160.9565901     1233.6034979    0.249D-07 0.339D-13
                            Exc = -108.073824341     Coul =  1341.67732224    
                              N = 100.00009414    
                            current damping = 0.250
 
          Norm of current diis error: 0.31984E-04
          max. resid. norm for Fia-block=  1.137D-06 for orbital     47a         
          max. resid. fock norm         =  2.366D-06 for orbital    777a         

 ENERGY & DENSITY CONVERGED !


 ITERATION  ENERGY          1e-ENERGY        2e-ENERGY     RMS[dD(SAO)]   TOL
  25  -1080.1960759475    -3160.9565856     1233.6037295    0.189D-07 0.339D-13
                            Exc = -108.073586787     Coul =  1341.67731631    
                              N = 99.999995080    
                            current damping = 0.300
 
          Norm of current diis error: 0.36465E-04
          max. resid. norm for Fia-block=  5.511D-07 for orbital     47a         
          max. resid. fock norm         =  1.147D-06 for orbital    777a         

 End of SCF iterations

   convergence criteria satisfied after   25 iterations


                  ------------------------------------------ 
                 |  total energy      =  -1080.19607594749  |
                  ------------------------------------------ 
                 :  kinetic energy    =   1076.56125919243  :
                 :  potential energy  =  -2156.75733513991  :
                 :  virial theorem    =      1.99663503985  :
                 :  wavefunction norm =      1.00000000000  :
                  .......................................... 


 <geterg> : there is no data group $energy 


 <skperg> : $end is missing 


 orbitals $scfmo  will be written to file mos

    irrep                 46a         47a         48a         49a         50a   
 eigenvalues H         -0.30629    -0.29135    -0.28127    -0.26244    -0.25867
            eV          -8.3346     -7.9280     -7.6539     -7.1414     -7.0387
 occupation              2.0000      2.0000      2.0000      2.0000      2.0000 

    irrep                 51a         52a         53a         54a         55a   
 eigenvalues H         -0.16451    -0.11783    -0.06807    -0.04806    -0.03881
            eV          -4.4766     -3.2063     -1.8522     -1.3077     -1.0561
 
 
 ! grave: sending quit signal to master process
 
 
 
 
 ==============================================================================
                           electrostatic moments
 ==============================================================================

 reference point for electrostatic moments:    0.00000   0.00000   0.00000

 
              nuc           elec       ->  total
 ------------------------------------------------------------------------------
                          charge      
 ------------------------------------------------------------------------------
         100.000000    -100.000000      -0.000000
 
 ------------------------------------------------------------------------------
                       dipole moment  
 ------------------------------------------------------------------------------
   x     528.509005    -526.641906       1.867099
   y     -22.160365      22.033883      -0.126482
   z     -32.856479      32.533987      -0.322492
 
   | dipole moment | =     1.8990 a.u. =     4.8267 debye 
 
 ------------------------------------------------------------------------------
                     quadrupole moment
 ------------------------------------------------------------------------------
  xx    3817.788891   -3858.501281     -40.712389
  yy     456.275472    -516.547020     -60.271548
  zz     939.453762   -1003.862351     -64.408589
  xy    -353.885885     355.455184       1.569299
  xz    -559.348433     560.505698       1.157265
  yz     653.368314    -658.321686      -4.953371
 
     1/3  trace=     -55.130842
     anisotropy=      23.782481
 
 ==============================================================================
 

    ridft profiling
  --------------------------------------------------------------------
             module   cpu total (s)       %  wall total (s)       %

               RIDFT           503.4  100.00           504.1  100.00
         Ridft_b_scf            13.1    2.61            13.2    2.61
        b_scf_prelim             0.0    0.00             0.0    0.00
        b_scf_molinp             0.0    0.01             0.0    0.01
         b_scf_init0             0.0    0.00             0.0    0.00
        b_scf_auxbas             0.0    0.00             0.0    0.00
      b_scf_symmetry             0.0    0.00             0.0    0.00
         b_scf_cosmo             0.0    0.00             0.0    0.00
        b_scf_params             1.6    0.32             1.6    0.32
          b_scf_ri-j            10.5    2.08            10.5    2.08
    b_scf_ri-j_auxpq            10.5    2.08            10.5    2.08
     ri-j_auxpq_chol             0.0    0.01             0.0    0.01
         b_scf_1elec             0.3    0.06             0.3    0.06
       b_scf_moinput             0.7    0.14             0.7    0.14
     moinput_orthmos             0.6    0.13             0.6    0.13
    b_scf_dft-dstmax             0.0    0.00             0.0    0.00
           Ridft_scf           490.1   97.36           490.7   97.35
          Scf_b_loop             0.0    0.00             0.0    0.00
                noga             0.0    0.00             0.0    0.00
            Scf_loop           489.7   97.27           490.3   97.26
     scf_loop_mkdmat             0.9    0.18             0.9    0.18
       scf_loop_ri-j            19.5    3.87            19.5    3.87
      parlp1.bc.dens             1.4    0.27             1.4    0.27
        parlp1.gs.gp             0.0    0.00             0.0    0.00
        parlp2.bc.gq             0.0    0.00             0.0    0.00
        scf_loop_dft           444.9   88.37           445.4   88.36
      pardft.bc.dens             0.0    0.00             0.0    0.00
        dft_grid_con             0.2    0.05             0.2    0.05
          dft_xcmrhf           438.4   87.09           439.0   87.09
          dft_getval            11.3    2.24            11.3    2.24
          funct2 dst             0.1    0.02             0.1    0.02
      funct2 f2loop1             3.0    0.59             3.0    0.60
      funct2 f2loop2             3.8    0.76             3.8    0.75
          funct2 s+c             4.1    0.81             4.1    0.81
        funct2 cmf_2             3.5    0.70             3.5    0.70
          dft_mkdens           192.7   38.28           193.0   38.29
        dft_mgga-fun             0.8    0.15             0.7    0.14
          dft_mkfock           233.3   46.34           233.6   46.34
     pardft.red.fock            27.8    5.51            27.8    5.51
     scf_loop_energy             0.0    0.01             0.0    0.00
     scf_loop_mkfock             0.0    0.00             0.0    0.00
       scf_loop_diis             4.6    0.90             4.6    0.90
       scf_loop_diag             9.2    1.82             9.2    1.82
         diag_tritrn             2.2    0.44             2.2    0.44
          diag_rdiag             6.9    1.37             6.9    1.37
     scf_loop_modump             9.2    1.83             9.2    1.83
      scf_loop_ortho             1.1    0.21             1.1    0.21
          Scf_a_loop             0.5    0.09             0.5    0.09
         Ridft_a_scf             0.2    0.03             0.2    0.04
         a_scf_fanal             0.1    0.03             0.1    0.03
 


    ------------------------------------------------------------------------
         total  cpu-time :  8 minutes and 24 seconds
         total wall-time :  8 minutes and 25 seconds
    ------------------------------------------------------------------------


   ****  ridft : all done  ****


    2016-02-15 19:07:51.837 

