 this is node-proc. number 0 running on node c-4-3.local
 the total number of node-proc. spawned is  33

 dscfserver (c-4-3.local) : TURBOMOLE V7.2 ( 21471 ) 7 Nov 2017 at 16:15:16
 Copyright (C) 2017 TURBOMOLE GmbH, Karlsruhe


    2018-02-20 04:52:46.281 

 
    0:00:56 ---- Start global counter...
    0:16:43 ---- ... finished.
 
    0:17:45 ---- Start global counter...
    0:33:55 ---- ... finished.
 
    0:34:57 ---- Start global counter...
    0:50:15 ---- ... finished.
 
    0:51:18 ---- Start global counter...
    1:05:28 ---- ... finished.
 
    1:06:31 ---- Start global counter...
    1:18:56 ---- ... finished.
 
    1:20:13 ---- Start global counter...
    1:30:53 ---- ... finished.
 
    1:31:57 ---- Start global counter...
    1:41:33 ---- ... finished.
 
    1:42:36 ---- Start global counter...
    1:50:59 ---- ... finished.
 
    1:52:03 ---- Start global counter...
    1:59:35 ---- ... finished.
 
    2:00:39 ---- Start global counter...
    2:06:51 ---- ... finished.
 
    2:08:11 ---- Start global counter...
    2:13:26 ---- ... finished.
 
    2:14:30 ---- Start global counter...
    2:18:43 ---- ... finished.
 
    2:19:46 ---- Start global counter...
    2:23:07 ---- ... finished.
 
    2:24:01 ---- ByeBye Tag received


 ! Total wall-clock time in seconds  :     8641.4
 ! Time (sec) spent in global counter:     7741.6
 ! So-called SERIAL wall-clock time  :      899.8

  *** Regular termination of server ***
 total turnaround time of dscfserver  8641.96 sec
 cpu elapsed by dscfserver process    7744.97 sec 

   ***  dscf server : all done  ***


    2018-02-20 07:16:48.244 

