
   OpenMP run-time library returned nthreads = 28

 ricc2 (c-19-413) : TURBOMOLE V7.3 ( 22142 ) 4 Jul 2018 at 18:12:42
 Copyright (C) 2018 TURBOMOLE GmbH, Karlsruhe


    2019-04-02 17:10:51.533 



                              R I C C 2 - PROGRAM

                          the quantum chemistry groups
                             at the universities in
                           Karlsruhe, Bochum & Mainz
                                   Germany



   *-----------------------------------------------------------------------*
   |                     program will use 28 thread(s)                     |
   *-----------------------------------------------------------------------*


              +--------------------------------------------------+
              | Atomic coordinate, charge and isotop information |
              +--------------------------------------------------+

                    atomic coordinates            atom    charge  isotop
          1.54720758    1.63304905    0.35580919    c      6.000     0
          2.77055320    3.24403175    0.65142905    h      1.000     0
          2.58702963   -0.73798330   -0.12604130    c      6.000     0
          4.61666967   -0.96727888   -0.20895541    h      1.000     0
          1.00982921   -2.81284449   -0.51379393    c      6.000     0
          1.81574005   -4.65168223   -0.89857893    h      1.000     0
         -1.60459596   -2.51429450   -0.41554404    c      6.000     0
         -2.82905121   -4.12311840   -0.71725162    h      1.000     0
         -2.64464424   -0.14367626    0.07640950    c      6.000     0
         -4.67270062    0.08486340    0.17646651    h      1.000     0
         -1.06824764    1.93017262    0.45784135    c      6.000     0
         -1.87566028    3.76747387    0.84330572    h      1.000     0
         -4.53237960    0.30640185    6.65261336    n      7.000     0
         -3.37041359    2.49407696    7.18185798    c      6.000     0
         -4.59420790    4.10633735    7.48896132    h      1.000     0
         -0.75840598    2.76024061    7.35225612    c      6.000     0
          0.05766991    4.58127542    7.78919160    h      1.000     0
          0.75517280    0.64945563    6.94745050    c      6.000     0
          2.79148341    0.78246264    7.05107270    h      1.000     0
         -0.41750035   -1.63457138    6.39251432    c      6.000     0
          0.67055579   -3.32705146    6.04466310    h      1.000     0
         -3.04519152   -1.70645256    6.26883284    c      6.000     0
         -4.00678419   -3.46097517    5.83638286    h      1.000     0
 
       center of nuclear mass  :   -0.97302812    0.02120287    3.40687820
       center of nuclear charge:   -0.94096369    0.02004983    3.38679209

              +--------------------------------------------------+
              |               basis set information              |
              +--------------------------------------------------+

              we will work with the 1s 3p 5d 7f 9g ... basis set
              ...i.e. with spherical basis functions...

   type   atoms  prim   cont   basis
   ---------------------------------------------------------------------------
    c       11     77     55   cc-pVQZ   [5s4p3d2f1g|21s6p3d2f1g]
    h       11     32     30   cc-pVQZ   [4s3p2d1f|6s3p2d1f]
    n        1     77     55   cc-pVQZ   [5s4p3d2f1g|21s6p3d2f1g]
   ---------------------------------------------------------------------------
   total:   23   1276    990
   ---------------------------------------------------------------------------

   total number of primitive shells          :   78
   total number of contracted shells         :  290
   total number of cartesian basis functions : 1225
   total number of SCF-basis functions       :  990


 symmetry group of the molecule :   c1 

 the group has the following generators :
   c1(z)

    1 symmetry operations found

 there are 1 real representations :   a   


   =========================================================================


     restricted closed shell calculation for the wavefunction models:
               MP2        - Second Order Moeller Plesset PT


     global parameters for ricc2 program:

        hard restart (reuse of interm.) :  disabled
        soft restart (reuse of vectors) :  disabled
        threshold for vector function   :    0.100000E-05
        convergence threshold energy    :    0.100000E-06
        linear dependence threshold     :    0.100000E-13
        global print level              :      1
        maximum number of iterations    :   300
        maximum number DIIS vectors     :    10
        max. dim. of reduced space      :   100
        core memory limit (MB)          : 84000


     MP2 energy only: Energy will be calculated directly from T2 amplitudes!

     Scratch Directory : 


   =========================================================================

    der. integral neglect threshold  :  0.10E-07
    integral neglect threshold       :  0.27E-11
    integral storage threshold THIZE :  0.10E-04
    integral storage threshold THIME :         5


                  +------------------------------------------+
                  |     Auxiliary basis set information      |
                  +------------------------------------------+

              we will work with the 1s 3p 5d 7f 9g ... basis set
              ...i.e. with spherical basis functions...

   type   atoms  prim   cont   basis
   ---------------------------------------------------------------------------
    c       11    132    132   cc-pVQZ   [8s7p6d5f3g1h|8s7p6d5f3g1h]
    h       11     55     55   cc-pVQZ   [5s4p3d2f1g|5s4p3d2f1g]
    n        1    132    132   cc-pVQZ   [8s7p6d5f3g1h|8s7p6d5f3g1h]
   ---------------------------------------------------------------------------
   total:   23   2189   2189
   ---------------------------------------------------------------------------

   total number of primitive shells          :   75
   total number of contracted shells         :  525
   total number of cartesian basis functions : 2942
   total number of SCF-basis functions       : 2189


 maximum number of shells which are related by symmetry :  1


 The symmetry information takes   1 MB

*---------------------------------------------------------------------*
|               simplified C1 algorithm will be applied               |
*---------------------------------------------------------------------*
  MOs are in ASCII format !


 reading orbital data $scfmo  from file mos
 orbital characterization : scfconv=9



              +--------------------------------------------+
              | list of orbitals that will be kept frozen: |
              +--------------------------------------------+
              |   irrep   index      energy     occ/vir    |
              +--------------------------------------------+
              |   a         1      -15.5578     occupied   |
              |   a         2      -11.2677     occupied   |
              |   a         3      -11.2670     occupied   |
              |   a         4      -11.2517     occupied   |
              |   a         5      -11.2341     occupied   |
              |   a         6      -11.2330     occupied   |
              |   a         7      -11.2325     occupied   |
              |   a         8      -11.2322     occupied   |
              |   a         9      -11.2315     occupied   |
              |   a        10      -11.2309     occupied   |
              |   a        11      -11.2302     occupied   |
              |   a       ...        ...        occupied   |
              |   a        12      -11.2291     occupied   |
              +--------------------------------------------+



   Molecular Orbital Statistic:
   ============================

   -----------------------------
   orbitals in total:
   -----------------------------
    frozen occupied :     12
    active occupied :     30
    active virtual  :    948
    frozen virtual  :      0
    all together    :    990
   -----------------------------


     time in riccmos       cpu:  8.59 sec    wall:  0.76 sec    ratio: 11.3

     total memory allocated for calculation of (Q|P)**(-1/2) : 55 MiB


     calculation of (P|Q) ...
     time in lp2sym        cpu:  2.88 sec    wall:  0.10 sec    ratio: 28.0


     calculation of the Cholesky decomposition of (P|Q)**(-1) ...
     time in invmetri      cpu:  8.03 sec    wall:  0.29 sec    ratio: 28.0

   threshold for RMS(d[D]) in SCF was     :  0.10E-06
   integral neglect threshold             :  0.27E-11
   derivative integral neglect threshold  :  0.10E-07


   =========================================================================

     Energy of reference wave function is  -477.5803111363000
     Maximum orbital residual is           0.6833087951455E-06


     Number of symmetry-nonredundant auxiliary basis functions:     2189

     Block lengths for integral files:
        frozen occupied (BOI):        1 MiB
        active occupied (BJI):        1 MiB
        active virtual  (BAI):       16 MiB
        frozen virtual  (BGI):        0 MiB
               general  (BTI):       17 MiB

   =========================================================================




   **************************************************************************
   *                                                                        *
   *          OPTIMIZATION OF THE GROUND STATE CLUSTER AMPLITUDES           *
   *                                                                        *
   **************************************************************************


   Iter.   MP2 energy       Norm(Omega)   Norm(t1)  Norm(t2)     cpu    wall
   ...........................................................................
    1   -479.6496119319     ------          0.00000   0.49280    1.33    0.05
   ...........................................................................


     time in total         cpu:  1 min 20 s  wall:  0 min  3 s  ratio: 26.1


     **********************************************************************
     *                                                                    *
     *   RHF  energy                             :   -477.5803111363      *
     *   MP2 correlation energy (doubles)        :     -2.0693007956      *
     *                                                                    *
     *   Final MP2 energy                        :   -479.6496119319      *
     *                                                                    *
     *    E(S)   =     -1.3033353932      E(T)   =     -0.7659654024      *
     *    E(OS)  =     -1.5586571940      E(SS)  =     -0.5106436016      *
     *                                                                    *
     *   SCS-MP2 energy                          :   -479.6209143029      *
     *   (computed with  C(OS) =   1.2000  and  C(SS) =   0.3333)         *
     *                                                                    *
     *   SOS-MP2 energy                          :   -479.6065654884      *
     *   (computed with  C(OS) =   1.3000)                                *
     *                                                                    *
     *   Norm of MP1 T2 amplitudes               :      0.4927967664      *
     *                                                                    *
     **********************************************************************



    ------------------------------------------------------------------------
         total  cpu-time :  3 minutes and 13 seconds
         total wall-time :   8.23 seconds
    ------------------------------------------------------------------------

   ****  ricc2 : all done  ****


    2019-04-02 17:10:59.736 

