Using Slurm to start processes with PMI2
STARTING ridft ON 8 PROCESSORS!
RUNNING PROGRAM /beegfs/modfac/apps/TURBOMOLE/7.0_intel_GA/bin/em64t-unknown-linux-gnu_mpi/ridft_mpi.
PLEASE WAIT UNTIL ridft HAS FINISHED.
Look for the output in slave1.output.
  this is node-proc. number 1 running on node c-8-23.local
  the total number of node-proc. spawned is            8
  parallel platform: MPP, or cluster with fast interconnect

 ridft (c-8-23.local) : TURBOMOLE V7.0.2( ) 15 Jan 2016 at 17:47:42
 Copyright (C) 2016 TURBOMOLE GmbH, Karlsruhe


    2018-02-01 18:23:24.339 



                                  r i d f t

                        DFT program with RI approximation 
                                for coulomb part 




                                                 
                                 References:     
                                                 
          TURBOMOLE:                             
              R. Ahlrichs, M. Baer, M. Haeser, H. Horn, and
              C. Koelmel
              Electronic structure calculations on workstation
              computers: the program system TURBOMOLE
              Chem. Phys. Lett. 162: 165 (1989)
          Density Functional:                              
              O. Treutler and R. Ahlrichs                      
              Efficient Molecular Numerical Integration Schemes
              J. Chem. Phys. 102: 346 (1995)                   
          Parallel Version:                                
              Performance of parallel TURBOMOLE for Density    
              Functional Calculations                          
              M. v. Arnim and R. Ahlrichs                      
              J. Comp. Chem. 19: 1746 (1998)                   
          RI-J Method:                                     
              Auxiliary Basis Sets to approximate Coulomb      
              Potentials                                       
              Chem. Phys. Lett. 240: 283 (1995)                
              K. Eichkorn, O. Treutler, H. Oehm, M. Haeser     
              and R. Ahlrichs                                  
              Chem. Phys. Lett. 242: 652 (1995)                
                                                           
              Auxiliary Basis Sets for Main Row Atoms and their
              Use to approximate Coulomb Potentials            
              K. Eichkorn, F. Weigend, O. Treutler and         
              R. Ahlrichs                                      
              Theo. Chem. Acc. 97: 119 (1997)                   
                                                           
              Accurate Coulomb-fitting basis sets for H to Rn 
              F. Weigend                                        
              Phys. Chem. Chem. Phys. 8: 1057 (2006)            
                                                           
          Multipole accelerated RI-J (MARI-J):             
              Fast evaluation of the Coulomb potential for     
              electron densities using multipole accelerated   
              resolution of identity approximation             
              M. Sierka, A. Hogekamp and R. Ahlrichs           
              J. Chem. Phys. 118: 9136 (2003)                  
          RI-JK Method:                                     
              A fully direct RI-HF algorithm: Implementation,
              optimised auxiliary basis sets, demonstration of
              accuracy and efficiency                         
              F. Weigend                                      
              Phys. Chem. Chem. Phys. 4: 4285 (2002)           
          Two-component HF and DFT with spin-orbit coupling:  
              Self-consistent treatment of spin-orbit         
              interactions with efficient Hartree-Fock and    
              density functional methods                      
              M. K. Armbruster, F. Weigend, C. van Wüllen and 
              W. Klopper                                      
              Phys. Chem. Chem. Phys. 10: 1748 (2008)         
          Relativistic all-electron 2c calculations           
              An efficient implementation of two-component    
              relativistic exact-decoupling methods for large 
              molecules                                       
              D. Peng, N. Middendorf, F. Weigend, M. Reiher   
              J. Chem. Phys. 138, 184105 (2013)               
                                         


 


              +--------------------------------------------------+
              |      general information about current run       |
              +--------------------------------------------------+

 

 SCF run will be profiled !


 DENSITY CONVERGENCE CHECK SWITCHED ON !
 SCF CONVERGENCE IF RMS(delta[D]) <     0.1000000000E-06

 TPSS meta-GGA functional
 exchange:    LDA + TPSS
 correlation: LDA (PW) + TPSS
 A DFT calculation using the RI-J approximation will be carried out.

 !!!RI-K makes sense only with a hybrid functional.

    RI-K switched off!!!
 Allocatable memory for RI due to $ricore (MB):        5000


              +--------------------------------------------------+
              | Atomic coordinate, charge and isotop information |
              +--------------------------------------------------+

                    atomic coordinates            atom    charge  isotop
         -7.50192929   -9.30448991  -22.21948869    c      6.000     0
         -9.16726367  -11.38555271  -21.06400242    c      6.000     0
        -13.52984574  -10.67571677  -19.59037130    c      6.000     0
         -8.42156073  -13.95719218  -22.27847649    c      6.000     0
         -9.78992654  -16.17059628  -21.11087518    c      6.000     0
        -12.17392377  -16.90590950  -22.00286749    c      6.000     0
        -13.47907824  -18.88276713  -20.84310666    c      6.000     0
        -12.42088830  -20.15587374  -18.78919923    c      6.000     0
        -10.03294721  -19.46046775  -17.91232662    c      6.000     0
         -8.72943680  -17.48687368  -19.07354632    c      6.000     0
        -16.27005068  -10.44483381  -20.39504503    c      6.000     0
         -5.98438472   -9.66913714  -13.48222842    c      6.000     0
         -8.12955647  -11.25696440  -12.28853566    c      6.000     0
        -11.23039107   -8.07239037  -10.89627993    c      6.000     0
         -8.30495707  -13.90535700  -13.46890774    c      6.000     0
        -10.19384416  -15.60124636  -12.15632664    c      6.000     0
         -9.49419763  -17.01314012  -10.02942476    c      6.000     0
        -11.23189719  -18.57987805   -8.81531352    c      6.000     0
        -13.70395943  -18.75728742   -9.71946810    c      6.000     0
        -14.41915275  -17.36006550  -11.83882998    c      6.000     0
        -12.67723154  -15.79650420  -13.05012742    c      6.000     0
        -13.84125560   -6.96798150  -11.31479380    c      6.000     0
        -11.83168114  -10.85450754  -21.49583129    n      7.000     0
         -5.63554316   -8.44633882  -20.71677091    n      7.000     0
         -5.21765291   -7.72844887  -12.00351961    n      7.000     0
        -10.51759772   -9.88592085  -12.56467378    n      7.000     0
         -7.82268573   -8.56573739  -24.42375596    o      8.000     0
        -12.91885193  -10.66787063  -17.31889970    o      8.000     0
         -5.07159786  -10.13427244  -15.59103806    o      8.000     0
         -9.84877072   -7.38812431   -9.11977863    o      8.000     0
        -15.07104401   -7.59974907   -9.77453094    h      1.000     0
         -4.00798441   -6.43763553  -12.73573557    h      1.000     0
        -13.73083701   -4.90676650  -11.22751869    h      1.000     0
         -4.41531676   -7.15738497  -21.43228547    h      1.000     0
        -17.38537082  -11.81025165  -19.31735879    h      1.000     0
        -16.94974926   -8.55091438  -19.91036996    h      1.000     0
        -14.66786527   -7.55472635  -13.11450283    h      1.000     0
        -11.54870032  -10.19852502  -14.17397968    h      1.000     0
         -7.76770226  -11.41176132  -10.25645268    h      1.000     0
         -8.80074751  -13.72997718  -15.46489506    h      1.000     0
         -6.41696949  -14.74844130  -13.38533838    h      1.000     0
        -13.23217797  -14.73068166  -14.71515000    h      1.000     0
         -7.56582660  -16.89116964   -9.32378591    h      1.000     0
        -16.33630258  -17.49842557  -12.56202250    h      1.000     0
        -10.65528505  -19.66831305   -7.17176201    h      1.000     0
        -15.05895354  -19.98244979   -8.78175009    h      1.000     0
         -6.32640436   -7.24868709  -10.48716746    h      1.000     0
        -16.52885245  -10.77943061  -22.41528321    h      1.000     0
        -12.50097490  -11.07628391  -23.30021928    h      1.000     0
         -8.89567412  -11.45365277  -19.02179617    h      1.000     0
         -8.84094765  -13.84109308  -24.29905293    h      1.000     0
         -6.37360972  -14.18654825  -22.06882649    h      1.000     0
        -12.99822798  -15.92422512  -23.60664971    h      1.000     0
         -6.87055100  -16.94693924  -18.38277205    h      1.000     0
        -15.32761402  -19.43216910  -21.55019116    h      1.000     0
         -9.19848951  -20.43601430  -16.31150182    h      1.000     0
        -13.44691133  -21.68021754  -17.87415226    h      1.000     0
         -5.39500559   -9.04189924  -18.88738562    h      1.000     0
 
       center of nuclear mass  :  -10.26877867  -12.82503035  -16.20815606
       center of nuclear charge:  -10.31087610  -12.83745562  -16.20310470

              +--------------------------------------------------+
              |               basis set information              |
              +--------------------------------------------------+

              we will work with the 1s 3p 5d 7f 9g ... basis set
              ...i.e. with spherical basis functions...

   type   atoms  prim   cont   basis
   ---------------------------------------------------------------------------
    c       22     77     57   def2-QZVP   [7s4p3d2f1g|15s8p3d2f1g]
    n        4     77     57   def2-QZVP   [7s4p3d2f1g|15s8p3d2f1g]
    o        4     77     57   def2-QZVP   [7s4p3d2f1g|15s8p3d2f1g]
    h       28     33     30   def2-QZVP   [4s3p2d1f|7s3p2d1f]
   ---------------------------------------------------------------------------
   total:   58   3234   2550
   ---------------------------------------------------------------------------

   total number of primitive shells          :  100
   total number of contracted shells         :  790
   total number of cartesian basis functions : 3140
   total number of SCF-basis functions       : 2550


 integral neglect threshold       :  0.11E-13
 integral storage threshold THIZE :  0.10E-04
 integral storage threshold THIME :         5

 RI-J AUXILIARY BASIS SET information:

              we will work with the 1s 3p 5d 7f 9g ... basis set
              ...i.e. with spherical basis functions...

   type   atoms  prim   cont   basis
   ---------------------------------------------------------------------------
    c       22     70     49   def2-QZVP   [6s4p3d1f1g|12s5p4d2f1g]
    n        4     70     49   def2-QZVP   [6s4p3d1f1g|12s5p4d2f1g]
    o        4     70     49   def2-QZVP   [6s4p3d1f1g|12s5p4d2f1g]
    h       28     16     11   def2-QZVP   [3s1p1d|5s2p1d]
   ---------------------------------------------------------------------------
   total:   58   2548   1778
   ---------------------------------------------------------------------------

   total number of primitive shells          :   80
   total number of contracted shells         :  590
   total number of cartesian basis functions : 2166
   total number of SCF-basis functions       : 1778


 symmetry group of the molecule :   c1 

 the group has the following generators :
   c1(z)

    1 symmetry operations found

 there are 1 real representations :   a   

 maximum number of shells which are related by symmetry :  1


    mo occupation :
   irrep   mo's   occupied
    a     2550      110
 
 number of basis functions   :         2550
 number of occupied orbitals :          110
 
  
           ------------------
           density functional
           ------------------
 TPSS meta-GGA functional
 exchange:    LDA + TPSS
 correlation: LDA (PW) + TPSS
 grinp -> nfun, dfgga, dfhybrid 
           5 F F
 iterations will be done with small grid
  
 spherical integration : Lebedev's spherical grid
 spherical gridsize    :           5
    i.e. gridpoints    :         590
 value for diffuse not defined
 radial integration    : Chebyshev 2nd kind (scaling 3)
 radial gridsize       :           8
 integration cells     :          58
 partition function    : becke
 partition sharpness   :           3
  

 <rddim> : input of entry tasksize
           from data group '$pardft' failed !

               Default values taken

 <rddim> : input of entry memdiv
           from data group '$pardft' failed !

               Default values taken
  RIDFT: memory allocation for DFT gridpoints
  MEMORY is divided by 1 as DEFAULT
 Each node can hold at most  the            1 -th part
 of the gridpoints    

 biggest AO integral is expected to be     6.990327543
  
           ------------------------
               RI-J - INFORMATION
           ------------------------
 
 
 **************************************************
 *      MEMORY ALLOCATION FOR PARALLEL RI-DFT     *
 **************************************************
 
 
MEMORY FOR (MU NU/ ALPHA), SEQUENTIAL RUN               4974 MByte
 
            DIFFERENCE IN MEMORY NEED:       DIAG./SLAVE  
 
      TOTAL DIFFERENCE :                    291 MByte
 
      difference in xcore:                   27 MByte
      difference in fatmat:                  89 MByte
      getcor calls skipped by slaves:       175 MByte
 
 
           Integral memory available for diagonal.      4974 MByte
 
           Integral memory available for slave             0 MByte
 
         MEMORY FOR (MU NU/ ALPHA) ON DIAGONALIZER      4974 MByte
 
         MEMORY FOR (MU NU/ ALPHA) ON ONE SLAVE            0 MByte
 
         TOTAL MEMORY FOR (MU NU/ ALPHA),ALL NODES      4974 MByte
 
 Contributions to RI integral batches: 
  neglected integral batches:      152069
  direct contribution:             118819
  memory contribution:       41557
 Memory core needed for (P|Q) and Cholesky     25 MByte
 Memory core minimum needed except of (P|Q)     4 MByte
 Total minimum memory core needed (sum)        28 MByte
     number of direct tasks:         160
  
 ****************************************
 Memory allocated for RI-J  5002 MByte
 ****************************************
                                            

          ------------------------
          nuclear repulsion energy  :   3070.35079296    
          ------------------------

 
          -----------------
          -S integrals
          -----------------

 1e-integrals will be neglected if expon. factor < 0.106432E-14
 
          -----------------
          -T+V integrals
          -----------------

 1e-integrals will be neglected if expon. factor < 0.106432E-14
 Difference densities >>NOT<< switched on in parallel ridft!

 automatic virtual orbital shift switched on 
      shift if e(lumo)-e(homo) < 0.10000000    


 DIIS switched on: error vector is FDS-SDF
 Max. Iterations for DIIS is     :   4
 DIIS matrix (see manual) 
    Scaling factor of diagonals  :  1.200
    threshold for scaling factor :  0.000

 scf convergence criterion : increment of total energy < .1000000D-08
                  and increment of one-electron energy < .1000000D-05


 <geterg> : there is no data group $energy 

  MOs are in ASCII format !


 reading orbital data $scfmo  from file mos . 

 orbital characterization : expanded
 
 mo provided and orthogonalized by Cholesky decomposition

 DSCF restart information will be dumped onto file mos


 Starting SCF iterations


 ITERATION  ENERGY          1e-ENERGY        2e-ENERGY     RMS[dD(SAO)]   TOL
   1  -1370.6556914652    -7937.9214567     3496.9149723    0.000D+00 0.106D-13
                            Exc = -189.526401224     Coul =  3686.44137353    
                              N = 220.00039028    
                            current damping = 0.700
 
          max. resid. norm for Fia-block=  8.237D-01 for orbital     34a         
          max. resid. fock norm         =  5.673D+01 for orbital   2299a         

 ITERATION  ENERGY          1e-ENERGY        2e-ENERGY     RMS[dD(SAO)]   TOL
   2  -1375.0542202467    -7965.4718580     3520.0668448    0.540D-02 0.106D-13
                            Exc = -190.882215198     Coul =  3710.94905996    
                              N = 220.00029745    
                            current damping = 0.650
 
          Norm of current diis error:  6.6397    
          max. resid. norm for Fia-block=  1.591D-01 for orbital      4a         
          max. resid. fock norm         =  2.909D-01 for orbital   2480a         

 ITERATION  ENERGY          1e-ENERGY        2e-ENERGY     RMS[dD(SAO)]   TOL
   3  -1375.7438577833    -7974.3531312     3528.2584805    0.215D-02 0.106D-13
                            Exc = -191.998148054     Coul =  3720.25662854    
                              N = 220.00024968    
                            current damping = 0.550
 
          Norm of current diis error:  3.2574    
          max. resid. norm for Fia-block=  6.142D-02 for orbital      1a         
          max. resid. fock norm         =  6.510D-02 for orbital      1a         

 ITERATION  ENERGY          1e-ENERGY        2e-ENERGY     RMS[dD(SAO)]   TOL
   4  -1375.9762862547    -7976.4767663     3530.1496871    0.102D-02 0.106D-13
                            Exc = -191.984402218     Coul =  3722.13408928    
                              N = 220.00023329    
                            current damping = 0.450
 
          Norm of current diis error:  1.4062    
          max. resid. norm for Fia-block=  3.943D-02 for orbital     34a         
          max. resid. fock norm         =  8.416D-02 for orbital   2426a         

 ITERATION  ENERGY          1e-ENERGY        2e-ENERGY     RMS[dD(SAO)]   TOL
   5  -1376.0066382547    -7979.2695451     3532.9121139    0.466D-03 0.106D-13
                            Exc = -192.460602629     Coul =  3725.37271655    
                              N = 220.00021855    
                            current damping = 0.350
 
          Norm of current diis error: 0.93322    
          max. resid. norm for Fia-block=  1.594D-02 for orbital    110a         
          max. resid. fock norm         =  2.127D-02 for orbital   2431a         
          mo-orthogonalization: Cholesky decomposition

 ITERATION  ENERGY          1e-ENERGY        2e-ENERGY     RMS[dD(SAO)]   TOL
   6  -1376.0307234900    -7979.6463109     3533.2647945    0.325D-03 0.106D-13
                            Exc = -192.415068196     Coul =  3725.67986265    
                              N = 220.00021710    
                            current damping = 0.200
 
          Norm of current diis error: 0.23173    
          max. resid. norm for Fia-block=  5.251D-03 for orbital    104a         
          max. resid. fock norm         =  8.396D-03 for orbital   2402a         

 ITERATION  ENERGY          1e-ENERGY        2e-ENERGY     RMS[dD(SAO)]   TOL
   7  -1376.0313830940    -7978.9270881     3532.5449121    0.113D-03 0.106D-13
                            Exc = -192.365026504     Coul =  3724.90993857    
                              N = 220.00021928    
                            current damping = 0.250
 
          Norm of current diis error: 0.17724    
          max. resid. norm for Fia-block=  2.630D-03 for orbital     31a         
          max. resid. fock norm         =  4.720D-03 for orbital   2433a         

 ITERATION  ENERGY          1e-ENERGY        2e-ENERGY     RMS[dD(SAO)]   TOL
   8  -1376.0320337468    -7979.4484757     3533.0656490    0.214D-04 0.106D-13
                            Exc = -192.404261081     Coul =  3725.46991012    
                              N = 220.00021748    
                            current damping = 0.300
 
          Norm of current diis error: 0.50437E-01
          max. resid. norm for Fia-block=  1.868D-03 for orbital    110a         
          max. resid. fock norm         =  3.777D-03 for orbital   2433a         

 ITERATION  ENERGY          1e-ENERGY        2e-ENERGY     RMS[dD(SAO)]   TOL
   9  -1376.0320049789    -7979.3846971     3533.0018991    0.147D-04 0.106D-13
                            Exc = -192.415848488     Coul =  3725.41774760    
                              N = 220.00021750    
                            current damping = 0.350
 
          Norm of current diis error: 0.58728E-01
          max. resid. norm for Fia-block=  1.023D-03 for orbital    104a         
          max. resid. fock norm         =  1.524D-03 for orbital   2477a         

 ITERATION  ENERGY          1e-ENERGY        2e-ENERGY     RMS[dD(SAO)]   TOL
  10  -1376.0320851059    -7979.4127345     3533.0298564    0.797D-05 0.106D-13
                            Exc = -192.409330495     Coul =  3725.43918694    
                              N = 220.00021749    
                            current damping = 0.400
 
          Norm of current diis error: 0.22224E-01
          max. resid. norm for Fia-block=  3.693D-04 for orbital    100a         
          max. resid. fock norm         =  5.948D-04 for orbital   2433a         
          mo-orthogonalization: Cholesky decomposition

 ITERATION  ENERGY          1e-ENERGY        2e-ENERGY     RMS[dD(SAO)]   TOL
  11  -1376.0320968719    -7979.4154663     3533.0325765    0.233D-05 0.106D-13
                            Exc = -192.409102515     Coul =  3725.44167900    
                              N = 220.00021744    
                            current damping = 0.250
 
          Norm of current diis error: 0.40990E-02
          max. resid. norm for Fia-block=  1.061D-04 for orbital    110a         
          max. resid. fock norm         =  1.484D-04 for orbital    110a         

 ITERATION  ENERGY          1e-ENERGY        2e-ENERGY     RMS[dD(SAO)]   TOL
  12  -1376.0320971432    -7979.4238011     3533.0409110    0.111D-05 0.106D-13
                            Exc = -192.408378125     Coul =  3725.44928912    
                              N = 220.00021747    
                            current damping = 0.100
 
          Norm of current diis error: 0.26519E-02
          max. resid. norm for Fia-block=  4.355D-05 for orbital    108a         
          max. resid. fock norm         =  8.759D-05 for orbital   2431a         

 ITERATION  ENERGY          1e-ENERGY        2e-ENERGY     RMS[dD(SAO)]   TOL
  13  -1376.0320972832    -7979.4182525     3533.0353623    0.449D-06 0.106D-13
                            Exc = -192.408415288     Coul =  3725.44377755    
                              N = 220.00021746    
                            current damping = 0.150
 
          Norm of current diis error: 0.12191E-02
          max. resid. norm for Fia-block=  1.994D-05 for orbital    104a         
          max. resid. fock norm         =  4.126D-05 for orbital   2431a         

 ITERATION  ENERGY          1e-ENERGY        2e-ENERGY     RMS[dD(SAO)]   TOL
  14  -1376.0320973069    -7979.4205861     3533.0376958    0.204D-06 0.106D-13
                            Exc = -192.408564098     Coul =  3725.44625989    
                              N = 220.00021745    
                            current damping = 0.200
 
          Norm of current diis error: 0.65224E-03
          max. resid. norm for Fia-block=  1.165D-05 for orbital    104a         
          max. resid. fock norm         =  2.743D-05 for orbital   2548a         

 ITERATION  ENERGY          1e-ENERGY        2e-ENERGY     RMS[dD(SAO)]   TOL
  15  -1376.0320973154    -7979.4195454     3533.0366552    0.121D-06 0.106D-13
                            Exc = -192.408520454     Coul =  3725.44517561    
                              N = 220.00021746    
                            current damping = 0.250
 
          Norm of current diis error: 0.30153E-03
          max. resid. norm for Fia-block=  5.459D-06 for orbital    108a         
          max. resid. fock norm         =  1.499D-05 for orbital   2548a         
          mo-orthogonalization: Cholesky decomposition

 DENSITY CONVERGED !


 ITERATION  ENERGY          1e-ENERGY        2e-ENERGY     RMS[dD(SAO)]   TOL
  16  -1376.0320973176    -7979.4199717     3533.0370814    0.498D-07 0.106D-13
                            Exc = -192.408516391     Coul =  3725.44559781    
                              N = 220.00021746    
                            current damping = 0.300
 
          Norm of current diis error: 0.97761E-04
          max. resid. norm for Fia-block=  2.813D-06 for orbital    108a         
          max. resid. fock norm         =  4.239D-06 for orbital   2548a         

 DENSITY CONVERGED !


 ITERATION  ENERGY          1e-ENERGY        2e-ENERGY     RMS[dD(SAO)]   TOL
  17  -1376.0320973178    -7979.4199006     3533.0370103    0.202D-07 0.106D-13
                            Exc = -192.408521501     Coul =  3725.44553180    
                              N = 220.00021745    
                            current damping = 0.350
 
          Norm of current diis error: 0.48935E-04
          max. resid. norm for Fia-block=  9.838D-07 for orbital    108a         
          max. resid. fock norm         =  1.669D-06 for orbital   2435a         

 DENSITY CONVERGED !


 ITERATION  ENERGY          1e-ENERGY        2e-ENERGY     RMS[dD(SAO)]   TOL
  18  -1376.0320973178    -7979.4198393     3533.0369490    0.900D-08 0.106D-13
                            Exc = -192.408518536     Coul =  3725.44546751    
                              N = 220.00021745    
                            current damping = 0.200
 
          Norm of current diis error: 0.17597E-04
          max. resid. norm for Fia-block=  3.431D-07 for orbital    104a         
          max. resid. fock norm         =  7.991D-07 for orbital   2477a         

 DENSITY CONVERGED !


 ITERATION  ENERGY          1e-ENERGY        2e-ENERGY     RMS[dD(SAO)]   TOL
  19  -1376.0320973179    -7979.4198871     3533.0369969    0.367D-08 0.106D-13
                            Exc = -192.408519406     Coul =  3725.44551626    
                              N = 220.00021745    
                            current damping = 0.250
 
          Norm of current diis error: 0.10958E-04
          max. resid. norm for Fia-block=  2.293D-07 for orbital    104a         
          max. resid. fock norm         =  4.168D-07 for orbital   2549a         

 ENERGY & DENSITY CONVERGED !


 ITERATION  ENERGY          1e-ENERGY        2e-ENERGY     RMS[dD(SAO)]   TOL
  20  -1376.0315631492    -7979.4198785     3533.0375224    0.172D-08 0.106D-13
                            Exc = -192.407985451     Coul =  3725.44550780    
                              N = 220.00002678    
                            current damping = 0.300
 
          Norm of current diis error: 0.39232E-05
          max. resid. norm for Fia-block=  6.515D-08 for orbital    108a         
          max. resid. fock norm         =  1.349D-07 for orbital   2548a         

 End of SCF iterations

   convergence criteria satisfied after   20 iterations


                  ------------------------------------------ 
                 |  total energy      =  -1376.03156314923  |
                  ------------------------------------------ 
                 :  kinetic energy    =   1369.78823484105  :
                 :  potential energy  =  -2745.81979799027  :
                 :  virial theorem    =      1.99546280153  :
                 :  wavefunction norm =      1.00000000000  :
                  .......................................... 


 <geterg> : there is no data group $energy 


 <skperg> : $end is missing 


 orbitals $scfmo  will be written to file mos

    irrep                106a        107a        108a        109a        110a   
 eigenvalues H         -0.22841    -0.22201    -0.21882    -0.21462    -0.20893
            eV          -6.2154     -6.0413     -5.9545     -5.8402     -5.6852
 occupation              2.0000      2.0000      2.0000      2.0000      2.0000 

    irrep                111a        112a        113a        114a        115a   
 eigenvalues H         -0.04739    -0.04378    -0.03764    -0.03667    -0.03307
            eV          -1.2894     -1.1912     -1.0242     -0.9978     -0.9000
 
 
 ! grave: sending quit signal to master process
 
 
 
 
 ==============================================================================
                           electrostatic moments
 ==============================================================================

 reference point for electrostatic moments:    0.00000   0.00000   0.00000

 
              nuc           elec       ->  total
 ------------------------------------------------------------------------------
                          charge      
 ------------------------------------------------------------------------------
         220.000000    -220.000000      -0.000000
 
 ------------------------------------------------------------------------------
                       dipole moment  
 ------------------------------------------------------------------------------
   x   -2268.392742    2267.626649      -0.766093
   y   -2824.240237    2823.801223      -0.439014
   z   -3564.683033    3564.611401      -0.071632
 
   | dipole moment | =     0.8859 a.u. =     2.2517 debye 
 
 ------------------------------------------------------------------------------
                     quadrupole moment
 ------------------------------------------------------------------------------
  xx   25481.025778  -25585.041153    -104.015374
  yy   40185.018978  -40304.548192    -119.529213
  zz   62893.702501  -63038.505670    -144.803169
  xy   30013.193699  -29996.191659      17.002040
  xz   36626.129191  -36603.703054      22.426138
  yz   45746.459776  -45739.129528       7.330248
 
     1/3  trace=    -122.782586
     anisotropy=      61.715061
 
 ==============================================================================
 

    ridft profiling
  --------------------------------------------------------------------
             module   cpu total (s)       %  wall total (s)       %

               RIDFT          4296.8  100.00          4298.2  100.00
         Ridft_b_scf            70.9    1.65            70.8    1.65
        b_scf_prelim             0.0    0.00             0.0    0.00
        b_scf_molinp             0.0    0.00             0.0    0.00
         b_scf_init0             0.0    0.00             0.0    0.00
        b_scf_auxbas             0.0    0.00             0.0    0.00
      b_scf_symmetry             0.0    0.00             0.0    0.00
         b_scf_cosmo             0.0    0.00             0.0    0.00
        b_scf_params             8.1    0.19             8.1    0.19
          b_scf_ri-j            20.5    0.48            20.5    0.48
    b_scf_ri-j_auxpq            20.4    0.48            20.4    0.48
     ri-j_auxpq_chol             0.8    0.02             0.8    0.02
         b_scf_1elec             3.5    0.08             3.5    0.08
       b_scf_moinput            38.7    0.90            38.7    0.90
     moinput_orthmos            38.4    0.89            38.4    0.89
    b_scf_dft-dstmax             0.0    0.00             0.0    0.00
           Ridft_scf          4224.9   98.33          4226.2   98.32
          Scf_b_loop             0.0    0.00             0.0    0.00
                noga             0.0    0.00             0.0    0.00
            Scf_loop          4220.4   98.22          4221.5   98.22
     scf_loop_mkdmat            11.1    0.26            11.1    0.26
       scf_loop_ri-j           451.6   10.51           451.3   10.50
      parlp1.bc.dens             1.7    0.04             1.7    0.04
        parlp1.gs.gp             0.0    0.00             0.0    0.00
        parlp2.bc.gq             0.0    0.00             0.0    0.00
        scf_loop_dft          3253.2   75.71          3250.9   75.63
      pardft.bc.dens             0.0    0.00             0.0    0.00
        dft_grid_con             1.9    0.04             1.9    0.04
          dft_xcmrhf          3217.5   74.88          3215.2   74.80
          dft_getval            31.3    0.73            31.4    0.73
          funct2 dst             0.4    0.01             0.4    0.01
      funct2 f2loop1             6.4    0.15             6.5    0.15
      funct2 f2loop2            12.8    0.30            12.8    0.30
          funct2 s+c            11.2    0.26            11.2    0.26
        funct2 cmf_2            10.0    0.23            10.0    0.23
          dft_mkdens          1547.2   36.01          1546.1   35.97
        dft_mgga-fun             1.0    0.02             1.0    0.02
          dft_mkfock          1637.5   38.11          1636.2   38.07
     pardft.red.fock           250.4    5.83           250.2    5.82
     scf_loop_energy             0.1    0.00             0.1    0.00
     scf_loop_mkfock             0.2    0.01             0.2    0.01
       scf_loop_diis           253.9    5.91           253.7    5.90
       scf_loop_diag           136.3    3.17           136.2    3.17
         diag_tritrn            45.5    1.06            45.4    1.06
          diag_rdiag            90.3    2.10            90.3    2.10
     scf_loop_modump            76.2    1.77            80.2    1.87
      scf_loop_ortho            34.8    0.81            34.7    0.81
          Scf_a_loop             4.5    0.10             4.7    0.11
         Ridft_a_scf             1.0    0.02             1.2    0.03
         a_scf_fanal             1.0    0.02             1.2    0.03
 


    ------------------------------------------------------------------------
         total  cpu-time :  1 hours 11 minutes and 42 seconds
         total wall-time :  1 hours 11 minutes and 44 seconds
    ------------------------------------------------------------------------


   ****  ridft : all done  ****


    2018-02-01 19:35:07.986 

