 operating system is UNIX !
 hostname is         c-8-22.local

 ridft (c-8-22.local) : TURBOMOLE V7.0( ) 6 Jul 2015 at 18:30:05
 Copyright (C) 2015 TURBOMOLE GmbH, Karlsruhe


    2015-12-22 01:01:07.113 



                                  r i d f t

                        DFT program with RI approximation 
                                for coulomb part 




                                                 
                                 References:     
                                                 
          TURBOMOLE:                             
              R. Ahlrichs, M. Baer, M. Haeser, H. Horn, and
              C. Koelmel
              Electronic structure calculations on workstation
              computers: the program system TURBOMOLE
              Chem. Phys. Lett. 162: 165 (1989)
          Density Functional:                              
              O. Treutler and R. Ahlrichs                      
              Efficient Molecular Numerical Integration Schemes
              J. Chem. Phys. 102: 346 (1995)                   
          Parallel Version:                                
              Performance of parallel TURBOMOLE for Density    
              Functional Calculations                          
              M. v. Arnim and R. Ahlrichs                      
              J. Comp. Chem. 19: 1746 (1998)                   
          RI-J Method:                                     
              Auxiliary Basis Sets to approximate Coulomb      
              Potentials                                       
              Chem. Phys. Lett. 240: 283 (1995)                
              K. Eichkorn, O. Treutler, H. Oehm, M. Haeser     
              and R. Ahlrichs                                  
              Chem. Phys. Lett. 242: 652 (1995)                
                                                           
              Auxiliary Basis Sets for Main Row Atoms and their
              Use to approximate Coulomb Potentials            
              K. Eichkorn, F. Weigend, O. Treutler and         
              R. Ahlrichs                                      
              Theo. Chem. Acc. 97: 119 (1997)                   
                                                           
              Accurate Coulomb-fitting basis sets for H to Rn 
              F. Weigend                                        
              Phys. Chem. Chem. Phys. 8: 1057 (2006)            
                                                           
          Multipole accelerated RI-J (MARI-J):             
              Fast evaluation of the Coulomb potential for     
              electron densities using multipole accelerated   
              resolution of identity approximation             
              M. Sierka, A. Hogekamp and R. Ahlrichs           
              J. Chem. Phys. 118: 9136 (2003)                  
          RI-JK Method:                                     
              A fully direct RI-HF algorithm: Implementation,
              optimised auxiliary basis sets, demonstration of
              accuracy and efficiency                         
              F. Weigend                                      
              Phys. Chem. Chem. Phys. 4: 4285 (2002)           
          Two-component HF and DFT with spin-orbit coupling:  
              Self-consistent treatment of spin-orbit         
              interactions with efficient Hartree-Fock and    
              density functional methods                      
              M. K. Armbruster, F. Weigend, C. van Wüllen and 
              W. Klopper                                      
              Phys. Chem. Chem. Phys. 10: 1748 (2008)         
          Relativistic all-electron 2c calculations           
              An efficient implementation of two-component    
              relativistic exact-decoupling methods for large 
              molecules                                       
              D. Peng, N. Middendorf, F. Weigend, M. Reiher   
              J. Chem. Phys. 138, 184105 (2013)               
                                         


 


              +--------------------------------------------------+
              |      general information about current run       |
              +--------------------------------------------------+

 

 DENSITY CONVERGENCE CHECK SWITCHED ON !
 SCF CONVERGENCE IF RMS(delta[D]) <     0.1000000000E-06

 PBE functional
 exchange:    LDA + PBE
 correlation: LDA (PW) + PBE
 A DFT calculation using the RI-J approximation will be carried out.
 Allocatable memory for RI due to $ricore (MB):        3000


              +--------------------------------------------------+
              | Atomic coordinate, charge and isotop information |
              +--------------------------------------------------+

                    atomic coordinates            atom    charge  isotop
          0.00000000    2.67618808    0.00000000    c      6.000     0
          0.00000000   -2.67618808    0.00000000    c      6.000     0
          2.33598888   -1.28360826    0.00000000    c      6.000     0
          2.33598888    1.28360826    0.00000000    c      6.000     0
         -2.33598888   -1.28360826    0.00000000    c      6.000     0
         -2.33598888    1.28360826    0.00000000    c      6.000     0
          0.00000000   -5.31498375    0.00000000    c      6.000     0
          0.00000000    5.31498375    0.00000000    c      6.000     0
          2.28826396    6.71755280    0.00000000    c      6.000     0
         -2.28826396    6.71755280    0.00000000    c      6.000     0
          2.28826396   -6.71755280    0.00000000    c      6.000     0
         -2.28826396   -6.71755280    0.00000000    c      6.000     0
         -4.17903009    7.84282142    0.00000000    n      7.000     0
          4.17903009    7.84282142    0.00000000    n      7.000     0
          4.17903009   -7.84282142    0.00000000    n      7.000     0
         -4.17903009   -7.84282142    0.00000000    n      7.000     0
          4.10398763    2.32451333    0.00000000    h      1.000     0
          4.10398763   -2.32451333    0.00000000    h      1.000     0
         -4.10398763   -2.32451333    0.00000000    h      1.000     0
         -4.10398763    2.32451333    0.00000000    h      1.000     0
 
       center of nuclear mass  :    0.00000000    0.00000000    0.00000000
       center of nuclear charge:    0.00000000    0.00000000    0.00000000

              +--------------------------------------------------+
              |               basis set information              |
              +--------------------------------------------------+

              we will work with the 1s 3p 5d 7f 9g ... basis set
              ...i.e. with spherical basis functions...

   type   atoms  prim   cont   basis
   ---------------------------------------------------------------------------
    c       12     66     46   aug-cc-pVTZ   [5s4p3d2f|19s6p3d2f]
    n        4     66     46   aug-cc-pVTZ   [5s4p3d2f|19s6p3d2f]
    h        4     25     23   aug-cc-pVTZ   [4s3p2d|6s3p2d]
   ---------------------------------------------------------------------------
   total:   20   1156    828
   ---------------------------------------------------------------------------

   total number of primitive shells          :   71
   total number of contracted shells         :  260
   total number of cartesian basis functions :  980
   total number of SCF-basis functions       :  828


 integral neglect threshold       :  0.34E-13
 integral storage threshold THIZE :  0.10E-04
 integral storage threshold THIME :         5

 RI-J AUXILIARY BASIS SET information:

              we will work with the 1s 3p 5d 7f 9g ... basis set
              ...i.e. with spherical basis functions...

   type   atoms  prim   cont   basis
   ---------------------------------------------------------------------------
    c       12     70     49   aug-cc-pVTZ   [6s4p3d1f1g|12s5p4d2f1g]
    n        4     70     49   aug-cc-pVTZ   [6s4p3d1f1g|12s5p4d2f1g]
    h        4     16     11   aug-cc-pVTZ   [3s1p1d|5s2p1d]
   ---------------------------------------------------------------------------
   total:   20   1184    828
   ---------------------------------------------------------------------------

   total number of primitive shells          :   56
   total number of contracted shells         :  260
   total number of cartesian basis functions : 1024
   total number of SCF-basis functions       :  828


 symmetry group of the molecule :   c1 

 the group has the following generators :
   c1(z)

    1 symmetry operations found

 there are 1 real representations :   a   

 maximum number of shells which are related by symmetry :  1


    mo occupation :
   irrep   mo's   occupied
    a      828       52
 
 number of basis functions   :          828
 number of occupied orbitals :           52
 
  
           ------------------
           density functional
           ------------------
 PBE functional
 exchange:    LDA + PBE
 correlation: LDA (PW) + PBE
 spherical integration : Lebedev's spherical grid
 spherical gridsize    :           6
    i.e. gridpoints    :         974
 value for diffuse not defined
 radial integration    : Chebyshev 2nd kind (scaling 3)
 radial gridsize       :          10
 integration cells     :          20
 partition function    : becke
 partition sharpness   :           3
  

 biggest AO integral is expected to be     4.229423036
  
           ------------------------
               RI-J - INFORMATION
           ------------------------
 Contributions to RI integral batches: 
  neglected integral batches:        4677
  direct contribution:               1448
  memory contribution:       27805
 Memory core needed for (P|Q) and Cholesky      6 MByte
 Memory core minimum needed except of (P|Q)     4 MByte
 Total minimum memory core needed (sum)         9 MByte
  
 ****************************************
 Memory allocated for RI-J  2886 MByte
 ****************************************
                                            

          ------------------------
          nuclear repulsion energy  :   835.026842054    
          ------------------------

 
          -----------------
          -S,T+V- integrals
          -----------------

 1e-integrals will be neglected if expon. factor < 0.341016E-14
 
   Difference densities algorithm switched on.
   The maximal number of linear combinations of
   difference densities is          20 .

 automatic virtual orbital shift switched on 
      shift if e(lumo)-e(homo) < 0.10000000    


 DIIS switched on: error vector is FDS-SDF
 Max. Iterations for DIIS is     :   4
 DIIS matrix (see manual) 
    Scaling factor of diagonals  :  1.200
    threshold for scaling factor :  0.000

 scf convergence criterion : increment of total energy < .1000000D-08
                  and increment of one-electron energy < .1000000D-05


 <geterg> : there is no data group $energy 

  MOs are in ASCII format !


 reading orbital data $scfmo  from file mos . 

 orbital characterization : expanded
 
 mo provided and orthogonalized by Cholesky decomposition

 DSCF restart information will be dumped onto file mos


 Starting SCF iterations

          Overall gridpoints after grid construction =        671470

 ITERATION  ENERGY          1e-ENERGY        2e-ENERGY     RMS[dD(SAO)]   TOL
   1  -673.92302287164    -2536.2909934     1027.3411285    0.000D+00 0.340D-13
                            Exc = -91.6733024362     Coul =  1119.01443096    
                              N = 103.99999723    
                            current damping = 0.700
 
          max. resid. norm for Fia-block=  4.580D-01 for orbital     43a         
          max. resid. fock norm         =  5.940D+00 for orbital    748a         

 ITERATION  ENERGY          1e-ENERGY        2e-ENERGY     RMS[dD(SAO)]   TOL
   2  -677.40546101069    -2559.4631770     1047.0308739    0.426D-01 0.332D-13
                            Exc = -92.3961004229     Coul =  1139.42697432    
                              N = 103.99999897    
                            current damping = 0.650
 
          Norm of current diis error:  4.5560    
          max. resid. norm for Fia-block=  1.676D-01 for orbital      3a         
          max. resid. fock norm         =  4.732D-01 for orbital    827a         

 ITERATION  ENERGY          1e-ENERGY        2e-ENERGY     RMS[dD(SAO)]   TOL
   3  -677.80234252745    -2565.9047842     1053.0755996    0.932D-02 0.232D-13
                            Exc = -93.0403734367     Coul =  1146.11597301    
                              N = 103.99999894    
                            current damping = 0.550
 
          Norm of current diis error:  2.5631    
          max. resid. norm for Fia-block=  6.909D-02 for orbital      3a         
          max. resid. fock norm         =  8.802D-02 for orbital    161a         

 ITERATION  ENERGY          1e-ENERGY        2e-ENERGY     RMS[dD(SAO)]   TOL
   4  -677.96088470429    -2569.5822055     1056.5944788    0.641D-02 0.175D-13
                            Exc = -92.9237611961     Coul =  1149.51823995    
                              N = 103.99999844    
                            current damping = 0.450
 
          Norm of current diis error:  1.2370    
          max. resid. norm for Fia-block=  4.176D-02 for orbital     21a         
          max. resid. fock norm         =  7.320D-02 for orbital    816a         

 ITERATION  ENERGY          1e-ENERGY        2e-ENERGY     RMS[dD(SAO)]   TOL
   5  -677.99667889689    -2569.6571647     1056.6336438    0.281D-02 0.150D-13
                            Exc = -93.1153129325     Coul =  1149.74895672    
                              N = 103.99999818    
                            current damping = 0.300
 
          Norm of current diis error: 0.55150    
          max. resid. norm for Fia-block=  8.634D-03 for orbital     47a         
          max. resid. fock norm         =  1.696D-02 for orbital     19a         
          irrep a   : virtual orbitals shifted by    0.02008
          mo-orthogonalization: Cholesky decomposition

 ITERATION  ENERGY          1e-ENERGY        2e-ENERGY     RMS[dD(SAO)]   TOL
   6  -678.00426316041    -2570.1816571     1057.1505519    0.131D-02 0.138D-13
                            Exc = -93.1136214130     Coul =  1150.26417329    
                              N = 103.99999810    
                            current damping = 0.200
 
          Norm of current diis error: 0.18771    
          max. resid. norm for Fia-block=  6.347D-03 for orbital     50a         
          max. resid. fock norm         =  7.935D-03 for orbital    819a         
          irrep a   : virtual orbitals shifted by    0.03575

 ITERATION  ENERGY          1e-ENERGY        2e-ENERGY     RMS[dD(SAO)]   TOL
   7  -678.00429605495    -2570.6621914     1057.6310533    0.379D-03 0.134D-13
                            Exc = -93.1095213895     Coul =  1150.74057468    
                              N = 103.99999807    
                            current damping = 0.050
 
          Norm of current diis error: 0.19561    
          max. resid. norm for Fia-block=  2.271D-03 for orbital     50a         
          max. resid. fock norm         =  5.095D-03 for orbital    825a         
          irrep a   : virtual orbitals shifted by    0.04402

 ITERATION  ENERGY          1e-ENERGY        2e-ENERGY     RMS[dD(SAO)]   TOL
   8  -678.00512577751    -2570.3645959     1057.3326281    0.156D-03 0.131D-13
                            Exc = -93.1125977007     Coul =  1150.44522580    
                              N = 103.99999808    
                            current damping = 0.100
 
          Norm of current diis error: 0.23035E-01
          max. resid. norm for Fia-block=  7.165D-04 for orbital     28a         
          max. resid. fock norm         =  1.181D-03 for orbital    828a         
          irrep a   : virtual orbitals shifted by    0.04141

 ITERATION  ENERGY          1e-ENERGY        2e-ENERGY     RMS[dD(SAO)]   TOL
   9  -678.00513582727    -2570.3888949     1057.3569170    0.470D-04 0.130D-13
                            Exc = -93.1169195084     Coul =  1150.47383652    
                              N = 103.99999809    
                            current damping = 0.150
 
          Norm of current diis error: 0.16314E-01
          max. resid. norm for Fia-block=  3.990D-04 for orbital     28a         
          max. resid. fock norm         =  7.711D-04 for orbital    816a         
          irrep a   : virtual orbitals shifted by    0.03879

 ITERATION  ENERGY          1e-ENERGY        2e-ENERGY     RMS[dD(SAO)]   TOL
  10  -678.00514056030    -2570.3902765     1057.3582939    0.185D-04 0.129D-13
                            Exc = -93.1150022843     Coul =  1150.47329617    
                              N = 103.99999808    
                            current damping = 0.050
 
          Norm of current diis error: 0.99935E-02
          max. resid. norm for Fia-block=  1.281D-04 for orbital     52a         
          max. resid. fock norm         =  2.482D-04 for orbital    816a         
          irrep a   : virtual orbitals shifted by    0.04411
          mo-orthogonalization: Cholesky decomposition

 ITERATION  ENERGY          1e-ENERGY        2e-ENERGY     RMS[dD(SAO)]   TOL
  11  -678.00514230514    -2570.3779388     1057.3459545    0.661D-05 0.127D-13
                            Exc = -93.1153708452     Coul =  1150.46132533    
                              N = 103.99999808    
                            current damping = 0.100
 
          Norm of current diis error: 0.39565E-02
          max. resid. norm for Fia-block=  1.056D-04 for orbital     50a         
          max. resid. fock norm         =  1.476D-04 for orbital    822a         
          irrep a   : virtual orbitals shifted by    0.04148

 ITERATION  ENERGY          1e-ENERGY        2e-ENERGY     RMS[dD(SAO)]   TOL
  12  -678.00514222017    -2570.3885335     1057.3565492    0.473D-05 0.127D-13
                            Exc = -93.1147802207     Coul =  1150.47132943    
                              N = 103.99999808    
                            current damping = 0.150
 
          Norm of current diis error: 0.45641E-02
          max. resid. norm for Fia-block=  3.384D-05 for orbital     31a         
          max. resid. fock norm         =  7.826D-05 for orbital    825a         
          irrep a   : virtual orbitals shifted by    0.03880

 ITERATION  ENERGY          1e-ENERGY        2e-ENERGY     RMS[dD(SAO)]   TOL
  13  -678.00514263926    -2570.3845371     1057.3525524    0.180D-05 0.125D-13
                            Exc = -93.1148780824     Coul =  1150.46743048    
                              N = 103.99999808    
                            current damping = 0.200
 
          Norm of current diis error: 0.17988E-02
          max. resid. norm for Fia-block=  2.675D-05 for orbital     50a         
          max. resid. fock norm         =  3.507D-05 for orbital    822a         
          irrep a   : virtual orbitals shifted by    0.03614

 ITERATION  ENERGY          1e-ENERGY        2e-ENERGY     RMS[dD(SAO)]   TOL
  14  -678.00514272944    -2570.3825785     1057.3505937    0.121D-05 0.124D-13
                            Exc = -93.1150485768     Coul =  1150.46564232    
                              N = 103.99999808    
                            current damping = 0.050
 
          Norm of current diis error: 0.75488E-04
          max. resid. norm for Fia-block=  2.787D-06 for orbital     50a         
          max. resid. fock norm         =  5.277D-06 for orbital    825a         
          irrep a   : virtual orbitals shifted by    0.04412

 ITERATION  ENERGY          1e-ENERGY        2e-ENERGY     RMS[dD(SAO)]   TOL
  15  -678.00514272961    -2570.3824465     1057.3504617    0.261D-06 0.122D-13
                            Exc = -93.1150461839     Coul =  1150.46550790    
                              N = 103.99999808    
                            current damping = 0.050
 
          Norm of current diis error: 0.49533E-04
          max. resid. norm for Fia-block=  9.256D-07 for orbital     32a         
          max. resid. fock norm         =  1.457D-06 for orbital    813a         
          irrep a   : virtual orbitals shifted by    0.04412
          mo-orthogonalization: Cholesky decomposition

 DENSITY CONVERGED !


 ITERATION  ENERGY          1e-ENERGY        2e-ENERGY     RMS[dD(SAO)]   TOL
  16  -678.00514272964    -2570.3825042     1057.3505195    0.620D-07 0.120D-13
                            Exc = -93.1150470552     Coul =  1150.46556651    
                              N = 103.99999808    
                            current damping = 0.100
 
          Norm of current diis error: 0.25944E-04
          max. resid. norm for Fia-block=  4.926D-07 for orbital     32a         
          max. resid. fock norm         =  2.596D-06 for orbital    165a         
          irrep a   : virtual orbitals shifted by    0.04146

 ITERATION  ENERGY          1e-ENERGY        2e-ENERGY     RMS[dD(SAO)]   TOL
  17  -678.00514272969    -2570.3825281     1057.3505433    0.110D-06 0.119D-13
                            Exc = -93.1150460754     Coul =  1150.46558936    
                              N = 103.99999808    
                            current damping = 0.050
 
          Norm of current diis error: 0.66973E-05
          max. resid. norm for Fia-block=  1.347D-07 for orbital     34a         
          max. resid. fock norm         =  3.087D-06 for orbital    165a         
          irrep a   : virtual orbitals shifted by    0.04412

 ITERATION  ENERGY          1e-ENERGY        2e-ENERGY     RMS[dD(SAO)]   TOL
  18  -678.00514272969    -2570.3825123     1057.3505275    0.157D-06 0.118D-13
                            Exc = -93.1150453089     Coul =  1150.46557286    
                              N = 103.99999808    
                            current damping = 0.100
 
          Norm of current diis error: 0.20133E-05
          max. resid. norm for Fia-block=  4.269D-08 for orbital     34a         
          max. resid. fock norm         =  2.498D-06 for orbital    200a         
          irrep a   : virtual orbitals shifted by    0.04146

 DENSITY CONVERGED !


 ITERATION  ENERGY          1e-ENERGY        2e-ENERGY     RMS[dD(SAO)]   TOL
  19  -678.00514272968    -2570.3825176     1057.3505328    0.955D-07 0.119D-13
                            Exc = -93.1150458404     Coul =  1150.46557866    
                              N = 103.99999808    
                            current damping = 0.150
 
          Norm of current diis error: 0.75981E-06
          max. resid. norm for Fia-block=  1.607D-08 for orbital     31a         
          max. resid. fock norm         =  3.929D-06 for orbital    165a         
          irrep a   : virtual orbitals shifted by    0.03880

 ENERGY & DENSITY CONVERGED !


 ITERATION  ENERGY          1e-ENERGY        2e-ENERGY     RMS[dD(SAO)]   TOL
  20  -678.00514272966    -2570.3825183     1057.3505335    0.194D-06 0.115D-13
                            Exc = -93.1150457546     Coul =  1150.46557928    
                              N = 103.99999808    
                            current damping = 0.050
 
          Norm of current diis error: 0.44927E-06
          max. resid. norm for Fia-block=  1.467D-08 for orbital     42a         
          max. resid. fock norm         =  4.231D-06 for orbital    165a         

 End of SCF iterations

   convergence criteria satisfied after   20 iterations


                  ------------------------------------------ 
                 |  total energy      =   -678.00514272966  |
                  ------------------------------------------ 
                 :  kinetic energy    =    674.25997024214  :
                 :  potential energy  =  -1352.26511297180  :
                 :  virial theorem    =      1.99447618867  :
                 :  wavefunction norm =      1.00000000000  :
                  .......................................... 


 <geterg> : there is no data group $energy 


 <skperg> : $end is missing 


 orbitals $scfmo  will be written to file mos

    irrep                 48a         49a         50a         51a         52a   
 eigenvalues H         -0.33803    -0.33640    -0.32265    -0.30641    -0.25779
            eV          -9.1984     -9.1539     -8.7799     -8.3380     -7.0148
 occupation              2.0000      2.0000      2.0000      2.0000      2.0000 

    irrep                 53a         54a         55a         56a         57a   
 eigenvalues H         -0.20457    -0.10863    -0.10419    -0.08093    -0.07573
            eV          -5.5666     -2.9561     -2.8353     -2.2021     -2.0607
 
 
 
 
 ==============================================================================
                           electrostatic moments
 ==============================================================================

 reference point for electrostatic moments:    0.00000   0.00000   0.00000

 
              nuc           elec       ->  total
 ------------------------------------------------------------------------------
                          charge      
 ------------------------------------------------------------------------------
         104.000000    -104.000000       0.000000
 
 ------------------------------------------------------------------------------
                       dipole moment  
 ------------------------------------------------------------------------------
   x       0.000000      -0.000000      -0.000000
   y       0.000000      -0.000000      -0.000000
   z       0.000000       0.000000       0.000000
 
   | dipole moment | =     0.0000 a.u. =     0.0000 debye 
 
 ------------------------------------------------------------------------------
                     quadrupole moment
 ------------------------------------------------------------------------------
  xx     813.002951    -891.915805     -78.912854
  yy    3291.377585   -3390.231677     -98.854092
  zz       0.000000     -66.730298     -66.730298
  xy       0.000000       0.000000       0.000000
  xz       0.000000       0.000000       0.000000
  yz       0.000000      -0.000000      -0.000000
 
     1/3  trace=     -81.499081
     anisotropy=      28.089195
 
 ==============================================================================
 
 


    ------------------------------------------------------------------------
         total  cpu-time : 41 minutes and 28 seconds
         total wall-time : 41 minutes and 26 seconds
    ------------------------------------------------------------------------


   ****  ridft : all done  ****


    2015-12-22 01:42:33.493 

