
   OpenMP run-time library returned nthreads = 24

 rirpa (c-9-29) : TURBOMOLE V7.3 ( 22142 ) 4 Jul 2018 at 18:12:42
 Copyright (C) 2018 TURBOMOLE GmbH, Karlsruhe


    2019-02-24 17:38:49.374 

 
 
    *************************************************************************
    *************************** PROGRAM RIRPA *******************************
    ******                                                             ******
    ******              H. Eshuis, J. E. Bates and F. Furche           ******
    ******                                                             ******
    ****** Nov 2011                                                    ******
    ****** Copyright TURBOMOLE GmbH                                    ******
    *************************************************************************
    
    
                                References:                                  
    
                   RIRPA:                                                    
                     H. Eshuis, J. Yarkony and F. Furche                     
                     Fast computation of molecular random phase              
                     approximation correlation energies using resolution     
                     of the identity imaginary frequency integration         
                     J. Chem. Phys. 132: 234114 (2010)                       
    
                     H. Eshuis, J. E. Bates and F. Furche                    
                     Electron correlation methods based on                   
                     the random phase approximation                          
                     Theor. Chem. Acc.  131: 1084 (2012)                     
    
                   TWO-COMPONENT RIRPA:                                      
                     M. Kuehn                                                
                     Correlation energies from the                           
                     two-component random-phase approximation                
                     J. Chem. Theory Comput. 10: 623 (2014)                  
    
                   RIRPA GRADIENTS:                                          
                     Asbjoern M. Burow, Jefferson E. Bates, Filipp Furche*,  
                     and Henk Eshuis                                         
                     Analytical First-Order Molecular Properties and Forces  
                     within the Adiabatic Connection Random Phase            
                     Approximation                                           
                     J. Chem. Theory Comput. 10: 180 (2014)                  
    
    
    
      ... OpenMP parallelization enabled, threads:   24

   *-----------------------------------------------------------------------*
   |                     program will use 24 thread(s)                     |
   *-----------------------------------------------------------------------*
 
                FOUND RI-J FLAG
 
  HF exact exchange energy will be computed using RI-J.
 
  The HXX energy will NOT be computed due to nohxx option. 
 


              +--------------------------------------------------+
              | Atomic coordinate, charge and isotop information |
              +--------------------------------------------------+

                    atomic coordinates            atom    charge  isotop
         -0.84814141    4.47218903   -8.79567114    c      6.000     0
          0.81896534   -4.49550028   -8.78139520    c      6.000     0
         -1.49614268    7.45629374  -11.46780436    c      6.000     0
          1.48658442   -7.48375389  -11.44404956    c      6.000     0
         -1.49589040    8.57397075   -9.03489232    c      6.000     0
          1.46332170   -8.59858308   -9.00995191    c      6.000     0
         -1.09024651    6.59284858   -7.35621345    n      7.000     0
          1.04432085   -6.61494436   -7.33756960    n      7.000     0
         -0.40861417    2.14786198   -7.64611350    n      7.000     0
          0.37367406   -2.16880994   -7.63903931    n      7.000     0
         -0.01304932   -0.01188409   -8.97979585    c      6.000     0
          2.21135033  -12.64119086  -10.79833241    c      6.000     0
         -2.23118529   12.61383352  -10.83481508    c      6.000     0
         -2.23663621   11.52605367  -13.25999341    c      6.000     0
          2.23878575  -11.55643552  -13.22470920    c      6.000     0
          1.88149259   -8.97457527  -13.58563518    c      6.000     0
         -1.87400759    8.94403752  -13.61459920    c      6.000     0
         -1.86355778   11.15545835   -8.67229111    c      6.000     0
          1.82519046  -11.18001115   -8.64096946    c      6.000     0
         -0.00471790   -0.01434527  -11.46794496    n      7.000     0
         -1.08398585    4.86113095  -11.25197458    n      7.000     0
          1.07543501   -4.88799923  -11.23503527    n      7.000     0
         -0.36777719    1.70183559  -12.33223067    h      1.000     0
          0.36616561   -1.73163786  -12.32642127    h      1.000     0
          0.23428446   -2.11911298   -5.68423120    h      1.000     0
         -0.27995443    2.10225325   -5.69047297    h      1.000     0
         -0.72184931    6.65146467   -5.42799265    h      1.000     0
          0.66821320   -6.66976078   -5.41114839    h      1.000     0
         -2.53368812   12.73388196  -14.89121729    h      1.000     0
          2.54856119  -12.76661878  -14.85179836    h      1.000     0
          2.50261420  -14.66226770  -10.60136625    h      1.000     0
         -2.52416371   14.63517378  -10.64298104    h      1.000     0
          1.90756117   -8.13960167  -15.45831900    h      1.000     0
         -1.88305295    8.10667096  -15.48639618    h      1.000     0
          1.82476452  -12.02599826   -6.77114725    h      1.000     0
         -1.88145708   12.00355345   -6.80351127    h      1.000     0
 
       center of nuclear mass  :   -0.01045385   -0.01288004  -10.13438435
       center of nuclear charge:   -0.01043294   -0.01287942  -10.13585556
              +-------------------------------------------------+
              |        Rotational Constants Section             |
              +-------------------------------------------------+
                                   Center of Mass [a.u]:
              -0.01045384988555        -0.01288004477094       -10.13438434941668
                     Principal Moments of Inertia [a.u.]
            1392.65803033777593     19493.65136925379193     20874.06512187877888
                       Rotational constants A,B,C [a.u.]
               0.00035902568262         0.00002564937633         0.00002395316854
                     Rotational constants A,B,C [cm**-1]
               0.04322646707595         0.00308816882769         0.00288394647353
                        Rotational constants A,B,C [MHz]
            1295.89688153547422        92.58097235731698        86.45854020396116

   * BASIS SET information:

              +--------------------------------------------------+
              |               basis set information              |
              +--------------------------------------------------+

              we will work with the 1s 3p 5d 7f 9g ... basis set
              ...i.e. with spherical basis functions...

   type   atoms  prim   cont   basis
   ---------------------------------------------------------------------------
    c       15     50     30   cc-pVTZ   [4s3p2d1f|18s5p2d1f]
    n        7     50     30   cc-pVTZ   [4s3p2d1f|18s5p2d1f]
    h       14     16     14   cc-pVTZ   [3s2p1d|5s2p1d]
   ---------------------------------------------------------------------------
   total:   36   1324    856
   ---------------------------------------------------------------------------

   total number of primitive shells          :   60
   total number of contracted shells         :  304
   total number of cartesian basis functions :  980
   total number of SCF-basis functions       :  856


   * AUXILIARY BASIS SET information:

              +--------------------------------------------------+
              |               basis set information              |
              +--------------------------------------------------+

              we will work with the 1s 3p 5d 7f 9g ... basis set
              ...i.e. with spherical basis functions...

   type   atoms  prim   cont   basis
   ---------------------------------------------------------------------------
    c       15     81     81   cc-pVTZ   [8s6p5d3f1g|8s6p5d3f1g]
    n        7     81     81   cc-pVTZ   [8s6p5d3f1g|8s6p5d3f1g]
    h       14     30     30   cc-pVTZ   [4s3p2d1f|4s3p2d1f]
   ---------------------------------------------------------------------------
   total:   36   2202   2202
   ---------------------------------------------------------------------------

   total number of primitive shells          :   56
   total number of contracted shells         :  646
   total number of cartesian basis functions : 2712
   total number of SCF-basis functions       : 2202


   * RIJ AUXILIARY BASIS SET information:

              +--------------------------------------------------+
              |               basis set information              |
              +--------------------------------------------------+

              we will work with the 1s 3p 5d 7f 9g ... basis set
              ...i.e. with spherical basis functions...

   type   atoms  prim   cont   basis
   ---------------------------------------------------------------------------
    c       15     70     49   cc-pVTZ   [6s4p3d1f1g|12s5p4d2f1g]
    n        7     70     49   cc-pVTZ   [6s4p3d1f1g|12s5p4d2f1g]
    h       14     16     11   cc-pVTZ   [3s1p1d|5s2p1d]
   ---------------------------------------------------------------------------
   total:   36   1764   1232
   ---------------------------------------------------------------------------

   total number of primitive shells          :   56
   total number of contracted shells         :  400
   total number of cartesian basis functions : 1510
   total number of SCF-basis functions       : 1232

  No keyword $dft found! - HARTREE FOCK CALCULATION

 reading orbital data $scfmo  from file mos
 orbital characterization : scfconv=7

 integral neglect threshold       :  0.27E+02

 scfconv                     7

 MAXIMUM CORE MEMORY WHICH CAN BE ALLOCATED DYNAMICALLY = 72000 MiB
              ( or 9437184000 double words per process)


 there are 1 real representations :   a   

 maximum number of shells which are related by symmetry :  1

 entered riccmos at 2019-02-24 17:38:50.381
  MOs are in ASCII format !


 reading orbital data $scfmo  from file mos
 orbital characterization : scfconv=7
 time elapsed for calculating density matrices :   0.120 sec



              +--------------------------------------------+
              | list of orbitals that will be kept frozen: |
              +--------------------------------------------+
              |   irrep   index      energy     occ/vir    |
              +--------------------------------------------+
              |   a         1      -15.8040     occupied   |
              |   a         2      -15.8040     occupied   |
              |   a         3      -15.7555     occupied   |
              |   a         4      -15.7555     occupied   |
              |   a         5      -15.7420     occupied   |
              |   a         6      -15.6869     occupied   |
              |   a         7      -15.6869     occupied   |
              |   a         8      -11.5813     occupied   |
              |   a         9      -11.5070     occupied   |
              |   a        10      -11.5070     occupied   |
              |   a        11      -11.3875     occupied   |
              |   a       ...        ...        occupied   |
              |   a        22      -11.3261     occupied   |
              +--------------------------------------------+



   Molecular Orbital Statistic:
   ============================

   -----------------------------
   orbitals in total:
   -----------------------------
    frozen occupied :     22
    active occupied :     54
    active virtual  :    780
    frozen virtual  :      0
    all together    :    856
   -----------------------------


     time in riccmoinp     cpu:  4.54 sec    wall:  0.92 sec    ratio:  5.0
     time in scfdens       cpu:  0.12 sec    wall:  0.12 sec    ratio:  1.0
     time in mkiao         cpu:  0.00 sec    wall:  0.00 sec    ratio:  0.0
     time in rir12loc      cpu:  0.00 sec    wall:  0.00 sec    ratio:  0.0
     time in riccmos       cpu:  8.57 sec    wall:  1.23 sec    ratio:  7.0
 leave riccmos at 2019-02-24 17:38:51.613

     total memory allocated for calculation of (Q|P)**(-1/2) : 56 MiB


     calculation of (P|Q) ...
     time in lp2sym        cpu:  7.45 sec    wall:  0.33 sec    ratio: 22.7


     calculation of the Cholesky decomposition of (P|Q)**(-1) ...
     time in invmetri      cpu: 30.43 sec    wall:  1.41 sec    ratio: 21.5

   threshold for RMS(d[D]) in SCF was     :  0.10E-06
   integral neglect threshold             :  0.12E-11
   derivative integral neglect threshold  :  0.10E-06


 setting up bound for integral derivative estimation

 increment for numerical differentiation : 0.00050000
 total memory allocated for calculation of (Q|P)**(-1/2) : 56 MiB
 Dividing biap into                   2745  block chunks,
 using                    13 MiB per block
 Reserved                  35970 MiB for BLAS routines
 Estimated total memory usage:                  71978 MiB
 number of passes for ispin    1
 =    1
 
 Number of eigenvalues < 6e-3:                      0
 
 
            -----------------------------
            Complex frequency integration
            -----------------------------
 
 Number of Clenshaw-Curtis nodes:                    100
 Optimized scaling parameter    :    1.00000000000000     
 Sensitivity measure            :  -1.548941530593595E-012
 
 Done with rirpa frequency point #                     1
 Done with rirpa frequency point #                     2
 Done with rirpa frequency point #                     3
 Done with rirpa frequency point #                     4
 Done with rirpa frequency point #                     5
 Done with rirpa frequency point #                     6
 Done with rirpa frequency point #                     7
 Done with rirpa frequency point #                     8
 Done with rirpa frequency point #                     9
 Done with rirpa frequency point #                    10
 Done with rirpa frequency point #                    11
 Done with rirpa frequency point #                    12
 Done with rirpa frequency point #                    13
 Done with rirpa frequency point #                    14
 Done with rirpa frequency point #                    15
 Done with rirpa frequency point #                    16
 Done with rirpa frequency point #                    17
 Done with rirpa frequency point #                    18
 Done with rirpa frequency point #                    19
 Done with rirpa frequency point #                    20
 Done with rirpa frequency point #                    21
 Done with rirpa frequency point #                    22
 Done with rirpa frequency point #                    23
 Done with rirpa frequency point #                    24
 Done with rirpa frequency point #                    25
 Done with rirpa frequency point #                    26
 Done with rirpa frequency point #                    27
 Done with rirpa frequency point #                    28
 Done with rirpa frequency point #                    29
 Done with rirpa frequency point #                    30
 Done with rirpa frequency point #                    31
 Done with rirpa frequency point #                    32
 Done with rirpa frequency point #                    33
 Done with rirpa frequency point #                    34
 Done with rirpa frequency point #                    35
 Done with rirpa frequency point #                    36
 Done with rirpa frequency point #                    37
 Done with rirpa frequency point #                    38
 Done with rirpa frequency point #                    39
 Done with rirpa frequency point #                    40
 Done with rirpa frequency point #                    41
 Done with rirpa frequency point #                    42
 Done with rirpa frequency point #                    43
 Done with rirpa frequency point #                    44
 Done with rirpa frequency point #                    45
 Done with rirpa frequency point #                    46
 Done with rirpa frequency point #                    47
 Done with rirpa frequency point #                    48
 Done with rirpa frequency point #                    49
 Done with rirpa frequency point #                    50
 Done with rirpa frequency point #                    51
 Done with rirpa frequency point #                    52
 Done with rirpa frequency point #                    53
 Done with rirpa frequency point #                    54
 Done with rirpa frequency point #                    55
 Done with rirpa frequency point #                    56
 Done with rirpa frequency point #                    57
 Done with rirpa frequency point #                    58
 Done with rirpa frequency point #                    59
 Done with rirpa frequency point #                    60
 Done with rirpa frequency point #                    61
 Done with rirpa frequency point #                    62
 Done with rirpa frequency point #                    63
 Done with rirpa frequency point #                    64
 Done with rirpa frequency point #                    65
 Done with rirpa frequency point #                    66
 Done with rirpa frequency point #                    67
 Done with rirpa frequency point #                    68
 Done with rirpa frequency point #                    69
 Done with rirpa frequency point #                    70
 Done with rirpa frequency point #                    71
 Done with rirpa frequency point #                    72
 Done with rirpa frequency point #                    73
 Done with rirpa frequency point #                    74
 Done with rirpa frequency point #                    75
 Done with rirpa frequency point #                    76
 Done with rirpa frequency point #                    77
 Done with rirpa frequency point #                    78
 Done with rirpa frequency point #                    79
 Done with rirpa frequency point #                    80
 Done with rirpa frequency point #                    81
 Done with rirpa frequency point #                    82
 Done with rirpa frequency point #                    83
 Done with rirpa frequency point #                    84
 Done with rirpa frequency point #                    85
 Done with rirpa frequency point #                    86
 Done with rirpa frequency point #                    87
 Done with rirpa frequency point #                    88
 Done with rirpa frequency point #                    89
 Done with rirpa frequency point #                    90
 Done with rirpa frequency point #                    91
 Done with rirpa frequency point #                    92
 Done with rirpa frequency point #                    93
 Done with rirpa frequency point #                    94
 Done with rirpa frequency point #                    95
 Done with rirpa frequency point #                    96
 Done with rirpa frequency point #                    97
 Done with rirpa frequency point #                    98
 Done with rirpa frequency point #                    99
 Done with rirpa frequency point #                   100
 


 RI-RPA correlation energy: -0.4217812686735003E+01
 
 
 HXX Energy calculation skipped due to nohxx option
 

                  --------------------------------------------------- 
                 |  HXX+RIRPA total energy     =     -4.21781268674  |
                  ---------------------------------------------------- 
                 :  RIRPA correlation energy   =     -4.21781268674  :
                 :  HXX total energy           =      0.00000000000  :
                 :  Hartree energy             =      0.00000000000  :
                 :  Exact Exchange energy      =      0.00000000000  :
                  .................................................... 


    ------------------------------------------------------------------------
    Rirpa profiling                cpu                    wall         ratio
    ------------------------------------------------------------------------
    module                         sec     %               sec     %
    ------------------------------------------------------------------------
    RIRPA                     15998.5  100.00         1580.2  100.00  10.1
    riccaux                      38.1    0.24            1.8    0.11  21.7
    riccbound                     8.4    0.05            4.1    0.26   2.0
    ccmkbaoi                    186.2    1.16            9.2    0.58  20.3
    cc3idxnrm                   152.5    0.95            7.1    0.45  21.5
    ecrpa                     15595.5   97.48         1555.3   98.43  10.0
    tread                       506.2    3.16          875.4   55.40   0.6
    tqbuild                   13739.4   85.88          606.4   38.38  22.7
    trpaln                      530.2    3.31           22.2    1.41  23.9
    ------------------------------------------------------------------------
    sum                       46767.9  292.33         4664.0  295.16  10.0
    ------------------------------------------------------------------------


    ------------------------------------------------------------------------
         total  cpu-time :  4 hours 26 minutes and 39 seconds
         total wall-time : 26 minutes and 20 seconds
    ------------------------------------------------------------------------

   ****  rirpa : all done  ****


    2019-02-24 18:05:09.540 

