
   OpenMP run-time library returned nthreads = 30

 ricc2 (c-15-33.local) : TURBOMOLE V7.2 ( 21471 ) 11 Oct 2017 at 17:04:51
 Copyright (C) 2017 TURBOMOLE GmbH, Karlsruhe


    2018-04-04 12:12:06.698 



                              R I C C 2 - PROGRAM

                          the quantum chemistry groups
                             at the universities in
                           Karlsruhe, Bochum & Mainz
                                   Germany



   *-----------------------------------------------------------------------*
   |                     program will use 30 thread(s)                     |
   *-----------------------------------------------------------------------*


              +--------------------------------------------------+
              | Atomic coordinate, charge and isotop information |
              +--------------------------------------------------+

                    atomic coordinates            atom    charge  isotop
          1.47400130   12.97840855   10.46321877    c      6.000     0
         -1.42194711  -12.95236318   10.50711918    c      6.000     0
         -3.51827852   -8.71488287   10.67272269    c      6.000     0
          1.22919144   -9.05957629   10.95273739    c      6.000     0
          3.57308963    8.74214504   10.61880143    c      6.000     0
         -1.17165289    9.08563621   10.94293406    c      6.000     0
         -1.17288083  -10.16974409    9.71264374    c      6.000     0
          1.21820004   10.19389350    9.67760254    c      6.000     0
         -0.01577677   -0.00081710   -0.61100156    c      6.000     0
          0.15429197    4.37565313   -0.69054108    c      6.000     0
         -0.19402613   -4.37709458   -0.67856040    c      6.000     0
         -0.55929318   -7.03123591    3.21036313    c      6.000     0
          0.54805534    7.03986009    3.18853604    c      6.000     0
         -0.31877961   -4.55516328    2.04416646    c      6.000     0
          0.30345127    4.56044964    2.03044875    c      6.000     0
          0.58076877    9.15982629    1.54879573    c      6.000     0
         -0.61478594   -9.15470964    1.57576987    c      6.000     0
          0.99711247    9.87365787    6.81274844    c      6.000     0
         -0.97953426   -9.85618032    6.84504121    c      6.000     0
         -0.00403023    0.00250863    2.11154219    c      6.000     0
         -0.74392528   -7.43475782    5.81861435    c      6.000     0
          0.75850110    7.44933785    5.79386139    c      6.000     0
          0.34070212    8.73142991   -1.10144086    c      6.000     0
         -0.39861827   -8.73309227   -1.07762389    c      6.000     0
         -0.17910655   -2.31709543    3.38716175    c      6.000     0
          0.18085094    2.32528402    3.37988952    c      6.000     0
          1.02479054   11.95094915    5.14064543    c      6.000     0
         -1.03036373  -11.93691487    5.17780973    c      6.000     0
          0.81990586   11.60622568    2.55789493    c      6.000     0
         -0.85134166  -11.59820735    2.59240284    c      6.000     0
          0.02193858    2.18166975   -1.94927934    n      7.000     0
         -0.06672775   -2.18648606   -1.94364909    n      7.000     0
          0.13355147    6.51560640   -2.18085243    n      7.000     0
         -0.19352271   -6.52056992   -2.16406656    n      7.000     0
         -0.71180296   -5.82922647    7.09345346    h      1.000     0
          0.74579439    5.84626805    7.07218421    h      1.000     0
          1.20982307   13.85044838    5.88201126    h      1.000     0
         -1.21256395  -13.83432520    5.92511799    h      1.000     0
         -0.20128702   -2.31305349    5.43959803    h      1.000     0
          0.22184874    2.32620338    5.43205972    h      1.000     0
          0.84152149   13.22104769    1.28896670    h      1.000     0
         -0.89126969  -13.21558200    1.32720077    h      1.000     0
         -0.39306323  -10.36850454   -2.33336202    h      1.000     0
          0.31715197   10.36393541   -2.36071770    h      1.000     0
         -1.55225091  -13.06116624   12.56760513    h      1.000     0
          1.62652034   13.09185297   12.52191892    h      1.000     0
         -1.39328016    7.07229742   10.52134693    h      1.000     0
          3.44669246    6.72205728   10.19043378    h      1.000     0
         -3.39522541   -6.69602570   10.23763233    h      1.000     0
          1.44796069   -7.04728951   10.52466264    h      1.000     0
         -3.12774186  -13.82428811    9.72380578    h      1.000     0
          0.22085682  -14.06739060    9.92284383    h      1.000     0
          3.17055302   13.84961217    9.65934363    h      1.000     0
         -0.17576722   14.09116736    9.89447375    h      1.000     0
          5.29559352    9.48212419    9.74469141    h      1.000     0
         -2.87285749   10.07196214   10.30104757    h      1.000     0
         -5.24932510   -9.45656504    9.81712783    h      1.000     0
          2.92380070  -10.04822525   10.29713433    h      1.000     0
         -3.66821506   -8.91595502   12.72633173    h      1.000     0
          1.10891264   -9.26470625   13.00791869    h      1.000     0
         -1.03209869    9.29552243   12.99640534    h      1.000     0
          3.74274055    8.94867302   12.67033744    h      1.000     0
         -0.84814141    4.47218903   -8.79567114    c      0.000     0
          0.81896534   -4.49550028   -8.78139520    c      0.000     0
         -1.49614268    7.45629374  -11.46780436    c      0.000     0
          1.48658442   -7.48375389  -11.44404956    c      0.000     0
         -1.49589040    8.57397075   -9.03489232    c      0.000     0
          1.46332170   -8.59858308   -9.00995191    c      0.000     0
         -1.09024651    6.59284858   -7.35621345    n      0.000     0
          1.04432085   -6.61494436   -7.33756960    n      0.000     0
         -0.40861417    2.14786198   -7.64611350    n      0.000     0
          0.37367406   -2.16880994   -7.63903931    n      0.000     0
         -0.01304932   -0.01188409   -8.97979585    c      0.000     0
          2.21135033  -12.64119086  -10.79833241    c      0.000     0
         -2.23118529   12.61383352  -10.83481508    c      0.000     0
         -2.23663621   11.52605367  -13.25999341    c      0.000     0
          2.23878575  -11.55643552  -13.22470920    c      0.000     0
          1.88149259   -8.97457527  -13.58563518    c      0.000     0
         -1.87400759    8.94403752  -13.61459920    c      0.000     0
         -1.86355778   11.15545835   -8.67229111    c      0.000     0
          1.82519046  -11.18001115   -8.64096946    c      0.000     0
         -0.00471790   -0.01434527  -11.46794496    n      0.000     0
         -1.08398585    4.86113095  -11.25197458    n      0.000     0
          1.07543501   -4.88799923  -11.23503527    n      0.000     0
         -0.36777719    1.70183559  -12.33223067    h      0.000     0
          0.36616561   -1.73163786  -12.32642127    h      0.000     0
          0.23428446   -2.11911298   -5.68423120    h      0.000     0
         -0.27995443    2.10225325   -5.69047297    h      0.000     0
         -0.72184931    6.65146467   -5.42799265    h      0.000     0
          0.66821320   -6.66976078   -5.41114839    h      0.000     0
         -2.53368812   12.73388196  -14.89121729    h      0.000     0
          2.54856119  -12.76661878  -14.85179836    h      0.000     0
          2.50261420  -14.66226770  -10.60136625    h      0.000     0
         -2.52416371   14.63517378  -10.64298104    h      0.000     0
          1.90756117   -8.13960167  -15.45831900    h      0.000     0
         -1.88305295    8.10667096  -15.48639618    h      0.000     0
          1.82476452  -12.02599826   -6.77114725    h      0.000     0
         -1.88145708   12.00355345   -6.80351127    h      0.000     0
 
       center of nuclear mass  :   -0.00506648   -0.00190763   -1.53498126
       center of nuclear charge:   -0.00050369    0.00560590    4.36462909

              +--------------------------------------------------+
              |               basis set information              |
              +--------------------------------------------------+

              we will work with the 1s 3p 5d 7f 9g ... basis set
              ...i.e. with spherical basis functions...

   type   atoms  prim   cont   basis
   ---------------------------------------------------------------------------
    c       45     50     30   cc-pVTZ   [4s3p2d1f|18s5p2d1f]
    n       11     50     30   cc-pVTZ   [4s3p2d1f|18s5p2d1f]
    h       42     16     14   cc-pVTZ   [3s2p1d|5s2p1d]
   ---------------------------------------------------------------------------
   total:   98   3472   2268
   ---------------------------------------------------------------------------

   total number of primitive shells          :   60
   total number of contracted shells         :  812
   total number of cartesian basis functions : 2590
   total number of SCF-basis functions       : 2268


 symmetry group of the molecule :   c1 

 the group has the following generators :
   c1(z)

    1 symmetry operations found

 there are 1 real representations :   a   


   =========================================================================


     restricted closed shell calculation for the wavefunction models:
               MP2        - Second Order Moeller Plesset PT


     global parameters for ricc2 program:

        hard restart (reuse of interm.) :  disabled
        soft restart (reuse of vectors) :  disabled
        threshold for vector function   :    0.100000E-05
        convergence threshold energy    :    0.100000E-06
        linear dependence threshold     :    0.100000E-13
        global print level              :      1
        maximum number of iterations    :   300
        maximum number DIIS vectors     :    10
        max. dim. of reduced space      :   100
        core memory limit (MB)          : *****


     MP2 energy only: Energy will be calculated directly from T2 amplitudes!

     Scratch Directory : 


   =========================================================================

    der. integral neglect threshold  :  0.10E-07
    integral neglect threshold       :  0.13E-11
    integral storage threshold THIZE :  0.10E-04
    integral storage threshold THIME :         5


                  +------------------------------------------+
                  |     Auxiliary basis set information      |
                  +------------------------------------------+

              we will work with the 1s 3p 5d 7f 9g ... basis set
              ...i.e. with spherical basis functions...

   type   atoms  prim   cont   basis
   ---------------------------------------------------------------------------
    c       45     81     81   cc-pVTZ   [8s6p5d3f1g|8s6p5d3f1g]
    n       11     81     81   cc-pVTZ   [8s6p5d3f1g|8s6p5d3f1g]
    h       42     30     30   cc-pVTZ   [4s3p2d1f|4s3p2d1f]
   ---------------------------------------------------------------------------
   total:   98   5796   5796
   ---------------------------------------------------------------------------

   total number of primitive shells          :   56
   total number of contracted shells         : 1708
   total number of cartesian basis functions : 7126
   total number of SCF-basis functions       : 5796


 maximum number of shells which are related by symmetry :  1


 The symmetry information takes   1 MB

*---------------------------------------------------------------------*
|               simplified C1 algorithm will be applied               |
*---------------------------------------------------------------------*
  MOs are in ASCII format !


 reading orbital data $scfmo  from file mos
 orbital characterization : scfconv=7



              +--------------------------------------------+
              | list of orbitals that will be kept frozen: |
              +--------------------------------------------+
              |   irrep   index      energy     occ/vir    |
              +--------------------------------------------+
              |   a         1      -15.5587     occupied   |
              |   a         2      -15.5587     occupied   |
              |   a         3      -15.5462     occupied   |
              |   a         4      -15.5462     occupied   |
              |   a         5      -11.3135     occupied   |
              |   a         6      -11.3134     occupied   |
              |   a         7      -11.3056     occupied   |
              |   a         8      -11.2956     occupied   |
              |   a         9      -11.2956     occupied   |
              |   a        10      -11.2736     occupied   |
              |   a        11      -11.2736     occupied   |
              |   a        12      -11.2718     occupied   |
              |   a        13      -11.2718     occupied   |
              |   a        14      -11.2649     occupied   |
              |   a        15      -11.2649     occupied   |
              |   a        16      -11.2615     occupied   |
              |   a        17      -11.2615     occupied   |
              |   a        18      -11.2597     occupied   |
              |   a        19      -11.2597     occupied   |
              |   a        20      -11.2569     occupied   |
              |   a        21      -11.2569     occupied   |
              |   a        22      -11.2525     occupied   |
              |   a        23      -11.2518     occupied   |
              |   a        24      -11.2518     occupied   |
              |   a        25      -11.2471     occupied   |
              |   a        26      -11.2471     occupied   |
              |   a        27      -11.2455     occupied   |
              |   a        28      -11.2455     occupied   |
              |   a        29      -11.2300     occupied   |
              |   a        30      -11.2300     occupied   |
              |   a        31      -11.2298     occupied   |
              |   a        32      -11.2298     occupied   |
              |   a        33      -11.2290     occupied   |
              |   a        34      -11.2290     occupied   |
              +--------------------------------------------+



   Molecular Orbital Statistic:
   ============================

   -----------------------------
   orbitals in total:
   -----------------------------
    frozen occupied :     34
    active occupied :     84
    active virtual  :   2150
    frozen virtual  :      0
    all together    :   2268
   -----------------------------


     time in riccmos       cpu: 34.19 sec    wall:  6.86 sec    ratio:  5.0

     total memory allocated for calculation of (Q|P)**(-1/2) : 385 MiB


     calculation of (P|Q) ...
     time in lp2sym        cpu: 42.44 sec    wall:  1.48 sec    ratio: 28.7


     calculation of the Cholesky decomposition of (P|Q)**(-1) ...
     time in invmetri      cpu: 11 min 27 s  wall:  0 min 25 s  ratio: 27.0

   threshold for RMS(d[D]) in SCF was     :  0.10E-06
   integral neglect threshold             :  0.13E-11
   derivative integral neglect threshold  :  0.10E-07


   =========================================================================

     Energy of reference wave function is -1370.6169991540000
     Maximum orbital residual is           0.5591207464058E-05


     Number of symmetry-nonredundant auxiliary basis functions:     5796

     Block lengths for integral files:
        frozen occupied (BOI):        2 MiB
        active occupied (BJI):        4 MiB
        active virtual  (BAI):       96 MiB
        frozen virtual  (BGI):        0 MiB
               general  (BTI):      101 MiB

   =========================================================================




   **************************************************************************
   *                                                                        *
   *          OPTIMIZATION OF THE GROUND STATE CLUSTER AMPLITUDES           *
   *                                                                        *
   **************************************************************************


   Iter.   MP2 energy       Norm(Omega)    Norm(t1)  Norm(t2)     cpu    wall
   ...........................................................................
    1  -1376.2313036903     ------          0.00000   0.82137  497.40   19.03
   ...........................................................................


     time in total         cpu:  8 h 17 min  wall:  0 h 19 min  ratio: 26.1


     **********************************************************************
     *                                                                    *
     *   RHF  energy                             :  -1370.6169991540      *
     *   MP2 correlation energy (doubles)        :     -5.6143045363      *
     *                                                                    *
     *   Final MP2 energy                        :  -1376.2313036903      *
     *                                                                    *
     *    E(S)   =     -3.4323702998      E(T)   =     -2.1819342365      *
     *    E(OS)  =     -4.1596817119      E(SS)  =     -1.4546228243      *
     *                                                                    *
     *   SCS-MP2 energy                          :  -1376.0934914831      *
     *   (computed with  C(OS) =   1.2000  and  C(SS) =   0.3333)         *
     *                                                                    *
     *   SOS-MP2 energy                          :  -1376.0245853795      *
     *   (computed with  C(OS) =   1.3000)                                *
     *                                                                    *
     *   Norm of MP1 T2 amplitudes               :      0.8213659221      *
     *                                                                    *
     **********************************************************************



    ------------------------------------------------------------------------
         total  cpu-time :  9 hours  3 minutes and 42 seconds
         total wall-time : 21 minutes and  3 seconds
    ------------------------------------------------------------------------

   ****  ricc2 : all done  ****


    2018-04-04 12:33:09.119 

