
   OpenMP run-time library returned nthreads = 28
 operating system is UNIX !

 dscf (c-19-413) : TURBOMOLE V7.3 ( 22142 ) 4 Jul 2018 at 18:12:42
 Copyright (C) 2018 TURBOMOLE GmbH, Karlsruhe


    2019-04-02 15:37:15.581 



                             d s c f - program

                   idea & directorship : reinhart ahlrichs
                   program development : marco haeser
                                         michael baer
                           dft version : oliver treutler


                          quantum chemistry group
                          universitaet  karlsruhe
                                  germany




                          References             
                                                 
          TURBOMOLE:                             
              R. Ahlrichs, M. Baer, M. Haeser, H. Horn, and
              C. Koelmel
              Electronic structure calculations on workstation
              computers: the program system TURBOMOLE
              Chem. Phys. Lett. 162: 165 (1989)
          Density Functional:                              
              O. Treutler and R. Ahlrichs                      
              Efficient Molecular Numerical Integration Schemes
              J. Chem. Phys. 102: 346 (1995)                   
          Parallel Version:                                
              Performance of parallel TURBOMOLE for Density    
              Functional Calculations                          
              M. v. Arnim and R. Ahlrichs                      
              J. Comp. Chem. 19: 1746 (1998)                   
                                         




              +--------------------------------------------------+
              | Atomic coordinate, charge and isotop information |
              +--------------------------------------------------+

                    atomic coordinates            atom    charge  isotop
         -1.20212080   -0.04399738    0.53025587    o      8.000     0
          0.58221966   -0.08896594    0.14449544    h      1.000     0
         -2.17708811   -2.47797479    0.02883637    c      6.000     0
         -4.17619086   -2.44958659    0.49880429    h      1.000     0
         -1.99670398   -3.00971174   -1.95811647    h      1.000     0
         -1.27525474   -3.94248416    1.17259670    h      1.000     0
          4.17708707   -0.23077670   -0.02287079    o      8.000     0
          5.06297048    0.93024179   -1.09938343    h      1.000     0
          5.13864384    0.06594609    2.47481298    c      6.000     0
          4.09254988   -1.23455668    3.66558777    h      1.000     0
          7.13985645   -0.40731484    2.58200418    h      1.000     0
          4.85057467    1.97588105    3.18892640    h      1.000     0
 
       center of nuclear mass  :    1.52240637   -0.65006807    0.72481695
       center of nuclear charge:    1.55136350   -0.69157950    0.75766366

              +--------------------------------------------------+
              |               basis set information              |
              +--------------------------------------------------+

              we will work with the 1s 3p 5d 7f 9g ... basis set
              ...i.e. with spherical basis functions...

   type   atoms  prim   cont   basis
   ---------------------------------------------------------------------------
    o        2     77     55   cc-pVQZ   [5s4p3d2f1g|21s6p3d2f1g]
    h        8     32     30   cc-pVQZ   [4s3p2d1f|6s3p2d1f]
    c        2     77     55   cc-pVQZ   [5s4p3d2f1g|21s6p3d2f1g]
   ---------------------------------------------------------------------------
   total:   12    564    460
   ---------------------------------------------------------------------------

   total number of primitive shells          :   78
   total number of contracted shells         :  140
   total number of cartesian basis functions :  560
   total number of SCF-basis functions       :  460


 integral neglect threshold       :  0.60E-13
 integral storage threshold THIZE :  0.10E-04
 integral storage threshold THIME :         5


 DENSITY CONVERGENCE CHECK SWITCHED ON !
 SCF CONVERGENCE IF RMS(delta[D]) <     0.1000000000E-06


 symmetry group of the molecule :   c1 

 the group has the following generators :
   c1(z)

    1 symmetry operations found

 there are 1 real representations :   a   

 maximum number of shells which are related by symmetry :  1


    mo occupation :
   irrep   mo's   occupied
    a      460       18
 
 number of basis functions   :                    460
 number of occupied orbitals :                     18
 

 automatic virtual orbital shift switched on 
      shift if e(lumo)-e(homo) < 0.10000000    


          ------------------------
          nuclear repulsion energy  :   129.521568333    
          ------------------------


         -----------------
         -S,T+V- integrals
         -----------------

 1e-integrals will be neglected if expon. factor < 0.596779E-14
 
   Difference densities algorithm switched on.
   The maximal number of linear combinations of
   difference densities is                    20 .

 DIIS switched on: error vector is FDS-SDF
 Max. Iterations for DIIS is     :   5
 DIIS matrix (see manual) 
    Scaling factor of diagonals  :  1.200
    threshold for scaling factor :  0.000

 scf convergence criterion : increment of total energy < .1000000D-08
                  and increment of one-electron energy < .1000000D-05

  MOs are in ASCII format !


 reading orbital data $scfmo  from file mos
 orbital characterization : scfconv=9

 DSCF restart information will be dumped onto file mos

 
                                              current damping :  0.700
 ITERATION  ENERGY          1e-ENERGY        2e-ENERGY     RMS[dD(SAO)]   TOL
   1  -230.15901152480    -571.81108328     212.13050343    0.000D+00 0.595D-13
          max. resid. norm for Fia-block=  1.185D-01 for orbital      1a         
          max. resid. fock norm         =  2.539D-01 for orbital    457a         
          Delta Eig. =    29.9384763805 eV 
 
                                              current damping :  0.650
 ITERATION  ENERGY          1e-ENERGY        2e-ENERGY     RMS[dD(SAO)]   TOL
   2  -230.19484063412    -571.61061382     211.89420485    0.811D-03 0.383D-13
          Norm of current diis error: 0.54112    
          max. resid. norm for Fia-block=  5.394D-02 for orbital      2a         
          max. resid. fock norm         =  9.954D-02 for orbital    459a         
          Delta Eig. =    12.7717698896 eV 
 
                                              current damping :  0.600
 ITERATION  ENERGY          1e-ENERGY        2e-ENERGY     RMS[dD(SAO)]   TOL
   3  -230.20172250750    -571.64821765     211.92492681    0.370D-03 0.291D-13
          Norm of current diis error: 0.23148    
          max. resid. norm for Fia-block=  2.307D-02 for orbital      1a         
          max. resid. fock norm         =  3.768D-02 for orbital    458a         
          Delta Eig. =     5.1744381892 eV 
 
                                              current damping :  0.450
 ITERATION  ENERGY          1e-ENERGY        2e-ENERGY     RMS[dD(SAO)]   TOL
   4  -230.20305215011    -571.66128734     211.93666686    0.167D-03 0.254D-13
          Norm of current diis error: 0.92282E-01
          max. resid. norm for Fia-block=  8.508D-03 for orbital      1a         
          max. resid. fock norm         =  1.432D-02 for orbital    459a         
          Delta Eig. =     2.1652960835 eV 
 
                                              current damping :  0.500
 ITERATION  ENERGY          1e-ENERGY        2e-ENERGY     RMS[dD(SAO)]   TOL
   5  -230.20327620486    -571.65222350     211.92737897    0.713D-04 0.232D-13
          Norm of current diis error: 0.30843E-01
          max. resid. norm for Fia-block=  2.677D-03 for orbital      1a         
          max. resid. fock norm         =  4.260D-03 for orbital    459a         
 mo-orthogonalization: Cholesky decomposition
          Delta Eig. =     0.6348842096 eV 
 
                                              current damping :  0.550
 ITERATION  ENERGY          1e-ENERGY        2e-ENERGY     RMS[dD(SAO)]   TOL
   6  -230.20330202860    -571.65397278     211.92910242    0.236D-04 0.221D-13
          Norm of current diis error: 0.11390E-01
          max. resid. norm for Fia-block=  8.657D-04 for orbital      1a         
          max. resid. fock norm         =  1.489D-03 for orbital    459a         
          Delta Eig. =     0.2099882865 eV 
 
                                              current damping :  0.600
 ITERATION  ENERGY          1e-ENERGY        2e-ENERGY     RMS[dD(SAO)]   TOL
   7  -230.20330564668    -571.65325824     211.92838426    0.824D-05 0.210D-13
          Norm of current diis error: 0.45101E-02
          max. resid. norm for Fia-block=  3.117D-04 for orbital     12a         
          max. resid. fock norm         =  5.208D-04 for orbital    459a         
          Delta Eig. =     0.0713998664 eV 
 
                                              current damping :  0.450
 ITERATION  ENERGY          1e-ENERGY        2e-ENERGY     RMS[dD(SAO)]   TOL
   8  -230.20330625038    -571.65325345     211.92837887    0.319D-05 0.199D-13
          Norm of current diis error: 0.19362E-02
          max. resid. norm for Fia-block=  1.333D-04 for orbital     12a         
          max. resid. fock norm         =  1.975D-04 for orbital    459a         
          Delta Eig. =     0.0297420598 eV 
 
                                              current damping :  0.300
 ITERATION  ENERGY          1e-ENERGY        2e-ENERGY     RMS[dD(SAO)]   TOL
   9  -230.20330638025    -571.65318299     211.92830827    0.153D-05 0.185D-13
          Norm of current diis error: 0.74036E-03
          max. resid. norm for Fia-block=  5.439D-05 for orbital      9a         
          max. resid. fock norm         =  6.221D-05 for orbital    459a         
          Delta Eig. =     0.0103662846 eV 
 
                                              current damping :  0.150
 ITERATION  ENERGY          1e-ENERGY        2e-ENERGY     RMS[dD(SAO)]   TOL
  10  -230.20330640349    -571.65314310     211.92826836    0.674D-06 0.171D-13
          Norm of current diis error: 0.24548E-03
          max. resid. norm for Fia-block=  2.039D-05 for orbital      9a         
          max. resid. fock norm         =  2.153D-05 for orbital      9a         
 mo-orthogonalization: Cholesky decomposition
          Delta Eig. =     0.0027265856 eV 
 
                                              current damping :  0.050
 ITERATION  ENERGY          1e-ENERGY        2e-ENERGY     RMS[dD(SAO)]   TOL
  11  -230.20330640676    -571.65312494     211.92825020    0.269D-06 0.158D-13
          Norm of current diis error: 0.68420E-04
          max. resid. norm for Fia-block=  6.675D-06 for orbital      9a         
          max. resid. fock norm         =  7.041D-06 for orbital      9a         
          Delta Eig. =     0.0004010577 eV 

 DENSITY CONVERGED !

 
                                              current damping :  0.050
 ITERATION  ENERGY          1e-ENERGY        2e-ENERGY     RMS[dD(SAO)]   TOL
  12  -230.20330640708    -571.65311829     211.92824355    0.899D-07 0.148D-13
          Norm of current diis error: 0.16701E-04
          max. resid. norm for Fia-block=  1.856D-06 for orbital      9a         
          max. resid. fock norm         =  1.954D-06 for orbital      9a         
          Delta Eig. =     0.0000261387 eV 

 ENERGY & DENSITY CONVERGED !

 
                                              current damping :  0.050
 ITERATION  ENERGY          1e-ENERGY        2e-ENERGY     RMS[dD(SAO)]   TOL
  13  -230.20330640710    -571.65311651     211.92824177    0.238D-07 0.170D-13
          max. resid. norm for Fia-block=  2.859D-07 for orbital      9a         
          max. resid. fock norm         =  2.991D-07 for orbital      9a         

 convergence criteria satisfied after    13 iterations


                  ------------------------------------------ 
                 |  total energy      =   -230.20330640710  |
                  ------------------------------------------ 
                 :  kinetic energy    =    229.99691695959  :
                 :  potential energy  =   -460.20022336670  :
                 :  virial theorem    =      1.99910344708  :
                 :  wavefunction norm =      1.00000000000  :
                  .......................................... 


 orbitals $scfmo  will be written to file mos

    irrep                 14a         15a         16a         17a         18a   
 eigenvalues H         -0.57098    -0.52632    -0.48567    -0.46646    -0.42545
            eV         -15.5372    -14.3220    -13.2159    -12.6932    -11.5773
 occupation              2.0000      2.0000      2.0000      2.0000      2.0000 

    irrep                 19a         20a         21a         22a         23a   
 eigenvalues H          0.10177     0.13546     0.14000     0.17686     0.18222
            eV           2.7692      3.6862      3.8096      4.8126      4.9584
 
 
 
 
 ==============================================================================
                           electrostatic moments
 ==============================================================================

 reference point for electrostatic moments:    0.00000   0.00000   0.00000

 
              nuc           elec       ->  total
 ------------------------------------------------------------------------------
                          charge      
 ------------------------------------------------------------------------------
          36.000000     -36.000000       0.000000
 
 ------------------------------------------------------------------------------
                       dipole moment  
 ------------------------------------------------------------------------------
   x      55.849086     -54.689648       1.159439
   y     -24.896862      24.861015      -0.035847
   z      27.275892     -27.260047       0.015845
 
   | dipole moment | =     1.1601 a.u. =     2.9487 debye 
 
 ------------------------------------------------------------------------------
                     quadrupole moment
 ------------------------------------------------------------------------------
  xx     478.298356    -492.088800     -13.790444
  yy      74.379224     -93.405690     -19.026466
  zz      75.966802     -94.349989     -18.383187
  xy      54.661793     -51.256541       3.405252
  xz     113.816865    -112.522750       1.294115
  yz       0.142961      -0.952621      -0.809660
 
     1/3  trace=     -17.066699
     anisotropy=       8.138770
 
 ==============================================================================
 


    ------------------------------------------------------------------------
         total  cpu-time : 18 minutes and 35 seconds
         total wall-time :  1 minutes and 27 seconds
    ------------------------------------------------------------------------

   ****  dscf : all done  ****


    2019-04-02 15:38:42.202 

