           Doing BLAS/Lapack in the master proc. with  8 CPUs.
           SMPCPUS    set: Shared-memory Parallelization with   8 CPUs.

           SMP Parallelization Reference:
           C. van Wullen, J. Comput. Chem. 32 (2011) 1195--1201
 operating system is UNIX !

 ridft (c-12-14.gp.local) : TURBOMOLE V7.2 ( 21454 ) 4 Oct 2017 at 12:48:15
 Copyright (C) 2017 TURBOMOLE GmbH, Karlsruhe


    2018-04-29 16:11:55.175 



                                  r i d f t

                        DFT program with RI approximation 
                                for coulomb part 




                                                 
                                 References:     
                                                 
          TURBOMOLE:                             
              R. Ahlrichs, M. Baer, M. Haeser, H. Horn, and
              C. Koelmel
              Electronic structure calculations on workstation
              computers: the program system TURBOMOLE
              Chem. Phys. Lett. 162: 165 (1989)
          Density Functional:                              
              O. Treutler and R. Ahlrichs                      
              Efficient Molecular Numerical Integration Schemes
              J. Chem. Phys. 102: 346 (1995)                   
          Parallel Version:                                
              Performance of parallel TURBOMOLE for Density    
              Functional Calculations                          
              M. v. Arnim and R. Ahlrichs                      
              J. Comp. Chem. 19: 1746 (1998)                   
          RI-J Method:                                     
              Auxiliary Basis Sets to approximate Coulomb      
              Potentials                                       
              Chem. Phys. Lett. 240: 283 (1995)                
              K. Eichkorn, O. Treutler, H. Oehm, M. Haeser     
              and R. Ahlrichs                                  
              Chem. Phys. Lett. 242: 652 (1995)                
                                                           
              Auxiliary Basis Sets for Main Row Atoms and their
              Use to approximate Coulomb Potentials            
              K. Eichkorn, F. Weigend, O. Treutler and         
              R. Ahlrichs                                      
              Theo. Chem. Acc. 97: 119 (1997)                   
                                                           
              Accurate Coulomb-fitting basis sets for H to Rn 
              F. Weigend                                        
              Phys. Chem. Chem. Phys. 8: 1057 (2006)            
                                                           
          Multipole accelerated RI-J (MARI-J):             
              Fast evaluation of the Coulomb potential for     
              electron densities using multipole accelerated   
              resolution of identity approximation             
              M. Sierka, A. Hogekamp and R. Ahlrichs           
              J. Chem. Phys. 118: 9136 (2003)                  
          RI-JK Method:                                     
              A fully direct RI-HF algorithm: Implementation,
              optimised auxiliary basis sets, demonstration of
              accuracy and efficiency                         
              F. Weigend                                      
              Phys. Chem. Chem. Phys. 4: 4285 (2002)           
          Two-component HF and DFT with spin-orbit coupling:  
              Self-consistent treatment of spin-orbit         
              interactions with efficient Hartree-Fock and    
              density functional methods                      
              M. K. Armbruster, F. Weigend, C. van Wüllen and 
              W. Klopper                                      
              Phys. Chem. Chem. Phys. 10: 1748 (2008)         
          Relativistic all-electron 2c calculations           
              An efficient implementation of two-component    
              relativistic exact-decoupling methods for large 
              molecules                                       
              D. Peng, N. Middendorf, F. Weigend, M. Reiher   
              J. Chem. Phys. 138, 184105 (2013)               
                                         




              +--------------------------------------------------+
              |      general information about current run       |
              +--------------------------------------------------+

 

 DENSITY CONVERGENCE CHECK SWITCHED ON !
 SCF CONVERGENCE IF RMS(delta[D]) <     0.1000000000E-06

 PBE functional
 exchange:    LDA + PBE
 correlation: LDA (PW) + PBE
 A DFT calculation using the RI-J approximation will be carried out.
 Allocatable memory for RI due to $ricore (MB):                  5000


              +--------------------------------------------------+
              | Atomic coordinate, charge and isotop information |
              +--------------------------------------------------+

                    atomic coordinates            atom    charge  isotop
         -0.39477282   -1.82279699    1.01055191    n      7.000     0
         -0.42358398   -3.72863639    1.14344278    h      1.000     0
         -2.73319042   -0.65116395    0.57950072    c      6.000     0
         -4.65106342   -1.91011932    0.37396161    o      8.000     0
         -2.56583650    2.08471864    0.43112927    c      6.000     0
         -4.26430335    3.15155431    0.09419777    h      1.000     0
         -0.30803140    3.23122868    0.72022437    c      6.000     0
         -0.08747630    5.25806075    0.62993961    h      1.000     0
          1.86223458    1.89128350    1.15501264    n      7.000     0
          3.52917652    2.77209175    1.40743836    h      1.000     0
          1.94078826   -0.71652766    1.34670810    c      6.000     0
          3.87242055   -1.88480430    1.77116431    o      8.000     0
 
       center of nuclear mass  :   -0.33184226   -0.04301655    0.93603855
       center of nuclear charge:   -0.33104686    0.02176933    0.93207504

              +--------------------------------------------------+
              |               basis set information              |
              +--------------------------------------------------+

              we will work with the 1s 3p 5d 7f 9g ... basis set
              ...i.e. with spherical basis functions...

   type   atoms  prim   cont   basis
   ---------------------------------------------------------------------------
    n        2     77     55   cc-pVQZ   [5s4p3d2f1g|21s6p3d2f1g]
    h        4     32     30   cc-pVQZ   [4s3p2d1f|6s3p2d1f]
    c        4     77     55   cc-pVQZ   [5s4p3d2f1g|21s6p3d2f1g]
    o        2     77     55   cc-pVQZ   [5s4p3d2f1g|21s6p3d2f1g]
   ---------------------------------------------------------------------------
   total:   12    744    560
   ---------------------------------------------------------------------------

   total number of primitive shells          :  111
   total number of contracted shells         :  160
   total number of cartesian basis functions :  700
   total number of SCF-basis functions       :  560


 integral neglect threshold       :  0.48E-13
 integral storage threshold THIZE :  0.10E-04
 integral storage threshold THIME :         5

 RI-J AUXILIARY BASIS SET information:

              we will work with the 1s 3p 5d 7f 9g ... basis set
              ...i.e. with spherical basis functions...

   type   atoms  prim   cont   basis
   ---------------------------------------------------------------------------
    n        2     70     49   cc-pVQZ   [6s4p3d1f1g|12s5p4d2f1g]
    h        4     16     11   cc-pVQZ   [3s1p1d|5s2p1d]
    c        4     70     49   cc-pVQZ   [6s4p3d1f1g|12s5p4d2f1g]
    o        2     70     49   cc-pVQZ   [6s4p3d1f1g|12s5p4d2f1g]
   ---------------------------------------------------------------------------
   total:   12    624    436
   ---------------------------------------------------------------------------

   total number of primitive shells          :   80
   total number of contracted shells         :  140
   total number of cartesian basis functions :  536
   total number of SCF-basis functions       :  436


 symmetry group of the molecule :   c1 

 the group has the following generators :
   c1(z)

    1 symmetry operations found

 there are 1 real representations :   a   

 maximum number of shells which are related by symmetry :  1


    mo occupation :
   irrep   mo's   occupied
    a      560       29
 
 number of basis functions   :                    560
 number of occupied orbitals :                     29
 
  
           ------------------
           density functional
           ------------------
 PBE functional
 exchange:    LDA + PBE
 correlation: LDA (PW) + PBE

 iterations will be done with small grid
  
 spherical integration : Lebedev's spherical grid
 spherical gridsize    :                     5
    i.e. gridpoints    :                   590
 value for diffuse not defined
 radial integration    : Chebyshev 2nd kind (scaling 3)
 radial gridsize       :                     8
 integration cells     :                    12
 partition function    : becke
 partition sharpness   :                     3
  

 biggest AO integral is expected to be     4.785886462
  
           ------------------------
               RI-J - INFORMATION
           ------------------------
 Contributions to RI integral batches: 
  neglected integral batches:                  1732
  direct contribution:                            0
  memory contribution:                 11148
 Memory core needed for (P|Q) and Cholesky      2 MByte
 Memory core minimum needed except of (P|Q)     2 MByte
 Total minimum memory core needed (sum)         4 MByte
  
 ****************************************
 Memory allocated for RI-J   879 MByte
 ****************************************
                                            

          ------------------------
          nuclear repulsion energy  :   357.066176303    
          ------------------------


         -----------------
         -S,T+V- integrals
         -----------------

 1e-integrals will be neglected if expon. factor < 0.477423E-14
 Difference densities >>NOT<< switched on in parallel ridft!

 DIIS switched on: error vector is FDS-SDF
 Max. Iterations for DIIS is     :   4
 DIIS matrix (see manual) 
    Scaling factor of diagonals  :  1.200
    threshold for scaling factor :  0.000

 scf convergence criterion : increment of total energy < .1000000D-08
                  and increment of one-electron energy < .1000000D-05

  MOs are in ASCII format !


 automatic virtual orbital shift switched on 
      shift if e(lumo)-e(homo) < 0.10000000    


 reading orbital data $scfmo  from file mos
 orbital characterization : expanded
 mo provided and orthogonalized by Cholesky decomposition

 DSCF restart information will be dumped onto file mos


 Starting SCF iterations

          Overall gridpoints after grid construction =         63485

 ITERATION  ENERGY          1e-ENERGY        2e-ENERGY     RMS[dD(SAO)]   TOL
   1  -412.62665937539    -1261.5631704     491.87033470    0.000D+00 0.476D-13
                            Exc = -53.5476154715     Coul =  545.417950173    
                              N = 57.999971845    
                            current damping = 0.700
 
          max. resid. norm for Fia-block=  4.544D-01 for orbital     20a         
          max. resid. fock norm         =  1.108D+01 for orbital    506a         

 ITERATION  ENERGY          1e-ENERGY        2e-ENERGY     RMS[dD(SAO)]   TOL
   2  -414.27183990464    -1268.4360039     497.09798773    0.455D-02 0.476D-13
                            Exc = -53.5644720912     Coul =  550.662459823    
                              N = 57.999979144    
                            current damping = 0.650
 
          Norm of current diis error:  3.1311    
          max. resid. norm for Fia-block=  1.651D-01 for orbital      1a         
          max. resid. fock norm         =  3.644D-01 for orbital    508a         

 ITERATION  ENERGY          1e-ENERGY        2e-ENERGY     RMS[dD(SAO)]   TOL
   3  -414.47803967613    -1271.0625634     499.51834738    0.284D-02 0.476D-13
                            Exc = -53.8304137398     Coul =  553.348761124    
                              N = 57.999982655    
                            current damping = 0.550
 
          Norm of current diis error:  1.4832    
          max. resid. norm for Fia-block=  6.601D-02 for orbital      1a         
          max. resid. fock norm         =  8.303D-02 for orbital    282a         

 ITERATION  ENERGY          1e-ENERGY        2e-ENERGY     RMS[dD(SAO)]   TOL
   4  -414.53593394103    -1271.3480964     499.74598611    0.229D-02 0.476D-13
                            Exc = -53.7445617177     Coul =  553.490547830    
                              N = 57.999984616    
                            current damping = 0.400
 
          Norm of current diis error: 0.69265    
          max. resid. norm for Fia-block=  3.154D-02 for orbital     10a         
          max. resid. fock norm         =  7.464D-02 for orbital    504a         

 ITERATION  ENERGY          1e-ENERGY        2e-ENERGY     RMS[dD(SAO)]   TOL
   5  -414.54510241321    -1271.6143912     500.00311244    0.857D-03 0.476D-13
                            Exc = -53.8360705111     Coul =  553.839182951    
                              N = 57.999985018    
                            current damping = 0.250
 
          Norm of current diis error: 0.44083    
          max. resid. norm for Fia-block=  9.931D-03 for orbital     27a         
          max. resid. fock norm         =  1.263D-02 for orbital    480a         
          mo-orthogonalization: Cholesky decomposition

 ITERATION  ENERGY          1e-ENERGY        2e-ENERGY     RMS[dD(SAO)]   TOL
   6  -414.55032850539    -1271.9840255     500.36752065    0.720D-03 0.476D-13
                            Exc = -53.8333766842     Coul =  554.200897330    
                              N = 57.999985855    
                            current damping = 0.100
 
          Norm of current diis error: 0.11649    
          max. resid. norm for Fia-block=  4.122D-03 for orbital     26a         
          max. resid. fock norm         =  6.310D-03 for orbital    520a         

 ITERATION  ENERGY          1e-ENERGY        2e-ENERGY     RMS[dD(SAO)]   TOL
   7  -414.55035266713    -1271.7014660     500.08493701    0.195D-03 0.476D-13
                            Exc = -53.8087405378     Coul =  553.893677544    
                              N = 57.999985568    
                            current damping = 0.150
 
          Norm of current diis error: 0.10821    
          max. resid. norm for Fia-block=  2.540D-03 for orbital     28a         
          max. resid. fock norm         =  4.341D-03 for orbital     21a         

 ITERATION  ENERGY          1e-ENERGY        2e-ENERGY     RMS[dD(SAO)]   TOL
   8  -414.55062522508    -1271.7878963     500.17109473    0.783D-04 0.476D-13
                            Exc = -53.8206500894     Coul =  553.991744817    
                              N = 57.999985724    
                            current damping = 0.200
 
          Norm of current diis error: 0.35914E-01
          max. resid. norm for Fia-block=  1.248D-03 for orbital     29a         
          max. resid. fock norm         =  2.350D-03 for orbital    512a         

 ITERATION  ENERGY          1e-ENERGY        2e-ENERGY     RMS[dD(SAO)]   TOL
   9  -414.55063725983    -1271.8541759     500.23736238    0.697D-04 0.476D-13
                            Exc = -53.8267792219     Coul =  554.064141598    
                              N = 57.999985770    
                            current damping = 0.050
 
          Norm of current diis error: 0.28692E-01
          max. resid. norm for Fia-block=  8.214D-04 for orbital     29a         
          max. resid. fock norm         =  1.495D-03 for orbital    502a         

 ITERATION  ENERGY          1e-ENERGY        2e-ENERGY     RMS[dD(SAO)]   TOL
  10  -414.55065701001    -1271.8356843     500.21885099    0.468D-04 0.476D-13
                            Exc = -53.8225629404     Coul =  554.041413935    
                              N = 57.999985751    
                            current damping = 0.100
 
          Norm of current diis error: 0.14485E-01
          max. resid. norm for Fia-block=  2.983D-04 for orbital     29a         
          max. resid. fock norm         =  5.291D-04 for orbital    502a         
          mo-orthogonalization: Cholesky decomposition

 ITERATION  ENERGY          1e-ENERGY        2e-ENERGY     RMS[dD(SAO)]   TOL
  11  -414.55066233506    -1271.8254182     500.20857959    0.119D-04 0.476D-13
                            Exc = -53.8233467730     Coul =  554.031926365    
                              N = 57.999985752    
                            current damping = 0.050
 
          Norm of current diis error: 0.36557E-02
          max. resid. norm for Fia-block=  7.705D-05 for orbital     24a         
          max. resid. fock norm         =  1.096D-04 for orbital     23a         

 ITERATION  ENERGY          1e-ENERGY        2e-ENERGY     RMS[dD(SAO)]   TOL
  12  -414.55066259787    -1271.8310876     500.21424865    0.170D-05 0.476D-13
                            Exc = -53.8233608007     Coul =  554.037609455    
                              N = 57.999985753    
                            current damping = 0.100
 
          Norm of current diis error: 0.16442E-02
          max. resid. norm for Fia-block=  4.118D-05 for orbital     25a         
          max. resid. fock norm         =  9.487D-05 for orbital    558a         

 ITERATION  ENERGY          1e-ENERGY        2e-ENERGY     RMS[dD(SAO)]   TOL
  13  -414.55066263581    -1271.8293556     500.21251671    0.800D-06 0.476D-13
                            Exc = -53.8233176029     Coul =  554.035834311    
                              N = 57.999985752    
                            current damping = 0.150
 
          Norm of current diis error: 0.94580E-03
          max. resid. norm for Fia-block=  2.109D-05 for orbital     25a         
          max. resid. fock norm         =  4.624D-05 for orbital    558a         

 ITERATION  ENERGY          1e-ENERGY        2e-ENERGY     RMS[dD(SAO)]   TOL
  14  -414.55066265169    -1271.8289884     500.21214945    0.703D-06 0.476D-13
                            Exc = -53.8233022890     Coul =  554.035451738    
                              N = 57.999985753    
                            current damping = 0.050
 
          Norm of current diis error: 0.40479E-03
          max. resid. norm for Fia-block=  1.484D-05 for orbital     29a         
          max. resid. fock norm         =  3.493D-05 for orbital    536a         

 ITERATION  ENERGY          1e-ENERGY        2e-ENERGY     RMS[dD(SAO)]   TOL
  15  -414.55066265272    -1271.8293340     500.21249502    0.869D-06 0.476D-13
                            Exc = -53.8233277983     Coul =  554.035822818    
                              N = 57.999985753    
                            current damping = 0.100
 
          Norm of current diis error: 0.35721E-03
          max. resid. norm for Fia-block=  7.466D-06 for orbital     26a         
          max. resid. fock norm         =  1.872D-05 for orbital    534a         
          mo-orthogonalization: Cholesky decomposition

 ITERATION  ENERGY          1e-ENERGY        2e-ENERGY     RMS[dD(SAO)]   TOL
  16  -414.55066265667    -1271.8293621     500.21252319    0.413D-06 0.476D-13
                            Exc = -53.8233281822     Coul =  554.035851368    
                              N = 57.999985753    
                            current damping = 0.050
 
          Norm of current diis error: 0.68107E-04
          max. resid. norm for Fia-block=  2.544D-06 for orbital     28a         
          max. resid. fock norm         =  5.576D-06 for orbital    558a         

 DENSITY CONVERGED !


 ITERATION  ENERGY          1e-ENERGY        2e-ENERGY     RMS[dD(SAO)]   TOL
  17  -414.55066265657    -1271.8292471     500.21240809    0.916D-07 0.476D-13
                            Exc = -53.8233122163     Coul =  554.035720308    
                              N = 57.999985753    
                            current damping = 0.100
 
          Norm of current diis error: 0.91223E-04
          max. resid. norm for Fia-block=  1.522D-06 for orbital     26a         
          max. resid. fock norm         =  2.273D-06 for orbital    557a         

 ENERGY & DENSITY CONVERGED !

          Overall gridpoints after grid construction =        199946

 ITERATION  ENERGY          1e-ENERGY        2e-ENERGY     RMS[dD(SAO)]   TOL
  18  -414.55066317478    -1271.8292485     500.21240899    0.559D-07 0.476D-13
                            Exc = -53.8233199875     Coul =  554.035728976    
                              N = 57.999999663    
                            current damping = 0.150
 
          Norm of current diis error: 0.25289E-04
          max. resid. norm for Fia-block=  5.274D-07 for orbital     28a         
          max. resid. fock norm         =  9.283D-07 for orbital    553a         

 End of SCF iterations

   convergence criteria satisfied after    18 iterations


                  ------------------------------------------ 
                 |  total energy      =   -414.55066317478  |
                  ------------------------------------------ 
                 :  kinetic energy    =    413.03228357373  :
                 :  potential energy  =   -827.58294674851  :
                 :  virial theorem    =      1.99633728821  :
                 :  wavefunction norm =      1.00000000000  :
                  .......................................... 


 <geterg> : there is no data group $energy 


 <skperg> : $end is missing 


 orbitals $scfmo  will be written to file mos

    irrep                 25a         26a         27a         28a         29a   
 eigenvalues H         -0.34034    -0.26035    -0.25818    -0.23325    -0.22739
            eV          -9.2612     -7.0845     -7.0254     -6.3472     -6.1875
 occupation              2.0000      2.0000      2.0000      2.0000      2.0000 

    irrep                 30a         31a         32a         33a         34a   
 eigenvalues H         -0.08536    -0.03675    -0.01850     0.02394     0.02764
            eV          -2.3227     -1.0000     -0.5034      0.6515      0.7520
 
 
 
 
 ==============================================================================
                           electrostatic moments
 ==============================================================================

 reference point for electrostatic moments:    0.00000   0.00000   0.00000

 
              nuc           elec       ->  total
 ------------------------------------------------------------------------------
                          charge      
 ------------------------------------------------------------------------------
          58.000000     -58.000000       0.000000
 
 ------------------------------------------------------------------------------
                       dipole moment  
 ------------------------------------------------------------------------------
   x     -19.200718      19.737181       0.536463
   y       1.262621       0.349104       1.611725
   z      54.060353     -54.084834      -0.024482
 
   | dipole moment | =     1.6988 a.u. =     4.3180 debye 
 
 ------------------------------------------------------------------------------
                     quadrupole moment
 ------------------------------------------------------------------------------
  xx     456.709378    -499.382319     -42.672941
  yy     259.417760    -287.948844     -28.531084
  zz      63.520126     -98.045459     -34.525333
  xy       4.105889      -2.999320       1.106568
  xz      55.455098     -56.348479      -0.893380
  yz     -15.474566      16.957444       1.482878
 
     1/3  trace=     -35.243119
     anisotropy=      12.799140
 
 ==============================================================================
 


    ------------------------------------------------------------------------
         total  cpu-time :  6 minutes and 59 seconds
         total wall-time :  59.49 seconds
    ------------------------------------------------------------------------

   ****  ridft : all done  ****


    2018-04-29 16:12:54.654 

