
OPTIMIZATION CYCLE 7
Sun Feb 14 15:46:43 PST 2016
 operating system is UNIX !
 hostname is         c-6-27.local

 statpt (c-6-27.local) : TURBOMOLE V7.0.2( ) 8 Jan 2016 at 10:54:38
 Copyright (C) 2016 TURBOMOLE GmbH, Karlsruhe


    2016-02-14 15:46:43.168 



                           this is S T A T P T   


                     hessian and coordinate update for
                          stationary point search 

                     by barbara unterreiner, marek sierka,
                           and reinhart ahlrichs

                          quantum chemistry group
                          universitaet  karlsruhe
                                  germany


  Keyword $statpt not found - using default options
 
        ***************  Stationary point options ******************
        ************************************************************
           Maximum allowed trust radius:           3.000000E-01
           Minimum allowed trust radius:           1.000000E-03
           Initial trust radius:                   1.500000E-01
           GDIIS used if gradient norm <           1.000000E-02
           Number of previous steps for GDIIS:       5
           Hessian update method:                  BFGS
                        *** Convergence criteria ***                
           Threshold for energy change:            1.000000E-07
           Threshold for max displacement element: 1.000000E-03
           Threshold for max gradient element :    1.000000E-04
           Threshold for RMS of displacement:      5.000000E-04
           Threshold for RMS of gradient:          5.000000E-04
        ************************************************************
 
  actual coordinates :
        -3.312596384039        -0.246119093286         2.254688833133
        -1.127940072070        -1.025248427217         3.252367608470
        -1.112182503512        -1.711444578508         5.183652939710
         0.979764362136        -0.715778076157        -0.985846416802
         1.342939425070        -1.040424587172         1.861505970252
         0.119243062863        -2.453319266023        -1.702889449528
         2.334516168695        -2.813504474082         2.221556769813
         2.563071357178         0.458338984007         2.596349894220
        -0.877767362318         1.437716695174        -1.461047004121
        -3.462706519073         0.774404768824        -0.393237862684
        -0.183513722624         3.152705772947        -0.542890285572
        -1.016705102949         1.835083245875        -3.479812358379
        -4.687686748809         2.437545090104        -0.405357848619
        -4.391274653706        -0.623689642712        -1.603506291533
         4.461932441128        -2.212760866262        -3.720546899669
         3.462337768158        -0.360222477276        -2.328615128459
         6.260427606583        -1.988766367916        -4.667297641652
         3.505185198841        -4.006083051988        -3.947281120120
         4.768728647292         2.141259922062        -2.046425621268
         6.634359871888         2.092963921308        -2.909977214269
         3.684798495995         3.644710613140        -2.948086709397
         4.992716849379         2.663137700204        -0.065532345446
        -5.749045240405        -0.344972786156         3.689942236089
        -7.150711376329        -1.465391285177         2.671003826282
        -5.494892026311        -1.174951105232         5.555067815051
        -6.542999543060         1.544809371520         3.922214304498
  actual gradients :
        -0.000007350691         0.000005675606        -0.000000597623
        -0.000000497903         0.000005236096        -0.000003801462
         0.000007138981        -0.000002270034         0.000000277483
        -0.000001164609        -0.000011391040        -0.000004961070
        -0.000002015311         0.000002626606        -0.000001360092
        -0.000003854896        -0.000006680305        -0.000003838342
        -0.000000442306        -0.000000337082        -0.000000138844
        -0.000000668868         0.000002869140         0.000005058907
         0.000001906324         0.000002624744        -0.000001977408
         0.000005499008        -0.000002728581         0.000006004436
        -0.000000255976         0.000004271764         0.000001947345
         0.000002051882        -0.000000666307         0.000000042367
         0.000001383449         0.000000919301        -0.000000089662
         0.000000350408        -0.000001441052        -0.000002729721
        -0.000001323532         0.000000990048         0.000000897270
        -0.000001650647         0.000002479298         0.000002579650
         0.000000052918        -0.000003383398        -0.000001980851
         0.000001970258        -0.000002754722        -0.000002480102
         0.000002633020         0.000007646478         0.000001766752
        -0.000000323316        -0.000002452892        -0.000000506487
        -0.000001372186        -0.000002095434        -0.000000534301
        -0.000000509551        -0.000002245868        -0.000000133307
        -0.000006829346        -0.000002764335         0.000001626338
         0.000001764291         0.000000481436        -0.000001931767
         0.000001767542         0.000000095837        -0.000001159875
         0.000003289990         0.000000695444        -0.000002008662
     Number of symmetry restricted degrees of freedom:    78
     Constituted by:     3 translational degrees of freedom
                         3 rotational degrees of freedom
                      72 internal degrees of freedom

  *************************************************************************
   ATOM                      CARTESIAN COORDINATES
    1 c      -3.31259638403898     -0.24611909328556      2.25468883313344
    2 c      -1.12794007207025     -1.02524842721721      3.25236760846992
    3 h      -1.11218250351249     -1.71144457850801      5.18365293970977
    4 c       0.97976436213561     -0.71577807615693     -0.98584641680220
    5 c       1.34293942506955     -1.04042458717167      1.86150597025221
    6 h       0.11924306286304     -2.45331926602304     -1.70288944952797
    7 h       2.33451616869546     -2.81350447408231      2.22155676981250
    8 h       2.56307135717833      0.45833898400671      2.59634989422009
    9 c      -0.87776736231832      1.43771669517390     -1.46104700412138
   10 c      -3.46270651907263      0.77440476882372     -0.39323786268441
   11 h      -0.18351372262430      3.15270577294724     -0.54289028557205
   12 h      -1.01670510294891      1.83508324587482     -3.47981235837912
   13 h      -4.68768674880884      2.43754509010354     -0.40535784861893
   14 h      -4.39127465370621     -0.62368964271189     -1.60350629153343
   15 c       4.46193244112803     -2.21276086626191     -3.72054689966901
   16 c       3.46233776815805     -0.36022247727650     -2.32861512845910
   17 h       6.26042760658254     -1.98876636791575     -4.66729764165186
   18 h       3.50518519884076     -4.00608305198766     -3.94728112011998
   19 c       4.76872864729174      2.14125992206154     -2.04642562126759
   20 h       6.63435987188786      2.09296392130828     -2.90997721426874
   21 h       3.68479849599525      3.64471061313980     -2.94808670939667
   22 h       4.99271684937933      2.66313770020387     -0.06553234544581
   23 c      -5.74904524040531     -0.34497278615646      3.68994223608923
   24 h      -7.15071137632895     -1.46539128517697      2.67100382628193
   25 h      -5.49489202631067     -1.17495110523187      5.55506781505068
   26 h      -6.54299954305981      1.54480937152026      3.92221430449849
  *************************************************************************
   ATOM                      CARTESIAN GRADIENTS  
    1 c      -0.00000735069058      0.00000567560626     -0.00000059762314
    2 c      -0.00000049790271      0.00000523609608     -0.00000380146185
    3 h       0.00000713898061     -0.00000227003364      0.00000027748341
    4 c      -0.00000116460943     -0.00001139104047     -0.00000496107046
    5 c      -0.00000201531115      0.00000262660568     -0.00000136009173
    6 h      -0.00000385489612     -0.00000668030476     -0.00000383834154
    7 h      -0.00000044230635     -0.00000033708188     -0.00000013884439
    8 h      -0.00000066886777      0.00000286914002      0.00000505890720
    9 c       0.00000190632443      0.00000262474448     -0.00000197740837
   10 c       0.00000549900766     -0.00000272858116      0.00000600443630
   11 h      -0.00000025597560      0.00000427176418      0.00000194734537
   12 h       0.00000205188165     -0.00000066630730      0.00000004236680
   13 h       0.00000138344910      0.00000091930145     -0.00000008966248
   14 h       0.00000035040801     -0.00000144105170     -0.00000272972141
   15 c      -0.00000132353238      0.00000099004832      0.00000089726970
   16 c      -0.00000165064665      0.00000247929802      0.00000257965045
   17 h       0.00000005291762     -0.00000338339837     -0.00000198085115
   18 h       0.00000197025835     -0.00000275472198     -0.00000248010196
   19 c       0.00000263302014      0.00000764647808      0.00000176675189
   20 h      -0.00000032331603     -0.00000245289198     -0.00000050648676
   21 h      -0.00000137218617     -0.00000209543404     -0.00000053430096
   22 h      -0.00000050955085     -0.00000224586834     -0.00000013330748
   23 c      -0.00000682934602     -0.00000276433531      0.00000162633805
   24 h       0.00000176429081      0.00000048143614     -0.00000193176717
   25 h       0.00000176754153      0.00000009583746     -0.00000115987545
   26 h       0.00000328999007      0.00000069544409     -0.00000200866203
  *************************************************************************

  norm of actual CARTESIAN gradient:  2.85006E-05
  norm of actual INTERNAL  gradient:  4.00352E-05

  ENERGY =    -391.4028055547 a.u.; # of cycle =    7

  Approximate Hessian read from $hessapprox data section

  Hessian updated according to BFGS formula
  Number of zero Hessian eigenvalues:   0
  Number of structures for GDIIS interpolation:    5
  GDIIS step:     0.000382

  Transforming internal coordinate displacements to Cartesian space
      Iteration   1 residual norm     3.818362E-04
      Iteration   2 residual norm     6.988466E-08
      Iteration   3 residual norm     1.731028E-13
      Transformation converged
      Residual norm:    1.731028E-13 after    3 iterations

      ****************************************************************** 
                          CONVERGENCE INFORMATION

                               Converged?     Value      Criterion
             Energy change         yes      0.0000000   0.0000001
             RMS of displacement   yes      0.0000450   0.0005000
             RMS of gradient       yes      0.0000047   0.0005000
             MAX displacement      yes      0.0002108   0.0010000
             MAX gradient          yes      0.0000216   0.0001000
      ****************************************************************** 


    ------------------------------------------------------------------------
         total  cpu-time :   0.05 seconds
         total wall-time :   0.06 seconds
    ------------------------------------------------------------------------


   ****  statpt : all done  ****


    2016-02-14 15:46:43.213 

fine, there is no data group "$actual step"
next step = ridft
 operating system is UNIX !
 hostname is         c-6-27.local

 ridft (c-6-27.local) : TURBOMOLE V7.0.2( ) 8 Jan 2016 at 10:54:38
 Copyright (C) 2016 TURBOMOLE GmbH, Karlsruhe


    2016-02-14 15:46:43.248 



                                  r i d f t

                        DFT program with RI approximation 
                                for coulomb part 




                                                 
                                 References:     
                                                 
          TURBOMOLE:                             
              R. Ahlrichs, M. Baer, M. Haeser, H. Horn, and
              C. Koelmel
              Electronic structure calculations on workstation
              computers: the program system TURBOMOLE
              Chem. Phys. Lett. 162: 165 (1989)
          Density Functional:                              
              O. Treutler and R. Ahlrichs                      
              Efficient Molecular Numerical Integration Schemes
              J. Chem. Phys. 102: 346 (1995)                   
          Parallel Version:                                
              Performance of parallel TURBOMOLE for Density    
              Functional Calculations                          
              M. v. Arnim and R. Ahlrichs                      
              J. Comp. Chem. 19: 1746 (1998)                   
          RI-J Method:                                     
              Auxiliary Basis Sets to approximate Coulomb      
              Potentials                                       
              Chem. Phys. Lett. 240: 283 (1995)                
              K. Eichkorn, O. Treutler, H. Oehm, M. Haeser     
              and R. Ahlrichs                                  
              Chem. Phys. Lett. 242: 652 (1995)                
                                                           
              Auxiliary Basis Sets for Main Row Atoms and their
              Use to approximate Coulomb Potentials            
              K. Eichkorn, F. Weigend, O. Treutler and         
              R. Ahlrichs                                      
              Theo. Chem. Acc. 97: 119 (1997)                   
                                                           
              Accurate Coulomb-fitting basis sets for H to Rn 
              F. Weigend                                        
              Phys. Chem. Chem. Phys. 8: 1057 (2006)            
                                                           
          Multipole accelerated RI-J (MARI-J):             
              Fast evaluation of the Coulomb potential for     
              electron densities using multipole accelerated   
              resolution of identity approximation             
              M. Sierka, A. Hogekamp and R. Ahlrichs           
              J. Chem. Phys. 118: 9136 (2003)                  
          RI-JK Method:                                     
              A fully direct RI-HF algorithm: Implementation,
              optimised auxiliary basis sets, demonstration of
              accuracy and efficiency                         
              F. Weigend                                      
              Phys. Chem. Chem. Phys. 4: 4285 (2002)           
          Two-component HF and DFT with spin-orbit coupling:  
              Self-consistent treatment of spin-orbit         
              interactions with efficient Hartree-Fock and    
              density functional methods                      
              M. K. Armbruster, F. Weigend, C. van Wüllen and 
              W. Klopper                                      
              Phys. Chem. Chem. Phys. 10: 1748 (2008)         
          Relativistic all-electron 2c calculations           
              An efficient implementation of two-component    
              relativistic exact-decoupling methods for large 
              molecules                                       
              D. Peng, N. Middendorf, F. Weigend, M. Reiher   
              J. Chem. Phys. 138, 184105 (2013)               
                                         


 


              +--------------------------------------------------+
              |      general information about current run       |
              +--------------------------------------------------+

 

 DENSITY CONVERGENCE CHECK SWITCHED ON !
 SCF CONVERGENCE IF RMS(delta[D]) <     0.1000000000E-06

 TPSS meta-GGA functional
 exchange:    LDA + TPSS
 correlation: LDA (PW) + TPSS
 A DFT calculation using the RI-J approximation will be carried out.
 Allocatable memory for RI due to $ricore (MB):         500


              +--------------------------------------------------+
              | Atomic coordinate, charge and isotop information |
              +--------------------------------------------------+

                    atomic coordinates            atom    charge  isotop
         -3.31262434   -0.24622802    2.25464905    c      6.000     0
         -1.12797206   -1.02539483    3.25230831    c      6.000     0
         -1.11224166   -1.71139216    5.18366167    h      1.000     0
          0.97979268   -0.71574329   -0.98590496    c      6.000     0
          1.34288507   -1.04072872    1.86141250    c      6.000     0
          0.11936197   -2.45325024   -1.70310068    h      1.000     0
          2.33426375   -2.81395796    2.22127990    h      1.000     0
          2.56324394    0.45778096    2.59638622    h      1.000     0
         -0.87785987    1.43764843   -1.46106695    c      6.000     0
         -3.46277985    0.77418067   -0.39332298    c      6.000     0
         -0.18369634    3.15263956   -0.54285934    h      1.000     0
         -1.01678348    1.83509921   -3.47981812    h      1.000     0
         -4.68791664    2.43720756   -0.40554907    h      1.000     0
         -4.39122654   -0.62403268   -1.60354406    h      1.000     0
          4.46206373   -2.21264022   -3.72050615    c      6.000     0
          3.46238909   -0.36011414   -2.32862315    c      6.000     0
          6.26059333   -1.98860802   -4.66717949    h      1.000     0
          3.50534748   -4.00597540   -3.94724114    h      1.000     0
          4.76872734    2.14137782   -2.04639878    c      6.000     0
          6.63440278    2.09313090   -2.90985937    h      1.000     0
          3.68483157    3.64482587   -2.94810891    h      1.000     0
          4.99262059    2.66330155   -0.06550481    h      1.000     0
         -5.74898406   -0.34469996    3.69006562    c      6.000     0
         -7.15083857   -1.46510224    2.67136337    h      1.000     0
         -5.49480950   -1.17449062    5.55527245    h      1.000     0
         -6.54279039    1.54516597    3.92218885    h      1.000     0
 
       center of nuclear mass  :    0.03922195   -0.12860360    0.00990265
       center of nuclear charge:    0.03194985   -0.10475936    0.00806661

              +--------------------------------------------------+
              |               basis set information              |
              +--------------------------------------------------+

              we will work with the 1s 3p 5d 7f 9g ... basis set
              ...i.e. with spherical basis functions...

   type   atoms  prim   cont   basis
   ---------------------------------------------------------------------------
    c       10     77     57   def2-QZVP   [7s4p3d2f1g|15s8p3d2f1g]
    h       16     33     30   def2-QZVP   [4s3p2d1f|7s3p2d1f]
   ---------------------------------------------------------------------------
   total:   26   1298   1050
   ---------------------------------------------------------------------------

   total number of primitive shells          :   42
   total number of contracted shells         :  330
   total number of cartesian basis functions : 1280
   total number of SCF-basis functions       : 1050


 integral neglect threshold       :  0.26E-13
 integral storage threshold THIZE :  0.10E-04
 integral storage threshold THIME :         5

 RI-J AUXILIARY BASIS SET information:

              we will work with the 1s 3p 5d 7f 9g ... basis set
              ...i.e. with spherical basis functions...

   type   atoms  prim   cont   basis
   ---------------------------------------------------------------------------
    c       10     70     49   def2-QZVP   [6s4p3d1f1g|12s5p4d2f1g]
    h       16     16     11   def2-QZVP   [3s1p1d|5s2p1d]
   ---------------------------------------------------------------------------
   total:   26    956    666
   ---------------------------------------------------------------------------

   total number of primitive shells          :   32
   total number of contracted shells         :  230
   total number of cartesian basis functions :  802
   total number of SCF-basis functions       :  666


 symmetry group of the molecule :   c1 

 the group has the following generators :
   c1(z)

    1 symmetry operations found

 there are 1 real representations :   a   

 maximum number of shells which are related by symmetry :  1


    mo occupation :
   irrep   mo's   occupied
    a     1050       38
 
 number of basis functions   :         1050
 number of occupied orbitals :           38
 
  
           ------------------
           density functional
           ------------------
 TPSS meta-GGA functional
 exchange:    LDA + TPSS
 correlation: LDA (PW) + TPSS
 iterations will be done with small grid
  
 spherical integration : Lebedev's spherical grid
 spherical gridsize    :           5
    i.e. gridpoints    :         590
 value for diffuse not defined
 radial integration    : Chebyshev 2nd kind (scaling 3)
 radial gridsize       :           8
 integration cells     :          26
 partition function    : becke
 partition sharpness   :           3
  

 biggest AO integral is expected to be     5.262544080
  
           ------------------------
               RI-J - INFORMATION
           ------------------------
 Contributions to RI integral batches: 
  neglected integral batches:       13555
  direct contribution:              30035
  memory contribution:       11025
 Memory core needed for (P|Q) and Cholesky      4 MByte
 Memory core minimum needed except of (P|Q)     1 MByte
 Total minimum memory core needed (sum)         5 MByte
  
 ****************************************
 Memory allocated for RI-J   269 MByte
 ****************************************
                                            

          ------------------------
          nuclear repulsion energy  :   531.924255367    
          ------------------------

 
          -----------------
          -S,T+V- integrals
          -----------------

 1e-integrals will be neglected if expon. factor < 0.261091E-14
 
   Difference densities algorithm switched on.
   The maximal number of linear combinations of
   difference densities is          20 .

 automatic virtual orbital shift switched on 
      shift if e(lumo)-e(homo) < 0.10000000    


 DIIS switched on: error vector is FDS-SDF
 Max. Iterations for DIIS is     :   4
 DIIS matrix (see manual) 
    Scaling factor of diagonals  :  1.200
    threshold for scaling factor :  0.000

 scf convergence criterion : increment of total energy < .1000000D-08
                  and increment of one-electron energy < .1000000D-05

  MOs are in ASCII format !


 reading orbital data $scfmo  from file mos . 

 orbital characterization : scfconv=9
 

 DSCF restart information will be dumped onto file mos


 Starting SCF iterations

          Overall gridpoints after grid construction =        115898

 ITERATION  ENERGY          1e-ENERGY        2e-ENERGY     RMS[dD(SAO)]   TOL
   1  -390.90440616316    -1579.9695121     657.14085057    0.000D+00 0.260D-13
                            Exc = -60.5034268234     Coul =  717.644277390    
                              N = 75.999833311    
                            current damping = 0.700
 
          max. resid. norm for Fia-block=  3.599D-05 for orbital     26a         
          max. resid. fock norm         =  3.077D-03 for orbital   1050a         

 ITERATION  ENERGY          1e-ENERGY        2e-ENERGY     RMS[dD(SAO)]   TOL
   2  -390.90440618385    -1579.9695945     657.14093299    0.212D-06 0.165D-13
                            Exc = -60.5034330913     Coul =  717.644366083    
                              N = 75.999833314    
                            current damping = 0.650
 
          Norm of current diis error: 0.33394E-03
          max. resid. norm for Fia-block=  1.525D-05 for orbital     26a         
          max. resid. fock norm         =  1.267D-03 for orbital   1050a         

 DENSITY CONVERGED !


 ITERATION  ENERGY          1e-ENERGY        2e-ENERGY     RMS[dD(SAO)]   TOL
   3  -390.90440618747    -1579.9695131     657.14085154    0.942D-07 0.127D-13
                            Exc = -60.5034286343     Coul =  717.644280171    
                              N = 75.999833314    
                            current damping = 0.600
 
          Norm of current diis error: 0.13576E-03
          max. resid. norm for Fia-block=  6.111D-06 for orbital     26a         
          max. resid. fock norm         =  4.991D-04 for orbital   1050a         

 DENSITY CONVERGED !


 ITERATION  ENERGY          1e-ENERGY        2e-ENERGY     RMS[dD(SAO)]   TOL
   4  -390.90440618813    -1579.9696049     657.14094337    0.404D-07 0.114D-13
                            Exc = -60.5034341053     Coul =  717.644377480    
                              N = 75.999833315    
                            current damping = 0.650
 
          Norm of current diis error: 0.55089E-04
          max. resid. norm for Fia-block=  2.392D-06 for orbital     26a         
          max. resid. fock norm         =  1.872D-04 for orbital   1050a         

 DENSITY CONVERGED !


 ITERATION  ENERGY          1e-ENERGY        2e-ENERGY     RMS[dD(SAO)]   TOL
   5  -390.90440618817    -1579.9695450     657.14088348    0.161D-07 0.107D-13
                            Exc = -60.5034308117     Coul =  717.644314287    
                              N = 75.999833315    
                            current damping = 0.700
 
          Norm of current diis error: 0.23490E-04
          max. resid. norm for Fia-block=  9.362D-07 for orbital     38a         
          max. resid. fock norm         =  7.374D-05 for orbital   1050a         
          mo-orthogonalization: Cholesky decomposition

 ENERGY & DENSITY CONVERGED !

          Overall gridpoints after grid construction =        381863

 ITERATION  ENERGY          1e-ENERGY        2e-ENERGY     RMS[dD(SAO)]   TOL
   6  -390.90425144205    -1579.9695616     657.14105476    0.635D-08 0.104D-13
                            Exc = -60.5032770226     Coul =  717.644331780    
                              N = 75.999997399    
                            current damping = 0.750
 
          Norm of current diis error: 0.90736E-05
          max. resid. norm for Fia-block=  4.005D-07 for orbital     38a         
          max. resid. fock norm         =  3.036D-05 for orbital   1050a         

 End of SCF iterations

   convergence criteria satisfied after    6 iterations


                  ------------------------------------------ 
                 |  total energy      =   -390.90425144205  |
                  ------------------------------------------ 
                 :  kinetic energy    =    389.16144125141  :
                 :  potential energy  =   -780.06569269346  :
                 :  virial theorem    =      1.99554159315  :
                 :  wavefunction norm =      1.00000000000  :
                  .......................................... 


 orbitals $scfmo  will be written to file mos

    irrep                 34a         35a         36a         37a         38a   
 eigenvalues H         -0.28827    -0.28198    -0.26656    -0.21728    -0.20486
            eV          -7.8444     -7.6731     -7.2536     -5.9127     -5.5745
 occupation              2.0000      2.0000      2.0000      2.0000      2.0000 

    irrep                 39a         40a         41a         42a         43a   
 eigenvalues H         -0.01404    -0.00704     0.00888     0.01952     0.03037
            eV          -0.3820     -0.1915      0.2417      0.5312      0.8265
 
 
 
 
 ==============================================================================
                           electrostatic moments
 ==============================================================================

 reference point for electrostatic moments:    0.00000   0.00000   0.00000

 
              nuc           elec       ->  total
 ------------------------------------------------------------------------------
                          charge      
 ------------------------------------------------------------------------------
          76.000000     -76.000000       0.000000
 
 ------------------------------------------------------------------------------
                       dipole moment  
 ------------------------------------------------------------------------------
   x       2.428189      -2.582127      -0.153939
   y      -7.961711       8.145753       0.184042
   z       0.613062      -0.566028       0.047034
 
   | dipole moment | =     0.2445 a.u. =     0.6215 debye 
 
 ------------------------------------------------------------------------------
                     quadrupole moment
 ------------------------------------------------------------------------------
  xx    1006.497003   -1053.411134     -46.914131
  yy     178.006958    -225.377133     -47.370175
  zz     521.230177    -569.530237     -48.300059
  xy     -11.947701      12.563494       0.615793
  xz    -505.962573     506.341011       0.378438
  yz     -38.794927      38.456749      -0.338178
 
     1/3  trace=     -47.528122
     anisotropy=       1.845826
 
 ==============================================================================
 
 


    ------------------------------------------------------------------------
         total  cpu-time :  8 minutes and 30 seconds
         total wall-time :  8 minutes and 29 seconds
    ------------------------------------------------------------------------


   ****  ridft : all done  ****


    2016-02-14 15:55:12.477 

fine, there is no data group "$actual step"
next step = rirpa
 hostname is c-6-27.local

 rirpa (c-6-27.local) : TURBOMOLE rev. 20269 compiled 9 Feb 2016 at 17:19:13
 Copyright (C) 2016 TURBOMOLE GmbH, Karlsruhe


    2016-02-14 15:55:12.518 

 
 
    *************************************************************************
    *************************** PROGRAM RIRPA *******************************
    ******                                                             ******
    ******              H. Eshuis, J. E. Bates and F. Furche           ******
    ******                                                             ******
    ****** Nov 2011                                                    ******
    ****** Copyright TURBOMOLE GmbH                                    ******
    *************************************************************************
    
    
                                References:                                  
    
                   RIRPA:                                                    
                     H. Eshuis, J. Yarkony and F. Furche                     
                     Fast computation of molecular random phase              
                     approximation correlation energies using resolution     
                     of the identity imaginary frequency integration         
                     J. Chem. Phys. 132: 234114 (2010)                       
    
                     H. Eshuis, J. E. Bates and F. Furche                    
                     Electron correlation methods based on                   
                     the random phase approximation                          
                     Theor. Chem. Acc.  131: 1084 (2012)                     
    
                   TWO-COMPONENT RIRPA:                                      
                     M. Kuehn                                                
                     Correlation energies from the                           
                     two-component random-phase approximation                
                     J. Chem. Theory Comput. 10: 623 (2014)                  
    
                   RIRPA GRADIENTS:                                          
                     Asbjoern M. Burow, Jefferson E. Bates, Filipp Furche*,  
                     and Henk Eshuis                                         
                     Analytical First-Order Molecular Properties and Forces  
                     within the Adiabatic Connection Random Phase            
                     Approximation                                           
                     J. Chem. Theory Comput. 10: 180 (2014)                  
    
    
    
 
                FOUND RI-J FLAG
 
  HF exact exchange energy will be computed using RI-J.


              +--------------------------------------------------+
              | Atomic coordinate, charge and isotop information |
              +--------------------------------------------------+

                    atomic coordinates            atom    charge  isotop
         -3.31262434   -0.24622802    2.25464905    c      6.000     0
         -1.12797206   -1.02539483    3.25230831    c      6.000     0
         -1.11224166   -1.71139216    5.18366167    h      1.000     0
          0.97979268   -0.71574329   -0.98590496    c      6.000     0
          1.34288507   -1.04072872    1.86141250    c      6.000     0
          0.11936197   -2.45325024   -1.70310068    h      1.000     0
          2.33426375   -2.81395796    2.22127990    h      1.000     0
          2.56324394    0.45778096    2.59638622    h      1.000     0
         -0.87785987    1.43764843   -1.46106695    c      6.000     0
         -3.46277985    0.77418067   -0.39332298    c      6.000     0
         -0.18369634    3.15263956   -0.54285934    h      1.000     0
         -1.01678348    1.83509921   -3.47981812    h      1.000     0
         -4.68791664    2.43720756   -0.40554907    h      1.000     0
         -4.39122654   -0.62403268   -1.60354406    h      1.000     0
          4.46206373   -2.21264022   -3.72050615    c      6.000     0
          3.46238909   -0.36011414   -2.32862315    c      6.000     0
          6.26059333   -1.98860802   -4.66717949    h      1.000     0
          3.50534748   -4.00597540   -3.94724114    h      1.000     0
          4.76872734    2.14137782   -2.04639878    c      6.000     0
          6.63440278    2.09313090   -2.90985937    h      1.000     0
          3.68483157    3.64482587   -2.94810891    h      1.000     0
          4.99262059    2.66330155   -0.06550481    h      1.000     0
         -5.74898406   -0.34469996    3.69006562    c      6.000     0
         -7.15083857   -1.46510224    2.67136337    h      1.000     0
         -5.49480950   -1.17449062    5.55527245    h      1.000     0
         -6.54279039    1.54516597    3.92218885    h      1.000     0
 
       center of nuclear mass  :    0.03922195   -0.12860360    0.00990265
       center of nuclear charge:    0.03194985   -0.10475936    0.00806661
              +-------------------------------------------------+
              |        Rotational Constants Section             |
              +-------------------------------------------------+
                                   Center of Mass [a.u]:
               0.03922194520615        -0.12860360079944         0.00990265047017
                     Principal Moments of Inertia [a.u.]
             584.12325743345468      2484.40812602535880      2631.47784143341232
                       Rotational constants A,B,C [a.u.]
               0.00085598372199         0.00020125517815         0.00019000730013
                     Rotational constants A,B,C [cm**-1]
               0.10305990341997         0.02423099726081         0.02287675979960
                        Rotational constants A,B,C [MHz]
            3089.65817675161134       726.42702286091242       685.82800513987434

   * BASIS SET information:

              +--------------------------------------------------+
              |               basis set information              |
              +--------------------------------------------------+

              we will work with the 1s 3p 5d 7f 9g ... basis set
              ...i.e. with spherical basis functions...

   type   atoms  prim   cont   basis
   ---------------------------------------------------------------------------
    c       10     77     57   def2-QZVP   [7s4p3d2f1g|15s8p3d2f1g]
    h       16     33     30   def2-QZVP   [4s3p2d1f|7s3p2d1f]
   ---------------------------------------------------------------------------
   total:   26   1298   1050
   ---------------------------------------------------------------------------

   total number of primitive shells          :   42
   total number of contracted shells         :  330
   total number of cartesian basis functions : 1280
   total number of SCF-basis functions       : 1050


   * AUXILIARY BASIS SET information:

              +--------------------------------------------------+
              |               basis set information              |
              +--------------------------------------------------+

              we will work with the 1s 3p 5d 7f 9g ... basis set
              ...i.e. with spherical basis functions...

   type   atoms  prim   cont   basis
   ---------------------------------------------------------------------------
    c       10    141    141   def2-QZVP   [9s8p7d5f3g1h|9s8p7d5f3g1h]
    h       16     56     56   def2-QZVP   [6s4p3d2f1g|6s4p3d2f1g]
   ---------------------------------------------------------------------------
   total:   26   2306   2306
   ---------------------------------------------------------------------------

   total number of primitive shells          :   49
   total number of contracted shells         :  586
   total number of cartesian basis functions : 3046
   total number of SCF-basis functions       : 2306


   * RIJ AUXILIARY BASIS SET information:

              +--------------------------------------------------+
              |               basis set information              |
              +--------------------------------------------------+

              we will work with the 1s 3p 5d 7f 9g ... basis set
              ...i.e. with spherical basis functions...

   type   atoms  prim   cont   basis
   ---------------------------------------------------------------------------
    c       10     70     49   def2-QZVP   [6s4p3d1f1g|12s5p4d2f1g]
    h       16     16     11   def2-QZVP   [3s1p1d|5s2p1d]
   ---------------------------------------------------------------------------
   total:   26    956    666
   ---------------------------------------------------------------------------

   total number of primitive shells          :   32
   total number of contracted shells         :  230
   total number of cartesian basis functions :  802
   total number of SCF-basis functions       :  666


 reading orbital data $scfmo  from file mos
 orbital characterization : scfconv=9

 integral neglect threshold       :  0.32E+02

 scfconv           9

 MAXIMUM CORE MEMORY WHICH CAN BE ALLOCATED DYNAMICALLY = 8000 MiB
              ( or 1048576000 double words )


 there are 1 real representations :   a   

 maximum number of shells which are related by symmetry :  1

 time elapsed for calculating density matrices :   0.074 sec
 all orbitals will be active in the correlation treatment

     total memory allocated for calculation of (Q|P)**(-1/2) : 61 MiB


     calculation of (P|Q) ...
     time in lp2sym        cpu:  0.18 sec    wall:  0.18 sec    ratio:  1.0


     calculation of the Cholesky decomposition of (P|Q)**(-1) ...
     time in invmetri      cpu:  1.27 sec    wall:  1.27 sec    ratio:  1.0

   threshold for RMS(d[D]) in SCF was     :  0.10E-06
   integral neglect threshold             :  0.11E-13
   derivative integral neglect threshold  :  0.10E-06


 setting up bound for integral derivative estimation

 increment for numerical differentiation : 0.00050000
 total memory allocated for calculation of (Q|P)**(-1/2) : 61 MiB
 Allocatable memory for RI due to $ricore (MB):         500

 there are 1 real representations :   a   

 maximum number of shells which are related by symmetry :  1

  
           ------------------------
               RI-J - INFORMATION
           ------------------------
 Contributions to RI integral batches: 
  neglected integral batches:        9089
  direct contribution:              33086
  memory contribution:       12440
 
          -----------------
          -S,T+V- integrals
          -----------------

 1e-integrals will be neglected if expon. factor < 0.109433E-13

          ------------------------
          nuclear repulsion energy  :   531.924255367    
          ------------------------


 residuum convergence criterium   :  0.10E-04


 integral neglect threshold       :  0.26E-11
 integral storage threshold THIZE :  0.10E-04
 integral storage threshold THIME :         5


 WARNING : cannot change filename for statistics 
  
           ------------------
           density functional
           ------------------
 TPSS meta-GGA functional
 exchange:    LDA + TPSS
 correlation: LDA (PW) + TPSS
 iterations will be done with small grid
  
 spherical integration : Lebedev's spherical grid
 spherical gridsize    :           5
    i.e. gridpoints    :         590
 value for diffuse not defined
 radial integration    : Chebyshev 2nd kind (scaling 3)
 radial gridsize       :           8
 integration cells     :          26
 partition function    : becke
 partition sharpness   :           3
  
 preparing numerical integration ....
          Overall gridpoints after grid construction =        115898

          IRREP   tensor space dimension   number of roots

           a             38456                   1

 Calculating ground state density on molecular grid

 Integral of ground state density: N =   75.99983331530431    


 number of passes for ispin    1
 =    1
 
 Number of eigenvalues < 6e-3:            0
 
 
            -----------------------------
            Complex frequency integration
            -----------------------------
 
 Number of Clenshaw-Curtis nodes:          200
 Optimized scaling parameter    :    4.96958678754527     
 Sensitivity measure            :  -1.909244984332759E-011
 
 nrbfx        2306        2306
 Contributions to RI integral batches: 
  neglected integral batches:        9742
  direct contribution:              44873
  memory contribution:           0

                  -------------------------------------------- 
                 |  HXX+RIRPA total energy     =   -391.40280556571  |
                  --------------------------------------------- 
                 :  RIRPA correlation energy   =     -3.34066464313  :
                 :  HXX total energy           =   -388.06214092258  :
                 :  Hartree energy             =    717.64433178015  :
                 :  Exact Exchange energy      =    -57.66116650304  :
                  ............................................. 


 maximum number of Davidson iterations set to   25


 logfile dipl_a    exists already

 found      1 converged vectors on dipl_a   
 read       1 vectors from logfile dipl_a   


                    ------------------

                     CPKS equations   

                    ------------------


                       Block Davidson iteration


 total number of roots to be determined:   1


 maximum core memory set to  8000 MB,
 corresponding to      636 vectors in CAO basis


 maximum number of simultaneously treated vectors (including degeneracy):        1


 Iteration IRREP Converged      Max. Euclidean
                 roots          residual norm

    1       a        0        9.915832077217817D-04
 
    2       a        0        7.609856308376260D-05
 
    3       a        0        1.810757718128986D-05
 
    4       a        1        6.397375840486616D-06
 

 converged!


 Switching to fine grid

 preparing numerical integration ....
          Overall gridpoints after grid construction =        381863

 Calculating ground state density on molecular grid

 Integral of ground state density: N =   75.99999739885401    



 Iteration IRREP Converged      Max. Euclidean
                 roots          residual norm

    5       a        0        4.037697724519324D-04
 

 NOTE: Residual norms are larger than 1.00D-05 due to mgrid option!

 Eigenpairs written on logfile dipl_a   



 IRREP   Vector     Frequency            Euclidean residual norm

  a         1    0.000000000000000D+00    4.037697724519324D-04
 

                    -------------------

                     relaxed densities 

                    -------------------

    ----------------------------------------
     S+T+V CONTRIBUTIONS TO ENERGY GRADIENT 
    ----------------------------------------

 1e-integral 1st. derivatives will be neglected if expon. factor < 0.100000E-10


    -----------------------------------------------
     TWO ELECTRON CONTRIBUTIONS TO ENERGY GRADIENT 
    -----------------------------------------------

 setting up bound for integral derivative estimation

 increment for numerical differentiation : 0.00050000

 biggest AO integral is expected to be     5.262544080
 biggest cartesian 1st derivative AO integral is expected to be     9.521813972

 biggest 1-particle AO density matrix element is expected to be    0.6212349504

 core memory to be involved in 2e-gradient :
   symmetry shell pair data              :         0
   two particle density+dens. estimates  :    249096
   derivative integrals                  :   1194671
   ij-primitive data                     :       576
   derivative integral bound             :    163845
   totally                               :   1359090


 setting up bound for integral derivative estimation

 increment for numerical differentiation : 0.00050000

 biggest AO integral is expected to be     5.262544080
 biggest cartesian 1st derivative AO integral is expected to be     9.521813972

 2e-integral 1st. derivatives will be neglected if expon. factor < 0.935762E-20
 outer boundary for 2e-integral derivative neglection is 0.404113E-20

 Integrated ground state density     :   151.9999947976943    


          ------------------------------------------------
           cartesian gradient of the energy (hartree/bohr)
          ------------------------------------------------

  ATOM      1 c           2 c           3 h           4 c           5 c 
dE/dx -0.7746055D-05  0.1126646D-05  0.3525897D-05  0.5920098D-05 -0.6258261D-05
dE/dy -0.2983086D-05  0.1408884D-05 -0.4144949D-07  0.2517421D-05 -0.1584368D-05
dE/dz -0.1010642D-05 -0.2853204D-05  0.1958036D-06  0.2701111D-05 -0.2729548D-05

  ATOM      6 h           7 h           8 h           9 c          10 c 
dE/dx -0.6900910D-06 -0.1717414D-07  0.9483976D-06 -0.3547203D-05  0.6183774D-05
dE/dy -0.2096463D-05  0.2538965D-06 -0.1600135D-06 -0.2470613D-05 -0.1605464D-06
dE/dz -0.8473343D-06  0.1079079D-05  0.1345530D-05 -0.1630950D-05  0.4203851D-05

  ATOM     11 h          12 h          13 h          14 h          15 c 
dE/dx  0.1097159D-05  0.9949964D-06 -0.1343766D-05 -0.1321919D-05 -0.1587685D-05
dE/dy  0.9868471D-06  0.1725000D-05  0.4859835D-06 -0.6281967D-06  0.1069360D-05
dE/dz -0.2996076D-06 -0.6101190D-07 -0.1502388D-05 -0.8941133D-06  0.6690122D-06

  ATOM     16 c          17 h          18 h          19 c          20 h 
dE/dx  0.5831193D-07  0.1292342D-06  0.1344370D-05  0.1250597D-05 -0.4933667D-07
dE/dy -0.6635747D-06 -0.2376158D-05 -0.1528509D-05  0.1228472D-05 -0.1142165D-05
dE/dz -0.2024517D-05 -0.1065375D-05 -0.1271074D-05  0.1440601D-06 -0.2924561D-06

  ATOM     21 h          22 h          23 c          24 h          25 h 
dE/dx  0.1459198D-07 -0.9715453D-08  0.1161964D-07  0.7972400D-06  0.5592954D-06
dE/dy -0.1084432D-05 -0.6109936D-06  0.1411378D-05  0.8678409D-06  0.5049382D-06
dE/dz  0.8087485D-07 -0.8657947D-06 -0.1437705D-07 -0.1144082D-05 -0.9946517D-06

  ATOM     26 h 
dE/dx  0.1559868D-06
dE/dy  0.4711936D-06
dE/dz -0.9468259D-06
 
 resulting FORCE  (fx,fy,fz) = (0.155D-05,-.460D-05,-.100D-04)
 resulting MOMENT (mx,my,mz) = (-.191D-04,-.134D-04,-.374D-04)


 **********************************************************************
  |maximum component of gradient| : 0.77460555E-05  (atom  1 c )       
   gradient norm                  : 0.18091566E-04
 **********************************************************************

 exx =       0.000007 eyy =       0.000009 ezz =      -0.000008
 eyz =       0.000015 exz =       0.000002 exy =      -0.000018

   ***  cartesian gradients written onto <gradient>  ***
 
 
 
 ==============================================================================
                           electrostatic moments
 ==============================================================================

 reference point for electrostatic moments:    0.00000   0.00000   0.00000

 
              nuc           gs,e       ->  gs,tot          rpa       ->  total
 ------------------------------------------------------------------------------
                          charge      
 ------------------------------------------------------------------------------
          76.000000     -76.000000       0.000000       0.000000       0.000000
 
 ------------------------------------------------------------------------------
                       dipole moment  
 ------------------------------------------------------------------------------
   x       2.428189      -2.582127      -0.153939       0.027713      -0.126226
   y      -7.961711       8.145753       0.184042      -0.030498       0.153544
   z       0.613062      -0.566028       0.047034      -0.018108       0.028926
 
   | dipole moment | =     0.2009 a.u. =     0.5105 debye 
 
 ------------------------------------------------------------------------------
                     quadrupole moment
 ------------------------------------------------------------------------------
  xx    1006.497003   -1053.411134     -46.914131       0.074790     -46.839341
  yy     178.006958    -225.377133     -47.370175      -0.099315     -47.469490
  zz     521.230177    -569.530237     -48.300059       0.093257     -48.206802
  xy     -11.947701      12.563494       0.615793      -0.144710       0.471083
  xz    -505.962573     506.341011       0.378438      -0.225851       0.152587
  yz     -38.794927      38.456749      -0.338178       0.111979      -0.226199
 
     1/3  trace=     -47.505211
     anisotropy=       1.514740
 
 ==============================================================================
 

    ------------------------------------------------------------------------
    Rirpa profiling                cpu                    wall         ratio
    ------------------------------------------------------------------------
    module                         sec     %               sec     %
    ------------------------------------------------------------------------
    RIRPA                     37604.0  100.00        37573.7  100.00   1.0
    ccmkbaoi                     99.9    0.27           99.8    0.27   1.0
    ehxx                       2145.6    5.71         2143.8    5.71   1.0
    RIRPA_grad                35347.8   94.00        35319.4   94.00   1.0
    rirhs                     16702.8   44.42        16689.5   44.42   1.0
    tqbuild                    3639.8    9.68         3636.9    9.68   1.0
    trpaln                       98.3    0.26           98.2    0.26   1.0
    respon                      616.9    1.64          616.4    1.64   1.0
    rparelax                    302.4    0.80          302.1    0.80   1.0
    egdfin                    17496.7   46.53        17482.6   46.53   1.0
    ------------------------------------------------------------------------
    sum                      114065.3  303.33       113973.6  303.33   1.0
    ------------------------------------------------------------------------


    ------------------------------------------------------------------------
         total  cpu-time : 10 hours 26 minutes and 44 seconds
         total wall-time : 10 hours 26 minutes and 14 seconds
    ------------------------------------------------------------------------

   ****  rirpa : all done  ****


    2016-02-15 02:21:26.375 

fine, there is no data group "$actual step"
script actual: unknown actual step rirpa
next step = unknown
 energy change  : actual value =  -0.1930E-07 threshold =   0.1000E-06
 geom. gradient : actual value =   0.2158E-04 threshold =   0.1000E-03

CONVERGENCY CRITERIA FULFILLED IN CYCLE 7

