Using Slurm to start processes with PMI2
STARTING ridft ON 8 PROCESSORS!
RUNNING PROGRAM /modfac/apps/TURBOMOLE/7.0_intel_GA/bin/em64t-unknown-linux-gnu_mpi/ridft_mpi.
PLEASE WAIT UNTIL ridft HAS FINISHED.
Look for the output in slave1.output.
  this is node-proc. number 1 running on node c-15-25.local
  the total number of node-proc. spawned is            8
  parallel platform: MPP, or cluster with fast interconnect

 ridft (c-15-25.local) : TURBOMOLE V7.0.2( ) 15 Jan 2016 at 17:47:42
 Copyright (C) 2016 TURBOMOLE GmbH, Karlsruhe


    2016-02-15 20:59:37.729 



                                  r i d f t

                        DFT program with RI approximation 
                                for coulomb part 




                                                 
                                 References:     
                                                 
          TURBOMOLE:                             
              R. Ahlrichs, M. Baer, M. Haeser, H. Horn, and
              C. Koelmel
              Electronic structure calculations on workstation
              computers: the program system TURBOMOLE
              Chem. Phys. Lett. 162: 165 (1989)
          Density Functional:                              
              O. Treutler and R. Ahlrichs                      
              Efficient Molecular Numerical Integration Schemes
              J. Chem. Phys. 102: 346 (1995)                   
          Parallel Version:                                
              Performance of parallel TURBOMOLE for Density    
              Functional Calculations                          
              M. v. Arnim and R. Ahlrichs                      
              J. Comp. Chem. 19: 1746 (1998)                   
          RI-J Method:                                     
              Auxiliary Basis Sets to approximate Coulomb      
              Potentials                                       
              Chem. Phys. Lett. 240: 283 (1995)                
              K. Eichkorn, O. Treutler, H. Oehm, M. Haeser     
              and R. Ahlrichs                                  
              Chem. Phys. Lett. 242: 652 (1995)                
                                                           
              Auxiliary Basis Sets for Main Row Atoms and their
              Use to approximate Coulomb Potentials            
              K. Eichkorn, F. Weigend, O. Treutler and         
              R. Ahlrichs                                      
              Theo. Chem. Acc. 97: 119 (1997)                   
                                                           
              Accurate Coulomb-fitting basis sets for H to Rn 
              F. Weigend                                        
              Phys. Chem. Chem. Phys. 8: 1057 (2006)            
                                                           
          Multipole accelerated RI-J (MARI-J):             
              Fast evaluation of the Coulomb potential for     
              electron densities using multipole accelerated   
              resolution of identity approximation             
              M. Sierka, A. Hogekamp and R. Ahlrichs           
              J. Chem. Phys. 118: 9136 (2003)                  
          RI-JK Method:                                     
              A fully direct RI-HF algorithm: Implementation,
              optimised auxiliary basis sets, demonstration of
              accuracy and efficiency                         
              F. Weigend                                      
              Phys. Chem. Chem. Phys. 4: 4285 (2002)           
          Two-component HF and DFT with spin-orbit coupling:  
              Self-consistent treatment of spin-orbit         
              interactions with efficient Hartree-Fock and    
              density functional methods                      
              M. K. Armbruster, F. Weigend, C. van Wüllen and 
              W. Klopper                                      
              Phys. Chem. Chem. Phys. 10: 1748 (2008)         
          Relativistic all-electron 2c calculations           
              An efficient implementation of two-component    
              relativistic exact-decoupling methods for large 
              molecules                                       
              D. Peng, N. Middendorf, F. Weigend, M. Reiher   
              J. Chem. Phys. 138, 184105 (2013)               
                                         


 


              +--------------------------------------------------+
              |      general information about current run       |
              +--------------------------------------------------+

 

 SCF run will be profiled !


 DENSITY CONVERGENCE CHECK SWITCHED ON !
 SCF CONVERGENCE IF RMS(delta[D]) <     0.1000000000E-06

 TPSS meta-GGA functional
 exchange:    LDA + TPSS
 correlation: LDA (PW) + TPSS
 A DFT calculation using the RI-J approximation will be carried out.
 Allocatable memory for RI due to $ricore (MB):        5000


              +--------------------------------------------------+
              | Atomic coordinate, charge and isotop information |
              +--------------------------------------------------+

                    atomic coordinates            atom    charge  isotop
          4.41838757   -2.61487074  -11.98726985    c      6.000     0
          2.83810409   -1.33048058  -10.28751789    c      6.000     0
          2.83810409    1.33048058  -10.28751789    c      6.000     0
          4.41838757    2.61487074  -11.98726985    c      6.000     0
          5.95528294    1.31742257  -13.68222191    c      6.000     0
          5.95528294   -1.31742257  -13.68222191    c      6.000     0
          1.33579071    2.86796176   -8.48214913    c      6.000     0
          2.60772758    4.56771373   -6.92174557    c      6.000     0
          1.37044829    6.32434645   -5.37247250    c      6.000     0
         -1.37044829    6.32434645   -5.37247250    c      6.000     0
         -2.60772758    4.56771373   -6.92174557    c      6.000     0
         -1.33579071    2.86796176   -8.48214913    c      6.000     0
          2.78885783    8.05371042   -3.73099969    c      6.000     0
          1.35098411    9.91335212   -2.60489299    c      6.000     0
         -1.35098411    9.91335212   -2.60489299    c      6.000     0
         -2.78885783    8.05371042   -3.73099969    c      6.000     0
         -2.17055833   11.27879263   -0.45508385    c      6.000     0
          0.00000000   12.11514762    0.87569909    c      6.000     0
          2.17055833   11.27879263   -0.45508385    c      6.000     0
          0.00000000   12.57410541    3.45500519    c      6.000     0
         -2.47682625   12.52075844    4.60783261    c      6.000     0
         -4.60635863   11.71121866    3.30382710    c      6.000     0
         -4.48416894   10.86318516    0.71008349    c      6.000     0
         -6.14648543    9.20495048   -0.66879298    c      6.000     0
         -5.33333627    7.86122292   -2.77908794    c      6.000     0
          2.47682625   12.52075844    4.60783261    c      6.000     0
          4.60635863   11.71121866    3.30382710    c      6.000     0
          4.48416894   10.86318516    0.71008349    c      6.000     0
          6.14648543    9.20495048   -0.66879298    c      6.000     0
          5.33333627    7.86122292   -2.77908794    c      6.000     0
         -2.83810409    1.33048058  -10.28751789    c      6.000     0
         -2.83810409   -1.33048058  -10.28751789    c      6.000     0
         -4.41838757   -2.61487074  -11.98726985    c      6.000     0
         -5.95528294   -1.31742257  -13.68222191    c      6.000     0
         -5.95528294    1.31742257  -13.68222191    c      6.000     0
         -4.41838757    2.61487074  -11.98726985    c      6.000     0
          1.33579071   -2.86796176   -8.48214913    c      6.000     0
          2.60772758   -4.56771373   -6.92174557    c      6.000     0
          1.37044829   -6.32434645   -5.37247250    c      6.000     0
         -1.37044829   -6.32434645   -5.37247250    c      6.000     0
         -2.60772758   -4.56771373   -6.92174557    c      6.000     0
         -1.33579071   -2.86796176   -8.48214913    c      6.000     0
         -2.78885783   -8.05371042   -3.73099969    c      6.000     0
         -1.35098411   -9.91335212   -2.60489299    c      6.000     0
          1.35098411   -9.91335212   -2.60489299    c      6.000     0
          2.78885783   -8.05371042   -3.73099969    c      6.000     0
          2.17055833  -11.27879263   -0.45508385    c      6.000     0
          0.00000000  -12.11514762    0.87569909    c      6.000     0
         -2.17055833  -11.27879263   -0.45508385    c      6.000     0
         -5.33333627   -7.86122292   -2.77908794    c      6.000     0
         -6.14648543   -9.20495048   -0.66879298    c      6.000     0
         -4.48416894  -10.86318516    0.71008349    c      6.000     0
         -4.60635863  -11.71121866    3.30382710    c      6.000     0
         -2.47682625  -12.52075844    4.60783261    c      6.000     0
          0.00000000  -12.57410541    3.45500519    c      6.000     0
          5.33333627   -7.86122292   -2.77908794    c      6.000     0
          6.14648543   -9.20495048   -0.66879298    c      6.000     0
          4.48416894  -10.86318516    0.71008349    c      6.000     0
          4.60635863  -11.71121866    3.30382710    c      6.000     0
          2.47682625  -12.52075844    4.60783261    c      6.000     0
         -8.02878493    8.82001327    0.05890276    h      1.000     0
         -6.62392473    6.48557788   -3.59047965    h      1.000     0
          6.62392473    6.48557788   -3.59047965    h      1.000     0
          8.02878493    8.82001327    0.05890276    h      1.000     0
          6.37175968   11.53634340    4.34024739    h      1.000     0
          2.66681931   12.94551218    6.60912818    h      1.000     0
         -2.66681931   12.94551218    6.60912818    h      1.000     0
         -6.37175968   11.53634340    4.34024739    h      1.000     0
         -6.37175968  -11.53634340    4.34024739    h      1.000     0
         -2.66681931  -12.94551218    6.60912818    h      1.000     0
          2.66681931  -12.94551218    6.60912818    h      1.000     0
          6.37175968  -11.53634340    4.34024739    h      1.000     0
          8.02878493   -8.82001327    0.05890276    h      1.000     0
          6.62392473   -6.48557788   -3.59047965    h      1.000     0
         -6.62392473   -6.48557788   -3.59047965    h      1.000     0
         -8.02878493   -8.82001327    0.05890276    h      1.000     0
          4.66078274    4.56215793   -6.95940781    h      1.000     0
         -4.66078274    4.56215793   -6.95940781    h      1.000     0
          4.66078274   -4.56215793   -6.95940781    h      1.000     0
         -4.66078274   -4.56215793   -6.95940781    h      1.000     0
         -4.40961924    4.66820936  -11.97084813    h      1.000     0
         -7.14193646    2.35843491  -14.99418318    h      1.000     0
         -7.14193646   -2.35843491  -14.99418318    h      1.000     0
         -4.40961924   -4.66820936  -11.97084813    h      1.000     0
          4.40961924    4.66820936  -11.97084813    h      1.000     0
          7.14193646    2.35843491  -14.99418318    h      1.000     0
          7.14193646   -2.35843491  -14.99418318    h      1.000     0
          4.40961924   -4.66820936  -11.97084813    h      1.000     0
 
       center of nuclear mass  :   -0.00000000    0.00000000   -3.74722059
       center of nuclear charge:    0.00000000    0.00000000   -3.74863375

              +--------------------------------------------------+
              |               basis set information              |
              +--------------------------------------------------+

              we will work with the 1s 3p 5d 7f 9g ... basis set
              ...i.e. with spherical basis functions...

   type   atoms  prim   cont   basis
   ---------------------------------------------------------------------------
    c       60     50     30   cc-pVTZ   [4s3p2d1f|18s5p2d1f]
    h       28     16     14   cc-pVTZ   [3s2p1d|5s2p1d]
   ---------------------------------------------------------------------------
   total:   88   3448   2192
   ---------------------------------------------------------------------------

   total number of primitive shells          :   34
   total number of contracted shells         :  768
   total number of cartesian basis functions : 2520
   total number of SCF-basis functions       : 2192


 integral neglect threshold       :  0.13E-13
 integral storage threshold THIZE :  0.10E-04
 integral storage threshold THIME :         5

 RI-J AUXILIARY BASIS SET information:

              we will work with the 1s 3p 5d 7f 9g ... basis set
              ...i.e. with spherical basis functions...

   type   atoms  prim   cont   basis
   ---------------------------------------------------------------------------
    c       60     70     49   cc-pVTZ   [6s4p3d1f1g|12s5p4d2f1g]
    h       28     16     11   cc-pVTZ   [3s1p1d|5s2p1d]
   ---------------------------------------------------------------------------
   total:   88   4648   3248
   ---------------------------------------------------------------------------

   total number of primitive shells          :   32
   total number of contracted shells         : 1040
   total number of cartesian basis functions : 3996
   total number of SCF-basis functions       : 3248


 symmetry group of the molecule :   c1 

 the group has the following generators :
   c1(z)

    1 symmetry operations found

 there are 1 real representations :   a   

 maximum number of shells which are related by symmetry :  1


    mo occupation :
   irrep   mo's   occupied
    a     2192      194
 
 number of basis functions   :         2192
 number of occupied orbitals :          194
 
  
           ------------------
           density functional
           ------------------
 TPSS meta-GGA functional
 exchange:    LDA + TPSS
 correlation: LDA (PW) + TPSS
 grinp -> nfun, dfgga, dfhybrid 
           5 F F
 iterations will be done with small grid
  
 spherical integration : Lebedev's spherical grid
 spherical gridsize    :           5
    i.e. gridpoints    :         590
 value for diffuse not defined
 radial integration    : Chebyshev 2nd kind (scaling 3)
 radial gridsize       :           8
 integration cells     :          88
 partition function    : becke
 partition sharpness   :           3
  

 <rddim> : input of entry tasksize
           from data group '$pardft' failed !

               Default values taken

 <rddim> : input of entry memdiv
           from data group '$pardft' failed !

               Default values taken
  RIDFT: memory allocation for DFT gridpoints
  MEMORY is divided by 1 as DEFAULT
 Each node can hold at most  the            1 -th part
 of the gridpoints    

 biggest AO integral is expected to be     3.593180334
  
           ------------------------
               RI-J - INFORMATION
           ------------------------
 
 
 **************************************************
 *      MEMORY ALLOCATION FOR PARALLEL RI-DFT     *
 **************************************************
 
 
MEMORY FOR (MU NU/ ALPHA), SEQUENTIAL RUN               4916 MByte
 
            DIFFERENCE IN MEMORY NEED:       DIAG./SLAVE  
 
      TOTAL DIFFERENCE :                    276 MByte
 
      difference in xcore:                   85 MByte
      difference in fatmat:                  70 MByte
      getcor calls skipped by slaves:       122 MByte
 
 
           Integral memory available for diagonal.      4916 MByte
 
           Integral memory available for slave             0 MByte
 
         MEMORY FOR (MU NU/ ALPHA) ON DIAGONALIZER      4916 MByte
 
         MEMORY FOR (MU NU/ ALPHA) ON ONE SLAVE            0 MByte
 
         TOTAL MEMORY FOR (MU NU/ ALPHA),ALL NODES      4916 MByte
 
 Contributions to RI integral batches: 
  neglected integral batches:      184608
  direct contribution:              70235
  memory contribution:       40453
 Memory core needed for (P|Q) and Cholesky     81 MByte
 Memory core minimum needed except of (P|Q)     5 MByte
 Total minimum memory core needed (sum)        86 MByte
     number of direct tasks:         160
  
 ****************************************
 Memory allocated for RI-J  5002 MByte
 ****************************************
                                            

          ------------------------
          nuclear repulsion energy  :   7311.76284060    
          ------------------------

 
          -----------------
          -S integrals
          -----------------

 1e-integrals will be neglected if expon. factor < 0.132618E-14
 
          -----------------
          -T+V integrals
          -----------------

 1e-integrals will be neglected if expon. factor < 0.132618E-14
 Difference densities >>NOT<< switched on in parallel ridft!

 automatic virtual orbital shift switched on 
      shift if e(lumo)-e(homo) < 0.10000000    


 DIIS switched on: error vector is FDS-SDF
 Max. Iterations for DIIS is     :   4
 DIIS matrix (see manual) 
    Scaling factor of diagonals  :  1.200
    threshold for scaling factor :  0.000

 scf convergence criterion : increment of total energy < .1000000D-08
                  and increment of one-electron energy < .1000000D-05


 <geterg> : there is no data group $energy 

  MOs are in ASCII format !


 reading orbital data $scfmo  from file mos . 

 orbital characterization : expanded
 
 mo provided and orthogonalized by Cholesky decomposition

 DSCF restart information will be dumped onto file mos


 Starting SCF iterations


 ITERATION  ENERGY          1e-ENERGY        2e-ENERGY     RMS[dD(SAO)]   TOL
   1  -2297.8792683978    -17574.400783     7964.7586744    0.000D+00 0.132D-13
                            Exc = -329.236229776     Coul =  8293.99490417    
                              N = 388.00124186    
                            current damping = 0.700
 
          max. resid. norm for Fia-block=  2.526D-01 for orbital     69a         
          max. resid. fock norm         =  4.428D+00 for orbital   1937a         

 ITERATION  ENERGY          1e-ENERGY        2e-ENERGY     RMS[dD(SAO)]   TOL
   2  -2302.9531706966    -17641.876401     8027.1603894    0.320D-02 0.132D-13
                            Exc = -334.216718103     Coul =  8361.37710750    
                              N = 388.00101131    
                            current damping = 0.650
 
          Norm of current diis error:  6.3784    
          max. resid. norm for Fia-block=  1.249D-01 for orbital     62a         
          max. resid. fock norm         =  1.558D-01 for orbital    229a         

 ITERATION  ENERGY          1e-ENERGY        2e-ENERGY     RMS[dD(SAO)]   TOL
   3  -2304.0666945116    -17656.986114     8041.1565785    0.124D-02 0.132D-13
                            Exc = -335.738104563     Coul =  8376.89468304    
                              N = 388.00087185    
                            current damping = 0.550
 
          Norm of current diis error:  3.1284    
          max. resid. norm for Fia-block=  6.101D-02 for orbital     62a         
          max. resid. fock norm         =  7.036D-02 for orbital     62a         

 ITERATION  ENERGY          1e-ENERGY        2e-ENERGY     RMS[dD(SAO)]   TOL
   4  -2304.3997075835    -17671.588558     8055.4260100    0.682D-03 0.132D-13
                            Exc = -336.673667719     Coul =  8392.09967768    
                              N = 388.00079552    
                            current damping = 0.450
 
          Norm of current diis error:  1.2557    
          max. resid. norm for Fia-block=  2.470D-02 for orbital     62a         
          max. resid. fock norm         =  3.639D-02 for orbital    387a         

 ITERATION  ENERGY          1e-ENERGY        2e-ENERGY     RMS[dD(SAO)]   TOL
   5  -2304.4454806429    -17672.603133     8056.3948118    0.457D-03 0.132D-13
                            Exc = -337.053542756     Coul =  8393.44835453    
                              N = 388.00076419    
                            current damping = 0.350
 
          Norm of current diis error: 0.84622    
          max. resid. norm for Fia-block=  1.385D-02 for orbital    193a         
          max. resid. fock norm         =  2.260D-02 for orbital     73a         
          mo-orthogonalization: Cholesky decomposition

 ITERATION  ENERGY          1e-ENERGY        2e-ENERGY     RMS[dD(SAO)]   TOL
   6  -2304.4683665023    -17677.544678     8061.3134713    0.227D-03 0.132D-13
                            Exc = -337.225138499     Coul =  8398.53860979    
                              N = 388.00074675    
                            current damping = 0.250
 
          Norm of current diis error: 0.39047    
          max. resid. norm for Fia-block=  5.542D-03 for orbital    190a         
          max. resid. fock norm         =  8.361D-03 for orbital     71a         

 ITERATION  ENERGY          1e-ENERGY        2e-ENERGY     RMS[dD(SAO)]   TOL
   7  -2304.4738053499    -17676.830544     8060.5938978    0.105D-03 0.132D-13
                            Exc = -337.235595046     Coul =  8397.82949286    
                              N = 388.00074724    
                            current damping = 0.300
 
          Norm of current diis error: 0.11818    
          max. resid. norm for Fia-block=  2.012D-03 for orbital    192a         
          max. resid. fock norm         =  3.616D-03 for orbital   2162a         

 ITERATION  ENERGY          1e-ENERGY        2e-ENERGY     RMS[dD(SAO)]   TOL
   8  -2304.4738492085    -17676.473270     8060.2365803    0.463D-04 0.132D-13
                            Exc = -337.239788577     Coul =  8397.47636888    
                              N = 388.00074657    
                            current damping = 0.150
 
          Norm of current diis error: 0.11425    
          max. resid. norm for Fia-block=  1.401D-03 for orbital    192a         
          max. resid. fock norm         =  2.391D-03 for orbital   2192a         

 ITERATION  ENERGY          1e-ENERGY        2e-ENERGY     RMS[dD(SAO)]   TOL
   9  -2304.4741952299    -17676.964368     8060.7273320    0.248D-04 0.132D-13
                            Exc = -337.246517819     Coul =  8397.97384979    
                              N = 388.00074517    
                            current damping = 0.200
 
          Norm of current diis error: 0.56930E-01
          max. resid. norm for Fia-block=  6.596D-04 for orbital    181a         
          max. resid. fock norm         =  1.163D-03 for orbital   2162a         

 ITERATION  ENERGY          1e-ENERGY        2e-ENERGY     RMS[dD(SAO)]   TOL
  10  -2304.4742985938    -17676.903549     8060.6664093    0.159D-04 0.132D-13
                            Exc = -337.247095886     Coul =  8397.91350523    
                              N = 388.00074558    
                            current damping = 0.250
 
          Norm of current diis error: 0.20107E-01
          max. resid. norm for Fia-block=  2.628D-04 for orbital    191a         
          max. resid. fock norm         =  4.871D-04 for orbital   2162a         
          mo-orthogonalization: Cholesky decomposition

 ITERATION  ENERGY          1e-ENERGY        2e-ENERGY     RMS[dD(SAO)]   TOL
  11  -2304.4743107926    -17676.809668     8060.5725164    0.522D-05 0.132D-13
                            Exc = -337.244096378     Coul =  8397.81661274    
                              N = 388.00074594    
                            current damping = 0.100
 
          Norm of current diis error: 0.93635E-02
          max. resid. norm for Fia-block=  1.160D-04 for orbital    189a         
          max. resid. fock norm         =  1.984D-04 for orbital   2152a         

 ITERATION  ENERGY          1e-ENERGY        2e-ENERGY     RMS[dD(SAO)]   TOL
  12  -2304.4743130682    -17676.861278     8060.6241247    0.241D-05 0.132D-13
                            Exc = -337.244382448     Coul =  8397.86850716    
                              N = 388.00074570    
                            current damping = 0.150
 
          Norm of current diis error: 0.52607E-02
          max. resid. norm for Fia-block=  6.949D-05 for orbital    188a         
          max. resid. fock norm         =  1.473D-04 for orbital   2152a         

 ITERATION  ENERGY          1e-ENERGY        2e-ENERGY     RMS[dD(SAO)]   TOL
  13  -2304.4743138424    -17676.847238     8060.6100833    0.124D-05 0.132D-13
                            Exc = -337.244850822     Coul =  8397.85493415    
                              N = 388.00074575    
                            current damping = 0.200
 
          Norm of current diis error: 0.29837E-02
          max. resid. norm for Fia-block=  3.467D-05 for orbital    191a         
          max. resid. fock norm         =  6.510D-05 for orbital     65a         

 ITERATION  ENERGY          1e-ENERGY        2e-ENERGY     RMS[dD(SAO)]   TOL
  14  -2304.4743141548    -17676.850882     8060.6137277    0.679D-06 0.132D-13
                            Exc = -337.244805027     Coul =  8397.85853277    
                              N = 388.00074575    
                            current damping = 0.250
 
          Norm of current diis error: 0.11638E-02
          max. resid. norm for Fia-block=  1.470D-05 for orbital    190a         
          max. resid. fock norm         =  2.524D-05 for orbital   2183a         

 ITERATION  ENERGY          1e-ENERGY        2e-ENERGY     RMS[dD(SAO)]   TOL
  15  -2304.4743141975    -17676.848478     8060.6113232    0.240D-06 0.132D-13
                            Exc = -337.244711878     Coul =  8397.85603506    
                              N = 388.00074576    
                            current damping = 0.300
 
          Norm of current diis error: 0.52614E-03
          max. resid. norm for Fia-block=  6.010D-06 for orbital    182a         
          max. resid. fock norm         =  1.040D-05 for orbital   2188a         
          mo-orthogonalization: Cholesky decomposition

 DENSITY CONVERGED !


 ITERATION  ENERGY          1e-ENERGY        2e-ENERGY     RMS[dD(SAO)]   TOL
  16  -2304.4743142068    -17676.849822     8060.6126667    0.941D-07 0.132D-13
                            Exc = -337.244712831     Coul =  8397.85737954    
                              N = 388.00074575    
                            current damping = 0.350
 
          Norm of current diis error: 0.18232E-03
          max. resid. norm for Fia-block=  2.840D-06 for orbital    186a         
          max. resid. fock norm         =  4.734D-06 for orbital   2163a         

 DENSITY CONVERGED !


 ITERATION  ENERGY          1e-ENERGY        2e-ENERGY     RMS[dD(SAO)]   TOL
  17  -2304.4743142076    -17676.848708     8060.6115533    0.433D-07 0.132D-13
                            Exc = -337.244727286     Coul =  8397.85628062    
                              N = 388.00074576    
                            current damping = 0.400
 
          Norm of current diis error: 0.11923E-03
          max. resid. norm for Fia-block=  1.327D-06 for orbital    183a         
          max. resid. fock norm         =  2.728D-06 for orbital   2150a         

 DENSITY CONVERGED !


 ITERATION  ENERGY          1e-ENERGY        2e-ENERGY     RMS[dD(SAO)]   TOL
  18  -2304.4743142080    -17676.849498     8060.6123429    0.263D-07 0.132D-13
                            Exc = -337.244732626     Coul =  8397.85707548    
                              N = 388.00074576    
                            current damping = 0.450
 
          Norm of current diis error: 0.30098E-04
          max. resid. norm for Fia-block=  5.039D-07 for orbital    192a         
          max. resid. fock norm         =  1.036D-06 for orbital   2162a         

 DENSITY CONVERGED !


 ITERATION  ENERGY          1e-ENERGY        2e-ENERGY     RMS[dD(SAO)]   TOL
  19  -2304.4743142081    -17676.849358     8060.6122029    0.934D-08 0.132D-13
                            Exc = -337.244728632     Coul =  8397.85693152    
                              N = 388.00074576    
                            current damping = 0.500
 
          Norm of current diis error: 0.17305E-04
          max. resid. norm for Fia-block=  2.999D-07 for orbital    192a         
          max. resid. fock norm         =  6.079D-07 for orbital   2162a         

 ENERGY & DENSITY CONVERGED !


 ITERATION  ENERGY          1e-ENERGY        2e-ENERGY     RMS[dD(SAO)]   TOL
  20  -2304.4727899166    -17676.849327     8060.6136965    0.406D-08 0.132D-13
                            Exc = -337.243202937     Coul =  8397.85689942    
                              N = 387.99996551    
                            current damping = 0.550
 
          Norm of current diis error: 0.11051E-04
          max. resid. norm for Fia-block=  1.193D-07 for orbital    187a         
          max. resid. fock norm         =  2.218D-07 for orbital     35a         

 End of SCF iterations

   convergence criteria satisfied after   20 iterations


                  ------------------------------------------ 
                 |  total energy      =  -2304.47278991663  |
                  ------------------------------------------ 
                 :  kinetic energy    =   2291.17360472896  :
                 :  potential energy  =  -4595.64639464559  :
                 :  virial theorem    =      1.99422896845  :
                 :  wavefunction norm =      1.00000000000  :
                  .......................................... 


 <geterg> : there is no data group $energy 


 <skperg> : $end is missing 


 orbitals $scfmo  will be written to file mos

    irrep                190a        191a        192a        193a        194a   
 eigenvalues H         -0.20359    -0.20328    -0.20104    -0.19892    -0.19689
            eV          -5.5399     -5.5315     -5.4707     -5.4130     -5.3576
 occupation              2.0000      2.0000      2.0000      2.0000      2.0000 

    irrep                195a        196a        197a        198a        199a   
 eigenvalues H         -0.09135    -0.09111    -0.08532    -0.08419    -0.06467
            eV          -2.4858     -2.4794     -2.3217     -2.2909     -1.7597
 
 
 ! grave: sending quit signal to master process
 
 
 
 
 ==============================================================================
                           electrostatic moments
 ==============================================================================

 reference point for electrostatic moments:    0.00000   0.00000   0.00000

 
              nuc           elec       ->  total
 ------------------------------------------------------------------------------
                          charge      
 ------------------------------------------------------------------------------
         388.000000    -388.000000      -0.000000
 
 ------------------------------------------------------------------------------
                       dipole moment  
 ------------------------------------------------------------------------------
   x       0.000000       0.000000       0.000000
   y      -0.000000      -0.000000      -0.000000
   z   -1454.469897    1454.991492       0.521595
 
   | dipole moment | =     0.5216 a.u. =     1.3258 debye 
 
 ------------------------------------------------------------------------------
                     quadrupole moment
 ------------------------------------------------------------------------------
  xx    5828.992451   -6056.491188    -227.498737
  yy   27811.132451  -28081.394731    -270.262280
  zz   17652.826000  -17884.065455    -231.239455
  xy      -0.000000      -0.000000      -0.000000
  xz      -0.000000      -0.000000      -0.000000
  yz      -0.000000      -0.000000      -0.000000
 
     1/3  trace=    -243.000157
     anisotropy=      41.021302
 
 ==============================================================================
 

    ridft profiling
  --------------------------------------------------------------------
             module   cpu total (s)       %  wall total (s)       %

               RIDFT          3233.7  100.00          3238.2  100.00
         Ridft_b_scf            81.1    2.51            81.1    2.51
        b_scf_prelim             0.0    0.00             0.0    0.00
        b_scf_molinp             0.0    0.00             0.0    0.00
         b_scf_init0             0.0    0.00             0.0    0.00
        b_scf_auxbas             0.0    0.00             0.0    0.00
      b_scf_symmetry             0.0    0.00             0.0    0.00
         b_scf_cosmo             0.0    0.00             0.0    0.00
        b_scf_params             3.2    0.10             3.2    0.10
          b_scf_ri-j            58.0    1.79            58.0    1.79
    b_scf_ri-j_auxpq            57.9    1.79            57.9    1.79
     ri-j_auxpq_chol             4.0    0.12             4.0    0.12
         b_scf_1elec             2.1    0.07             2.1    0.07
       b_scf_moinput            17.8    0.55            17.8    0.55
     moinput_orthmos            17.1    0.53            17.1    0.53
    b_scf_dft-dstmax             0.0    0.00             0.0    0.00
           Ridft_scf          3151.5   97.46          3156.0   97.46
          Scf_b_loop             0.0    0.00             0.0    0.00
                noga             0.0    0.00             0.0    0.00
            Scf_loop          3147.7   97.34          3151.9   97.34
     scf_loop_mkdmat            12.9    0.40            12.9    0.40
       scf_loop_ri-j           520.3   16.09           520.4   16.07
      parlp1.bc.dens             1.5    0.05             1.5    0.05
        parlp1.gs.gp             1.2    0.04             1.2    0.04
        parlp2.bc.gq             0.0    0.00             0.0    0.00
        scf_loop_dft          2324.3   71.88          2324.7   71.79
      pardft.bc.dens             0.0    0.00             0.0    0.00
        dft_grid_con             5.4    0.17             5.4    0.17
          dft_xcmrhf          2218.1   68.59          2218.5   68.51
          dft_getval            56.9    1.76            56.9    1.76
          funct2 dst             1.1    0.03             1.1    0.03
      funct2 f2loop1             9.5    0.29             9.6    0.30
      funct2 f2loop2            28.1    0.87            28.1    0.87
          funct2 s+c            17.0    0.52            16.9    0.52
        funct2 cmf_2            14.9    0.46            14.9    0.46
          dft_mkdens          1056.9   32.69          1057.2   32.65
        dft_mgga-fun             2.5    0.08             2.5    0.08
          dft_mkfock          1100.4   34.03          1100.7   33.99
     pardft.red.fock           259.5    8.02           259.5    8.01
     scf_loop_energy             0.2    0.01             0.2    0.01
     scf_loop_mkfock             0.3    0.01             0.3    0.01
       scf_loop_diis           103.6    3.20           103.6    3.20
       scf_loop_diag            97.9    3.03            97.9    3.02
         diag_tritrn            35.2    1.09            35.2    1.09
          diag_rdiag            62.2    1.92            62.2    1.92
     scf_loop_modump            65.8    2.03            69.4    2.14
      scf_loop_ortho            20.1    0.62            20.2    0.62
          Scf_a_loop             3.9    0.12             4.0    0.12
         Ridft_a_scf             1.0    0.03             1.0    0.03
         a_scf_fanal             1.0    0.03             1.0    0.03
 


    ------------------------------------------------------------------------
         total  cpu-time : 53 minutes and 59 seconds
         total wall-time : 54 minutes and  4 seconds
    ------------------------------------------------------------------------


   ****  ridft : all done  ****


    2016-02-15 21:53:41.269 

