           Doing BLAS/Lapack in the master proc. with  8 CPUs.
           SMPCPUS    set: Shared-memory Parallelization with   8 CPUs.

           SMP Parallelization Reference:
           C. van Wullen, J. Comput. Chem. 32 (2011) 1195--1201
 operating system is UNIX !

 ridft (c-18-133.gp.local) : TURBOMOLE V7.2 ( 21454 ) 4 Oct 2017 at 12:48:15
 Copyright (C) 2017 TURBOMOLE GmbH, Karlsruhe


    2018-04-28 21:08:13.991 



                                  r i d f t

                        DFT program with RI approximation 
                                for coulomb part 




                                                 
                                 References:     
                                                 
          TURBOMOLE:                             
              R. Ahlrichs, M. Baer, M. Haeser, H. Horn, and
              C. Koelmel
              Electronic structure calculations on workstation
              computers: the program system TURBOMOLE
              Chem. Phys. Lett. 162: 165 (1989)
          Density Functional:                              
              O. Treutler and R. Ahlrichs                      
              Efficient Molecular Numerical Integration Schemes
              J. Chem. Phys. 102: 346 (1995)                   
          Parallel Version:                                
              Performance of parallel TURBOMOLE for Density    
              Functional Calculations                          
              M. v. Arnim and R. Ahlrichs                      
              J. Comp. Chem. 19: 1746 (1998)                   
          RI-J Method:                                     
              Auxiliary Basis Sets to approximate Coulomb      
              Potentials                                       
              Chem. Phys. Lett. 240: 283 (1995)                
              K. Eichkorn, O. Treutler, H. Oehm, M. Haeser     
              and R. Ahlrichs                                  
              Chem. Phys. Lett. 242: 652 (1995)                
                                                           
              Auxiliary Basis Sets for Main Row Atoms and their
              Use to approximate Coulomb Potentials            
              K. Eichkorn, F. Weigend, O. Treutler and         
              R. Ahlrichs                                      
              Theo. Chem. Acc. 97: 119 (1997)                   
                                                           
              Accurate Coulomb-fitting basis sets for H to Rn 
              F. Weigend                                        
              Phys. Chem. Chem. Phys. 8: 1057 (2006)            
                                                           
          Multipole accelerated RI-J (MARI-J):             
              Fast evaluation of the Coulomb potential for     
              electron densities using multipole accelerated   
              resolution of identity approximation             
              M. Sierka, A. Hogekamp and R. Ahlrichs           
              J. Chem. Phys. 118: 9136 (2003)                  
          RI-JK Method:                                     
              A fully direct RI-HF algorithm: Implementation,
              optimised auxiliary basis sets, demonstration of
              accuracy and efficiency                         
              F. Weigend                                      
              Phys. Chem. Chem. Phys. 4: 4285 (2002)           
          Two-component HF and DFT with spin-orbit coupling:  
              Self-consistent treatment of spin-orbit         
              interactions with efficient Hartree-Fock and    
              density functional methods                      
              M. K. Armbruster, F. Weigend, C. van Wüllen and 
              W. Klopper                                      
              Phys. Chem. Chem. Phys. 10: 1748 (2008)         
          Relativistic all-electron 2c calculations           
              An efficient implementation of two-component    
              relativistic exact-decoupling methods for large 
              molecules                                       
              D. Peng, N. Middendorf, F. Weigend, M. Reiher   
              J. Chem. Phys. 138, 184105 (2013)               
                                         




              +--------------------------------------------------+
              |      general information about current run       |
              +--------------------------------------------------+

 

 DENSITY CONVERGENCE CHECK SWITCHED ON !
 SCF CONVERGENCE IF RMS(delta[D]) <     0.1000000000E-06

 TPSS meta-GGA functional
 exchange:    LDA + TPSS
 correlation: LDA (PW) + TPSS
 A DFT calculation using the RI-J approximation will be carried out.
 Allocatable memory for RI due to $ricore (MB):                  5000


              +--------------------------------------------------+
              | Atomic coordinate, charge and isotop information |
              +--------------------------------------------------+

                    atomic coordinates            atom    charge  isotop
         -1.90270330   -0.05776555   -0.04681391    c      6.000     0
          0.11150013   -0.11515941   -0.09328750    h      1.000     0
         -4.19281813    0.00599699    0.00491177    c      6.000     0
         -6.19693601    0.06335289    0.05140146    h      1.000     0
 
       center of nuclear mass  :   -3.04737029   -0.02588575   -0.02095045
       center of nuclear charge:   -3.04704032   -0.02588699   -0.02094992

              +--------------------------------------------------+
              |               basis set information              |
              +--------------------------------------------------+

              we will work with the 1s 3p 5d 7f 9g ... basis set
              ...i.e. with spherical basis functions...

   type   atoms  prim   cont   basis
   ---------------------------------------------------------------------------
    c        2     50     30   cc-pVTZ   [4s3p2d1f|18s5p2d1f]
    h        2     16     14   cc-pVTZ   [3s2p1d|5s2p1d]
   ---------------------------------------------------------------------------
   total:    4    132     88
   ---------------------------------------------------------------------------

   total number of primitive shells          :   34
   total number of contracted shells         :   32
   total number of cartesian basis functions :  100
   total number of SCF-basis functions       :   88


 integral neglect threshold       :  0.33E-12
 integral storage threshold THIZE :  0.10E-04
 integral storage threshold THIME :         5

 RI-J AUXILIARY BASIS SET information:

              we will work with the 1s 3p 5d 7f 9g ... basis set
              ...i.e. with spherical basis functions...

   type   atoms  prim   cont   basis
   ---------------------------------------------------------------------------
    c        2     70     49   cc-pVTZ   [6s4p3d1f1g|12s5p4d2f1g]
    h        2     16     11   cc-pVTZ   [3s1p1d|5s2p1d]
   ---------------------------------------------------------------------------
   total:    4    172    120
   ---------------------------------------------------------------------------

   total number of primitive shells          :   32
   total number of contracted shells         :   40
   total number of cartesian basis functions :  146
   total number of SCF-basis functions       :  120


 symmetry group of the molecule :   c1 

 the group has the following generators :
   c1(z)

    1 symmetry operations found

 there are 1 real representations :   a   

 maximum number of shells which are related by symmetry :  1


    mo occupation :
   irrep   mo's   occupied
    a       88        7
 
 number of basis functions   :                     88
 number of occupied orbitals :                      7
 
  
           ------------------
           density functional
           ------------------
 TPSS meta-GGA functional
 exchange:    LDA + TPSS
 correlation: LDA (PW) + TPSS

 iterations will be done with small grid
  
 spherical integration : Lebedev's spherical grid
 spherical gridsize    :                     5
    i.e. gridpoints    :                   590
 value for diffuse not defined
 radial integration    : Chebyshev 2nd kind (scaling 3)
 radial gridsize       :                     8
 integration cells     :                     4
 partition function    : becke
 partition sharpness   :                     3
  

 biggest AO integral is expected to be     3.593180334
  
           ------------------------
               RI-J - INFORMATION
           ------------------------
 Contributions to RI integral batches: 
  neglected integral batches:                     4
  direct contribution:                            0
  memory contribution:                   524
 Memory core needed for (P|Q) and Cholesky      1 MByte
 Memory core minimum needed except of (P|Q)     1 MByte
 Total minimum memory core needed (sum)         1 MByte
  
 ****************************************
 Memory allocated for RI-J     6 MByte
 ****************************************
                                            

          ------------------------
          nuclear repulsion energy  :   24.6260442584    
          ------------------------


         -----------------
         -S,T+V- integrals
         -----------------

 1e-integrals will be neglected if expon. factor < 0.334196E-13
 Difference densities >>NOT<< switched on in parallel ridft!

 DIIS switched on: error vector is FDS-SDF
 Max. Iterations for DIIS is     :   4
 DIIS matrix (see manual) 
    Scaling factor of diagonals  :  1.200
    threshold for scaling factor :  0.000

 scf convergence criterion : increment of total energy < .1000000D-08
                  and increment of one-electron energy < .1000000D-05

  MOs are in ASCII format !


 automatic virtual orbital shift switched on 
      shift if e(lumo)-e(homo) < 0.10000000    


 reading orbital data $scfmo  from file mos
 orbital characterization : expanded
 mo provided and orthogonalized by Cholesky decomposition

 DSCF restart information will be dumped onto file mos


 Starting SCF iterations

          Overall gridpoints after grid construction =         19964

 ITERATION  ENERGY          1e-ENERGY        2e-ENERGY     RMS[dD(SAO)]   TOL
   1  -77.059154338989    -148.43662166     46.751423064    0.000D+00 0.333D-12
                            Exc = -11.1001591756     Coul =  57.8515822392    
                              N = 14.000000097    
                            current damping = 0.700
 
          max. resid. norm for Fia-block=  2.955D-01 for orbital      2a         
          max. resid. fock norm         =  6.439D+00 for orbital     83a         

 ITERATION  ENERGY          1e-ENERGY        2e-ENERGY     RMS[dD(SAO)]   TOL
   2  -77.304006976189    -150.59778165     48.667730415    0.571D-02 0.333D-12
                            Exc = -11.3526509653     Coul =  60.0203813802    
                              N = 13.999999812    
                            current damping = 0.650
 
          Norm of current diis error:  1.1803    
          max. resid. norm for Fia-block=  1.373D-01 for orbital      2a         
          max. resid. fock norm         =  1.618D-01 for orbital     25a         

 ITERATION  ENERGY          1e-ENERGY        2e-ENERGY     RMS[dD(SAO)]   TOL
   3  -77.354582409953    -151.16116137     49.180534697    0.264D-02 0.333D-12
                            Exc = -11.4335976416     Coul =  60.6141323383    
                              N = 13.999999683    
                            current damping = 0.550
 
          Norm of current diis error: 0.55349    
          max. resid. norm for Fia-block=  5.614D-02 for orbital      2a         
          max. resid. fock norm         =  5.874D-02 for orbital     11a         

 ITERATION  ENERGY          1e-ENERGY        2e-ENERGY     RMS[dD(SAO)]   TOL
   4  -77.369215486714    -151.50990288     49.514643140    0.156D-02 0.333D-12
                            Exc = -11.4841810555     Coul =  60.9988241951    
                              N = 13.999999743    
                            current damping = 0.400
 
          Norm of current diis error: 0.21135    
          max. resid. norm for Fia-block=  2.057D-02 for orbital      2a         
          max. resid. fock norm         =  2.264D-02 for orbital      3a         

 ITERATION  ENERGY          1e-ENERGY        2e-ENERGY     RMS[dD(SAO)]   TOL
   5  -77.371864122386    -151.64494172     49.647033336    0.979D-03 0.333D-12
                            Exc = -11.5049117697     Coul =  61.1519451058    
                              N = 13.999999818    
                            current damping = 0.250
 
          Norm of current diis error: 0.63390E-01
          max. resid. norm for Fia-block=  6.235D-03 for orbital      3a         
          max. resid. fock norm         =  6.860D-03 for orbital      3a         
          mo-orthogonalization: Cholesky decomposition

 ITERATION  ENERGY          1e-ENERGY        2e-ENERGY     RMS[dD(SAO)]   TOL
   6  -77.372132527003    -151.69298999     49.694813200    0.459D-03 0.333D-12
                            Exc = -11.5121443388     Coul =  61.2069575389    
                              N = 13.999999851    
                            current damping = 0.100
 
          Norm of current diis error: 0.15181E-01
          max. resid. norm for Fia-block=  1.428D-03 for orbital      3a         
          max. resid. fock norm         =  2.397D-03 for orbital      2a         

 ITERATION  ENERGY          1e-ENERGY        2e-ENERGY     RMS[dD(SAO)]   TOL
   7  -77.372120848190    -151.69830298     49.700137869    0.149D-03 0.333D-12
                            Exc = -11.5131903720     Coul =  61.2133282411    
                              N = 13.999999859    
                            current damping = 0.150
 
          Norm of current diis error: 0.25046E-01
          max. resid. norm for Fia-block=  6.148D-04 for orbital      7a         
          max. resid. fock norm         =  7.716D-04 for orbital      4a         

 ITERATION  ENERGY          1e-ENERGY        2e-ENERGY     RMS[dD(SAO)]   TOL
   8  -77.372146312043    -151.69961840     49.701427825    0.449D-04 0.333D-12
                            Exc = -11.5133677393     Coul =  61.2147955648    
                              N = 13.999999860    
                            current damping = 0.050
 
          Norm of current diis error: 0.48564E-02
          max. resid. norm for Fia-block=  1.921D-04 for orbital      7a         
          max. resid. fock norm         =  3.472D-04 for orbital      2a         

 ITERATION  ENERGY          1e-ENERGY        2e-ENERGY     RMS[dD(SAO)]   TOL
   9  -77.372147157735    -151.70173615     49.703544729    0.150D-04 0.333D-12
                            Exc = -11.5135946528     Coul =  61.2171393819    
                              N = 13.999999861    
                            current damping = 0.050
 
          Norm of current diis error: 0.18861E-02
          max. resid. norm for Fia-block=  6.474D-05 for orbital      6a         
          max. resid. fock norm         =  1.167D-04 for orbital      2a         

 ITERATION  ENERGY          1e-ENERGY        2e-ENERGY     RMS[dD(SAO)]   TOL
  10  -77.372147305485    -151.70062165     49.702430086    0.466D-05 0.333D-12
                            Exc = -11.5134701792     Coul =  61.2159002653    
                              N = 13.999999861    
                            current damping = 0.100
 
          Norm of current diis error: 0.26712E-03
          max. resid. norm for Fia-block=  1.885D-05 for orbital      5a         
          max. resid. fock norm         =  2.584D-05 for orbital     73a         
          mo-orthogonalization: Cholesky decomposition

 ITERATION  ENERGY          1e-ENERGY        2e-ENERGY     RMS[dD(SAO)]   TOL
  11  -77.372147307837    -151.70115884     49.702967271    0.930D-06 0.333D-12
                            Exc = -11.5135311571     Coul =  61.2164984284    
                              N = 13.999999861    
                            current damping = 0.150
 
          Norm of current diis error: 0.13941E-03
          max. resid. norm for Fia-block=  7.708D-06 for orbital      5a         
          max. resid. fock norm         =  1.082D-05 for orbital     73a         

 ITERATION  ENERGY          1e-ENERGY        2e-ENERGY     RMS[dD(SAO)]   TOL
  12  -77.372147308712    -151.70095318     49.702761612    0.397D-06 0.333D-12
                            Exc = -11.5135079364     Coul =  61.2162695484    
                              N = 13.999999861    
                            current damping = 0.200
 
          Norm of current diis error: 0.28952E-04
          max. resid. norm for Fia-block=  1.022D-06 for orbital      7a         
          max. resid. fock norm         =  2.061D-06 for orbital      2a         

 ENERGY & DENSITY CONVERGED !

          Overall gridpoints after grid construction =         64974

 ITERATION  ENERGY          1e-ENERGY        2e-ENERGY     RMS[dD(SAO)]   TOL
  13  -77.372105962806    -151.70095736     49.702807136    0.679D-07 0.333D-12
                            Exc = -11.5134669775     Coul =  61.2162741140    
                              N = 14.000000042    
                            current damping = 0.250
 
          Norm of current diis error: 0.30269E-05
          max. resid. norm for Fia-block=  7.644D-08 for orbital      6a         
          max. resid. fock norm         =  1.540D-07 for orbital      2a         

 End of SCF iterations

   convergence criteria satisfied after    13 iterations


                  ------------------------------------------ 
                 |  total energy      =    -77.37210596281  |
                  ------------------------------------------ 
                 :  kinetic energy    =     76.87533862783  :
                 :  potential energy  =   -154.24744459063  :
                 :  virial theorem    =      1.99357950351  :
                 :  wavefunction norm =      1.00000000000  :
                  .......................................... 


 <geterg> : there is no data group $energy 


 <skperg> : $end is missing 


 orbitals $scfmo  will be written to file mos

    irrep                  3a          4a          5a          6a          7a   
 eigenvalues H         -0.69583    -0.52914    -0.45472    -0.26087    -0.26087
            eV         -18.9348    -14.3988    -12.3736     -7.0987     -7.0987
 occupation              2.0000      2.0000      2.0000      2.0000      2.0000 

    irrep                  8a          9a         10a         11a         12a   
 eigenvalues H          0.00092     0.00092     0.04728     0.07181     0.17147
            eV           0.0249      0.0250      1.2865      1.9540      4.6659
 
 
 
 
 ==============================================================================
                           electrostatic moments
 ==============================================================================

 reference point for electrostatic moments:    0.00000   0.00000   0.00000

 
              nuc           elec       ->  total
 ------------------------------------------------------------------------------
                          charge      
 ------------------------------------------------------------------------------
          14.000000     -14.000000       0.000000
 
 ------------------------------------------------------------------------------
                       dipole moment  
 ------------------------------------------------------------------------------
   x     -42.658564      42.660564       0.001999
   y      -0.362418       0.362414      -0.000004
   z      -0.293299       0.293306       0.000007
 
   | dipole moment | =     0.0020 a.u. =     0.0051 debye 
 
 ------------------------------------------------------------------------------
                     quadrupole moment
 ------------------------------------------------------------------------------
  xx     165.614471    -170.805134      -5.190664
  yy       0.037512     -10.093061     -10.055548
  zz       0.024639     -10.081531     -10.056892
  xy       0.103164      -0.241439      -0.138274
  xz       0.081940      -0.194041      -0.112101
  yz       0.030401      -0.027228       0.003173
 
     1/3  trace=      -8.434368
     anisotropy=       4.875318
 
 ==============================================================================
 


    ------------------------------------------------------------------------
         total  cpu-time :  18.49 seconds
         total wall-time :   1.65 seconds
    ------------------------------------------------------------------------

   ****  ridft : all done  ****


    2018-04-28 21:08:15.634 

