STARTING dscf ON 16 PROCESSORS!
RUNNING PROGRAM /beegfs/modfac/apps/TURBOMOLE/7.2.1-official/bin/em64t-unknown-linux-gnu_mpi/dscf_mpi.
PLEASE WAIT UNTIL dscf HAS FINISHED.
Look for the output in slave1.output.
MACHINEFILE is ./hostlist
 this is node-proc. number 1 running on node c-4-9.local
 the total number of node-proc. spawned is  17
  parallel platform: MPP or cluster with fast interconnect

 dscf (c-4-9.local) : TURBOMOLE V7.2 ( 21471 ) 7 Nov 2017 at 16:15:16
 Copyright (C) 2017 TURBOMOLE GmbH, Karlsruhe


    2018-02-15 01:32:13.289 


 SCF run will be profiled !



                             d s c f - program

                   idea & directorship : reinhart ahlrichs
                   program development : marco haeser
                                         michael baer
                           dft version : oliver treutler
           parallelized version : malte v. arnim, gina corongiu, GMD 


                          quantum chemistry group
                          universitaet  karlsruhe
                                  germany




                          References             
                                                 
          TURBOMOLE:                             
              R. Ahlrichs, M. Baer, M. Haeser, H. Horn, and
              C. Koelmel
              Electronic structure calculations on workstation
              computers: the program system TURBOMOLE
              Chem. Phys. Lett. 162: 165 (1989)
          Density Functional:                              
              O. Treutler and R. Ahlrichs                      
              Efficient Molecular Numerical Integration Schemes
              J. Chem. Phys. 102: 346 (1995)                   
          Parallel Version:                                
              Performance of parallel TURBOMOLE for Density    
              Functional Calculations                          
              M. v. Arnim and R. Ahlrichs                      
              J. Comp. Chem. 19: 1746 (1998)                   
                                         




              +--------------------------------------------------+
              | Atomic coordinate, charge and isotop information |
              +--------------------------------------------------+

                    atomic coordinates            atom    charge  isotop
         -8.07160550    0.11971200   -5.91795838    o      8.000     0
         -5.18387573    6.67146451   -5.88321338    o      8.000     0
          1.69548845    8.18004972   -5.89076098    o      8.000     0
          7.18823358    3.51849412   -5.92372837    o      8.000     0
          7.35716236   -3.76675782   -5.89999447    o      8.000     0
          1.95055791   -8.26999364   -5.88288495    o      8.000     0
         -4.94252017   -6.45738055   -5.91357036    o      8.000     0
         -8.40857385   -0.12718353    5.88674812    o      8.000     0
         -5.09511218    6.24384143    5.92294842    o      8.000     0
          1.97638996    7.93403893    5.91155885    o      8.000     0
          7.66745289    3.66393262    5.88281695    o      8.000     0
          7.49012867   -3.39132060    5.90083752    o      8.000     0
          1.71259523   -7.84574393    5.92230658    o      8.000     0
         -5.33310269   -6.47245685    5.88954499    o      8.000     0
         -9.55269404   -2.06510072   -2.39292567    n      7.000     0
         -9.70181100    2.16099485   -2.37700595    n      7.000     0
         -7.65997721    6.28920183   -2.26142645    n      7.000     0
         -4.43701692    9.02966087   -2.24344987    n      7.000     0
          0.05661414   10.07098661   -2.27149605    n      7.000     0
          4.13558529    8.94884450   -2.30548557    n      7.000     0
          7.75975165    6.11159703   -2.41402128    n      7.000     0
          9.52349422    2.26906034   -2.40681568    n      7.000     0
          9.50700190   -2.33009544   -2.33394148    n      7.000     0
          7.88836521   -6.23816345   -2.29877328    n      7.000     0
          4.27491495   -9.10621816   -2.24025089    n      7.000     0
          0.12995866   -9.95336808   -2.24385682    n      7.000     0
         -4.37365773   -8.98820261   -2.35955720    n      7.000     0
         -7.56345194   -6.21227149   -2.38298905    n      7.000     0
         -9.81228446   -2.17030544    2.25084225    n      7.000     0
         -9.66509211    2.05782944    2.27497230    n      7.000     0
         -7.71997864    6.23140736    2.39080552    n      7.000     0
         -4.34401253    8.77756825    2.40094103    n      7.000     0
          0.13915515    9.80465179    2.37306687    n      7.000     0
          4.29942536    9.04693848    2.34420360    n      7.000     0
          7.86191003    6.12542998    2.23715219    n      7.000     0
          9.75148189    2.34029980    2.23879935    n      7.000     0
          9.77592924   -2.27193546    2.31160858    n      7.000     0
          7.73960314   -5.97948175    2.34536755    n      7.000     0
          4.15687670   -8.86256602    2.40394445    n      7.000     0
          0.06253280   -9.91802040    2.40822865    n      7.000     0
         -4.41323978   -8.84019311    2.29142046    n      7.000     0
         -7.81886329   -6.33013537    2.26125499    n      7.000     0
        -10.97043898   -1.48338992   -0.12496799    c      6.000     0
        -10.97197746    1.47531495   -0.06015157    c      6.000     0
         -5.53421591   -7.11587192   -3.79731673    c      6.000     0
         -2.31408239  -10.47848391   -3.35754432    c      6.000     0
         -8.00074889    7.66250487    0.08256081    c      6.000     0
         -5.69068158    9.51179737    0.13487277    c      6.000     0
          2.09508165   -8.99185680   -3.71028174    c      6.000     0
          6.72589655   -8.50300109   -3.29312901    c      6.000     0
          1.00250003   11.05258052    0.09372813    c      6.000     0
          3.88651449   10.39531655    0.00758255    c      6.000     0
          8.12836265   -4.06369018   -3.76012255    c      6.000     0
         10.48201108   -0.04955446   -3.48835123    c      6.000     0
          9.24661743    6.10291110   -0.12309056    c      6.000     0
         10.52458482    3.43335598   -0.14373769    c      6.000     0
          8.02732741    3.90660707   -3.82426814    c      6.000     0
         10.52904922   -3.42976719   -0.04162987    c      6.000     0
          9.24940849   -6.09509692    0.06176397    c      6.000     0
         -9.42197331   -4.55553126   -3.51248559    c      6.000     0
         -8.96886097    0.07810807   -3.80711558    c      6.000     0
          3.88735581  -10.38149955    0.14457734    c      6.000     0
          1.00394677  -11.04834661    0.10795083    c      6.000     0
         -9.57809993    4.69512615   -3.38808510    c      6.000     0
         -5.67987663    7.23792644   -3.71636435    c      6.000     0
         -5.69371803   -9.52361128   -0.03168657    c      6.000     0
         -8.00165743   -7.67298837   -0.10920473    c      6.000     0
         -2.43354212   10.57498064   -3.28022878    c      6.000     0
          1.92607946    8.94401487   -3.74008872    c      6.000     0
         -9.76635702   -4.70345394    3.27871295    c      6.000     0
         -9.17180742   -0.08616695    3.72384516    c      6.000     0
          6.53837103    8.32098098   -3.45560071    c      6.000     0
         -5.78247116   -7.11161671    3.73270380    c      6.000     0
         -2.43188051  -10.34235542    3.43565114    c      6.000     0
         -9.61261531    4.54725368    3.41088762    c      6.000     0
         -5.63568982    6.97121631    3.81548143    c      6.000     0
          1.94158056   -8.73727891    3.82103057    c      6.000     0
          6.56110364   -8.16241427    3.49767108    c      6.000     0
         -2.31154126   10.23127087    3.50822278    c      6.000     0
          2.11588059    8.79343297    3.78917620    c      6.000     0
          8.21941812   -3.81449032    3.76744602    c      6.000     0
         10.80947832    0.05459244    3.30519152    c      6.000     0
          6.75204649    8.37099935    3.33881968    c      6.000     0
          8.32018244    3.98965649    3.70794740    c      6.000     0
        -12.87695359   -2.30812887   -0.24887449    h      1.000     0
         10.36927864    0.08756363    5.32424612    h      1.000     0
          6.49248931    7.97489693    5.35066650    h      1.000     0
          8.04992032    9.97303956    3.06939697    h      1.000     0
         12.86620518    0.05599721    3.00356253    h      1.000     0
          7.86035972   -9.78369917    3.37460780    h      1.000     0
         -2.77758863   12.25558150    3.38147017    h      1.000     0
         -2.16314659    9.64298661    5.48416314    h      1.000     0
          6.20034370   -7.67022913    5.47263071    h      1.000     0
         -2.90621168  -12.35805213    3.24001415    h      1.000     0
        -11.48330616    5.43147358    3.19959654    h      1.000     0
         -9.15808881    4.27586810    5.40880958    h      1.000     0
         -2.35787313   -9.80314178    5.42954036    h      1.000     0
          6.15310748    7.91059812   -5.44448017    h      1.000     0
         -9.38516865   -4.51509421    5.30114338    h      1.000     0
        -11.61808559   -5.59234119    2.96120803    h      1.000     0
          7.82358474    9.94730551   -3.28015037    h      1.000     0
         -9.83699541   -8.64575146   -0.23346174    h      1.000     0
         -2.89357582   12.57694011   -2.96348251    h      1.000     0
         -6.24480050  -11.52939749    0.02677647    h      1.000     0
         -2.35071609   10.15720621   -5.30252647    h      1.000     0
          0.62977450  -13.09539724    0.11830402    h      1.000     0
        -11.43616503    5.60076750   -3.15897547    h      1.000     0
          5.12059634  -12.05367773    0.26269501    h      1.000     0
         -9.09730952    4.51768445   -5.39038742    h      1.000     0
         10.61270260   -7.66189588    0.19080912    h      1.000     0
        -11.29584143   -5.45327774   -3.39329058    h      1.000     0
         12.60488928   -3.51375083   -0.15888593    h      1.000     0
         -8.86677282   -4.29463251   -5.48647376    h      1.000     0
         12.60150647    3.51271427   -0.24631873    h      1.000     0
          9.88218696   -0.08178378   -5.46625425    h      1.000     0
         10.61225264    7.67264663   -0.15765541    h      1.000     0
         12.55901744   -0.05128118   -3.35502019    h      1.000     0
          5.11452551   12.07360129   -0.07004569    h      1.000     0
          8.00921067  -10.10754945   -2.97939567    h      1.000     0
          0.62397307   13.09514101    0.21614992    h      1.000     0
          6.43730119   -8.18497967   -5.31479038    h      1.000     0
         -6.23922165   11.51570037    0.25365731    h      1.000     0
         -2.15933273  -10.01585041   -5.36590245    h      1.000     0
         -9.83917703    8.63737581    0.07133576    h      1.000     0
         -2.75901813  -12.49367815   -3.10261508    h      1.000     0
        -12.88217739    2.29990986   -0.02743207    h      1.000     0
 
       center of nuclear mass  :    0.00005262   -0.00001366    0.00007032
       center of nuclear charge:    0.00004728   -0.00001202    0.00006327

              +--------------------------------------------------+
              |               basis set information              |
              +--------------------------------------------------+

              we will work with the 1s 3p 5d 7f 9g ... basis set
              ...i.e. with spherical basis functions...

   type   atoms  prim   cont   basis
   ---------------------------------------------------------------------------
    o       14     50     30   cc-pVTZ   [4s3p2d1f|18s5p2d1f]
    n       28     50     30   cc-pVTZ   [4s3p2d1f|18s5p2d1f]
    c       42     50     30   cc-pVTZ   [4s3p2d1f|18s5p2d1f]
    h       42     16     14   cc-pVTZ   [3s2p1d|5s2p1d]
   ---------------------------------------------------------------------------
   total:  126   4872   3108
   ---------------------------------------------------------------------------

   total number of primitive shells          :   86
   total number of contracted shells         : 1092
   total number of cartesian basis functions : 3570
   total number of SCF-basis functions       : 3108


 integral neglect threshold       :  0.93E-14
 integral storage threshold THIZE :  0.10E-04
 integral storage threshold THIME :         5


 DENSITY CONVERGENCE CHECK SWITCHED ON !
 SCF CONVERGENCE IF RMS(delta[D]) <     0.1000000000E-06


 symmetry group of the molecule :   c1 

 the group has the following generators :
   c1(z)

    1 symmetry operations found

 there are 1 real representations :   a   

 maximum number of shells which are related by symmetry :  1


    mo occupation :
   irrep   mo's   occupied
    a     3108      301
 
 number of basis functions   :                   3108
 number of occupied orbitals :                    301
 

 automatic virtual orbital shift switched on 
      shift if e(lumo)-e(homo) < 0.10000000    


 keyword $2e-ints_shell_statistics missing in file <control>

 ! One task per shell generated
  No pre-computed optimal task distribution found
  ... using automatic task generation

          ------------------------
          nuclear repulsion energy  :   16546.7820510    
          ------------------------


         -----------------
         -S,T+V- integrals
         -----------------

 1e-integrals will be neglected if expon. factor < 0.936124E-15
 
   Difference densities algorithm switched on.
   The maximal number of linear combinations of
   difference densities is                    20 .

 DIIS switched on: error vector is FDS-SDF
 Max. Iterations for DIIS is     :   5
 DIIS matrix (see manual) 
    Scaling factor of diagonals  :  1.200
    threshold for scaling factor :  0.000

 scf convergence criterion : increment of total energy < .1000000D-08
                  and increment of one-electron energy < .1000000D-05

  MOs are in ASCII format !


 reading orbital data $scfmo  from file mos
 orbital characterization : expanded
 mo provided and orthogonalized by Cholesky decomposition

 DSCF restart information will be dumped onto file mos

 
                                              current damping :  0.300
 ITERATION  ENERGY          1e-ENERGY        2e-ENERGY     RMS[dD(SAO)]   TOL
   1  -4172.3763792612    -38621.370396     17902.211966    0.000D+00 0.934D-14
          max. resid. norm for Fia-block=  4.437D-01 for orbital    220a         
          max. resid. fock norm         =  4.284D+00 for orbital   2910a         
          Delta Eig. =   259.9910174422 eV 
 
                                              current damping :  0.250
 ITERATION  ENERGY          1e-ENERGY        2e-ENERGY     RMS[dD(SAO)]   TOL
   2  -4187.8885704428    -38717.149858     17982.479236    0.228D-02 0.634D-14
          Norm of current diis error:  5.8422    
          max. resid. norm for Fia-block=  1.324D-01 for orbital      1a         
          max. resid. fock norm         =  4.125D-01 for orbital   3101a         
          Delta Eig. =    65.7337117476 eV 
 
                                              current damping :  0.150
 ITERATION  ENERGY          1e-ENERGY        2e-ENERGY     RMS[dD(SAO)]   TOL
   3  -4189.1129694418    -38727.854398     17991.959378    0.720D-03 0.509D-14
          Norm of current diis error:  2.1674    
          max. resid. norm for Fia-block=  4.448D-02 for orbital    274a         
          max. resid. fock norm         =  4.641D-02 for orbital    274a         
          Delta Eig. =    15.1925211637 eV 
 
                                              current damping :  0.100
 ITERATION  ENERGY          1e-ENERGY        2e-ENERGY     RMS[dD(SAO)]   TOL
   4  -4189.3431784259    -38736.008471     17999.883241    0.448D-03 0.432D-14
          Norm of current diis error: 0.67533    
          max. resid. norm for Fia-block=  1.422D-02 for orbital     97a         
          max. resid. fock norm         =  2.537D-02 for orbital   3041a         
          Delta Eig. =     2.2679146078 eV 
 
                                              current damping :  0.150
 ITERATION  ENERGY          1e-ENERGY        2e-ENERGY     RMS[dD(SAO)]   TOL
   5  -4189.3672913512    -38733.437770     17997.288428    0.143D-03 0.403D-14
          Norm of current diis error: 0.19426    
          max. resid. norm for Fia-block=  4.316D-03 for orbital    279a         
          max. resid. fock norm         =  5.541D-03 for orbital    279a         
 mo-orthogonalization: Cholesky decomposition
          Delta Eig. =     0.3542909145 eV 
 
                                              current damping :  0.200
 ITERATION  ENERGY          1e-ENERGY        2e-ENERGY     RMS[dD(SAO)]   TOL
   6  -4189.3696198584    -38735.266508     17999.114837    0.432D-04 0.384D-14
          Norm of current diis error: 0.60873E-01
          max. resid. norm for Fia-block=  1.620D-03 for orbital    280a         
          max. resid. fock norm         =  1.749D-03 for orbital    280a         
          Delta Eig. =     0.0825101902 eV 
 
                                              current damping :  0.250
 ITERATION  ENERGY          1e-ENERGY        2e-ENERGY     RMS[dD(SAO)]   TOL
   7  -4189.3699421588    -38734.890976     17998.738983    0.202D-04 0.369D-14
          Norm of current diis error: 0.24415E-01
          max. resid. norm for Fia-block=  8.524D-04 for orbital    280a         
          max. resid. fock norm         =  8.671D-04 for orbital    280a         
          Delta Eig. =     0.0200793368 eV 
 
                                              current damping :  0.300
 ITERATION  ENERGY          1e-ENERGY        2e-ENERGY     RMS[dD(SAO)]   TOL
   8  -4189.3700115549    -38734.959665     17998.807602    0.838D-05 0.353D-14
          Norm of current diis error: 0.98894E-02
          max. resid. norm for Fia-block=  4.610D-04 for orbital    280a         
          max. resid. fock norm         =  4.642D-04 for orbital    280a         
          Delta Eig. =     0.0036765657 eV 
 
                                              current damping :  0.150
 ITERATION  ENERGY          1e-ENERGY        2e-ENERGY     RMS[dD(SAO)]   TOL
   9  -4189.3700257004    -38734.961513     17998.809437    0.376D-05 0.338D-14
          Norm of current diis error: 0.42568E-02
          max. resid. norm for Fia-block=  2.254D-04 for orbital    280a         
          max. resid. fock norm         =  2.269D-04 for orbital    280a         
          Delta Eig. =     0.0030675389 eV 
 
                                              current damping :  0.100
 ITERATION  ENERGY          1e-ENERGY        2e-ENERGY     RMS[dD(SAO)]   TOL
  10  -4189.3700287914    -38734.965381     17998.813301    0.160D-05 0.322D-14
          Norm of current diis error: 0.17346E-02
          max. resid. norm for Fia-block=  8.569D-05 for orbital    269a         
          max. resid. fock norm         =  9.411D-05 for orbital    273a         
 mo-orthogonalization: Cholesky decomposition
          Delta Eig. =     0.0028024704 eV 
 
                                              current damping :  0.150
 ITERATION  ENERGY          1e-ENERGY        2e-ENERGY     RMS[dD(SAO)]   TOL
  11  -4189.3700292918    -38734.961132     17998.809052    0.627D-06 0.308D-14
          Norm of current diis error: 0.66475E-03
          max. resid. norm for Fia-block=  3.422D-05 for orbital    280a         
          max. resid. fock norm         =  3.745D-05 for orbital    280a         
          Delta Eig. =     0.0011760840 eV 
 
                                              current damping :  0.200
 ITERATION  ENERGY          1e-ENERGY        2e-ENERGY     RMS[dD(SAO)]   TOL
  12  -4189.3700293537    -38734.966027     17998.813947    0.159D-06 0.300D-14
          Norm of current diis error: 0.42154E-03
          max. resid. norm for Fia-block=  1.791D-05 for orbital    269a         
          max. resid. fock norm         =  2.061D-05 for orbital    271a         
          Delta Eig. =     0.0006572651 eV 
 
                                              current damping :  0.250
 ITERATION  ENERGY          1e-ENERGY        2e-ENERGY     RMS[dD(SAO)]   TOL
  13  -4189.3700293735    -38734.964037     17998.811956    0.100D-06 0.292D-14
          Norm of current diis error: 0.12365E-03
          max. resid. norm for Fia-block=  7.001D-06 for orbital    280a         
          max. resid. fock norm         =  7.175D-06 for orbital    280a         
          Delta Eig. =     0.0000893405 eV 

 DENSITY CONVERGED !

 
                                              current damping :  0.300
 ITERATION  ENERGY          1e-ENERGY        2e-ENERGY     RMS[dD(SAO)]   TOL
  14  -4189.3700293762    -38734.964328     17998.812248    0.444D-07 0.285D-14
          Norm of current diis error: 0.47723E-04
          max. resid. norm for Fia-block=  2.500D-06 for orbital    274a         
          max. resid. fock norm         =  2.519D-06 for orbital    274a         
          Delta Eig. =     0.0000383781 eV 

 DENSITY CONVERGED !

 
                                              current damping :  0.350
 ITERATION  ENERGY          1e-ENERGY        2e-ENERGY     RMS[dD(SAO)]   TOL
  15  -4189.3700293767    -38734.964225     17998.812145    0.166D-07 0.280D-14
          Norm of current diis error: 0.17707E-04
          max. resid. norm for Fia-block=  8.303D-07 for orbital    281a         
          max. resid. fock norm         =  8.588D-07 for orbital    280a         
 mo-orthogonalization: Cholesky decomposition
          Delta Eig. =     0.0000120640 eV 

 DENSITY CONVERGED !

 
                                              current damping :  0.400
 ITERATION  ENERGY          1e-ENERGY        2e-ENERGY     RMS[dD(SAO)]   TOL
  16  -4189.3700293766    -38734.964248     17998.812168    0.671D-08 0.275D-14
          Norm of current diis error: 0.68292E-05
          max. resid. norm for Fia-block=  3.062D-07 for orbital    262a         
          max. resid. fock norm         =  3.256D-07 for orbital    271a         
          Delta Eig. =     0.0000032892 eV 

 ENERGY & DENSITY CONVERGED !

 
                                              current damping :  0.450
 ITERATION  ENERGY          1e-ENERGY        2e-ENERGY     RMS[dD(SAO)]   TOL
  17  -4189.3700293768    -38734.964236     17998.812156    0.247D-08 0.270D-14
          max. resid. norm for Fia-block=  8.609D-08 for orbital    271a         
          max. resid. fock norm         =  8.989D-08 for orbital    271a         

 convergence criteria satisfied after    17 iterations


                  ------------------------------------------ 
                 |  total energy      =  -4189.37002937679  |
                  ------------------------------------------ 
                 :  kinetic energy    =   4181.12007396920  :
                 :  potential energy  =  -8370.49010334599  :
                 :  virial theorem    =      1.99803074082  :
                 :  wavefunction norm =      1.00000000000  :
                  .......................................... 


 <geterg> : there is no data group $energy 


 <skperg> : $end is missing 


 orbitals $scfmo  will be written to file mos

    irrep                297a        298a        299a        300a        301a   
 eigenvalues H         -0.39432    -0.39107    -0.39092    -0.38903    -0.38710
            eV         -10.7300    -10.6416    -10.6376    -10.5861    -10.5336
 occupation              2.0000      2.0000      2.0000      2.0000      2.0000 

    irrep                302a        303a        304a        305a        306a   
 eigenvalues H          0.10277     0.10529     0.10531     0.11223     0.11233
            eV           2.7966      2.8650      2.8658      3.0541      3.0567
 
 
 
 
 ==============================================================================
                           electrostatic moments
 ==============================================================================

 reference point for electrostatic moments:    0.00000   0.00000   0.00000

 
              nuc           elec       ->  total
 ------------------------------------------------------------------------------
                          charge      
 ------------------------------------------------------------------------------
         602.000000    -602.000000      -0.000000
 
 ------------------------------------------------------------------------------
                       dipole moment  
 ------------------------------------------------------------------------------
   x       0.028462      -0.030487      -0.002025
   y      -0.007235       0.007923       0.000688
   z       0.038090      -0.040778      -0.002688
 
   | dipole moment | =     0.0034 a.u. =     0.0087 debye 
 
 ------------------------------------------------------------------------------
                     quadrupole moment
 ------------------------------------------------------------------------------
  xx   29862.101809  -30086.369879    -224.268070
  yy   29981.163105  -30205.402683    -224.239578
  zz    7671.783564   -8140.797692    -469.014128
  xy      17.490292     -17.471995       0.018297
  xz      -0.198522       0.117047      -0.081475
  yz       5.046526      -5.127751      -0.081226
 
     1/3  trace=    -305.840592
     anisotropy=     244.760388
 
 ==============================================================================
 

    dscf profiling
  --------------------------------------------------------------------
             module   cpu total (s)       %  wall total (s)       %

          dscf.total         20701.4  100.00         19698.9  100.00
        dscf.prepare            35.9    0.17            36.0    0.18
      prepare.oneint             0.5    0.00             0.5    0.00
     prepare.moinput             0.8    0.00             0.8    0.00
     moinput_orthmos            34.1    0.16            34.0    0.17
            dscf.scf         20663.5   99.82         19660.8   99.81
             scf.pre             0.0    0.00             0.0    0.00
        scf.makedmat            24.6    0.12            24.9    0.13
          scf.shloop         18879.5   91.20         18870.0   95.79
          shloop_omp         18877.9   91.19         18868.4   95.78
          scf.symcar             2.4    0.01             2.4    0.01
        scf.makefock             5.1    0.02             5.9    0.03
          scf.newerg             0.2    0.00             0.2    0.00
          scf.newcnv           322.7    1.56            40.8    0.21
           scf.fdiag           751.2    3.63            94.1    0.48
         diag_tritrn           200.9    0.97            25.2    0.13
          diag_rdiag           541.5    2.62            67.7    0.34
          scf.modump           573.1    2.77           557.5    2.83
           ortho_all            66.5    0.32            29.7    0.15
            scf.post            37.0    0.18            35.1    0.18
        dscf.postscf             2.0    0.01             2.1    0.01
 


    ------------------------------------------------------------------------
         total  cpu-time :  5 hours 45 minutes and  2 seconds
         total wall-time :  5 hours 28 minutes and 20 seconds
    ------------------------------------------------------------------------

   ****  dscf : all done  ****


    2018-02-15 07:00:32.267 

