STARTING dscf ON 32 PROCESSORS!
RUNNING PROGRAM /beegfs/modfac/apps/TURBOMOLE/7.2.1-official/bin/em64t-unknown-linux-gnu_mpi/dscf_mpi.
PLEASE WAIT UNTIL dscf HAS FINISHED.
Look for the output in slave1.output.
MACHINEFILE is ./hostlist
 this is node-proc. number 1 running on node c-5-27.local
 the total number of node-proc. spawned is  33
  parallel platform: MPP or cluster with fast interconnect

 dscf (c-5-27.local) : TURBOMOLE V7.2 ( 21471 ) 7 Nov 2017 at 16:15:16
 Copyright (C) 2017 TURBOMOLE GmbH, Karlsruhe


    2018-02-20 07:13:40.628 


 SCF run will be profiled !



                             d s c f - program

                   idea & directorship : reinhart ahlrichs
                   program development : marco haeser
                                         michael baer
                           dft version : oliver treutler
           parallelized version : malte v. arnim, gina corongiu, GMD 


                          quantum chemistry group
                          universitaet  karlsruhe
                                  germany




                          References             
                                                 
          TURBOMOLE:                             
              R. Ahlrichs, M. Baer, M. Haeser, H. Horn, and
              C. Koelmel
              Electronic structure calculations on workstation
              computers: the program system TURBOMOLE
              Chem. Phys. Lett. 162: 165 (1989)
          Density Functional:                              
              O. Treutler and R. Ahlrichs                      
              Efficient Molecular Numerical Integration Schemes
              J. Chem. Phys. 102: 346 (1995)                   
          Parallel Version:                                
              Performance of parallel TURBOMOLE for Density    
              Functional Calculations                          
              M. v. Arnim and R. Ahlrichs                      
              J. Comp. Chem. 19: 1746 (1998)                   
                                         




              +--------------------------------------------------+
              | Atomic coordinate, charge and isotop information |
              +--------------------------------------------------+

                    atomic coordinates            atom    charge  isotop
         -8.26074557   -0.09925661   -5.64686764    o      8.000     0
         -5.23460914    6.23039174   -5.87351637    o      8.000     0
          1.62417978    7.57163621   -5.90935397    o      8.000     0
          7.30566247    3.45648751   -6.16382604    o      8.000     0
          6.99564127   -3.54547898   -5.78982798    o      8.000     0
          1.69860174   -8.18268478   -5.79444860    o      8.000     0
         -5.08141917   -6.32356406   -5.50537609    o      8.000     0
         -7.99645219    0.09993897    6.00759224    o      8.000     0
         -4.82551693    6.32563778    5.72683430    o      8.000     0
          1.96198418    8.18141368    5.71220506    o      8.000     0
          7.25042371    3.54582229    5.47190386    o      8.000     0
          7.57249564   -3.46075814    5.83194495    o      8.000     0
          1.88463343   -7.57313669    5.83221573    o      8.000     0
         -4.97484839   -6.22831348    6.10226406    o      8.000     0
         -9.76440877   -2.14590747   -2.05967548    n      7.000     0
         -9.78749973    2.08061452   -2.14445562    n      7.000     0
         -7.79655044    6.23942818   -2.29412621    n      7.000     0
         -4.47986324    8.85328659   -2.42521857    n      7.000     0
          0.02709820    9.81153365   -2.48199844    n      7.000     0
          4.15102772    8.86364041   -2.55144865    n      7.000     0
          7.83006629    6.08800130   -2.67620179    n      7.000     0
          9.65496138    2.28097836   -2.63325299    n      7.000     0
          9.55396160   -2.32358278   -2.43317167    n      7.000     0
          7.71051351   -6.13237207   -2.31043003    n      7.000     0
          4.16771242   -9.08103585   -2.26622151    n      7.000     0
          0.05365464  -10.02928657   -2.15610226    n      7.000     0
         -4.41896123   -8.90989023   -2.01143106    n      7.000     0
         -7.73040890   -6.27868611   -1.99761457    n      7.000     0
         -9.68418616   -2.07724408    2.57820322    n      7.000     0
         -9.65802360    2.14934970    2.49220253    n      7.000     0
         -7.62897126    6.28252700    2.34143968    n      7.000     0
         -4.31868607    8.91150675    2.20652494    n      7.000     0
          0.15640749   10.02819490    2.15097016    n      7.000     0
          4.27177417    9.08234294    2.07813910    n      7.000     0
          7.81088408    6.13084545    1.96308646    n      7.000     0
          9.65382459    2.31995427    2.00381796    n      7.000     0
          9.76075841   -2.28505762    2.19934969    n      7.000     0
          7.93786982   -6.09148563    2.32335740    n      7.000     0
          4.25670553   -8.86714213    2.36433861    n      7.000     0
          0.13222232   -9.80809728    2.47794575    n      7.000     0
         -4.37238229   -8.84934412    2.62268213    n      7.000     0
         -7.69395131   -6.23866105    2.64093779    n      7.000     0
        -11.03660612   -1.47681531    0.27166620    c      6.000     0
        -11.03536263    1.48220903    0.22078931    c      6.000     0
         -5.66770964   -7.07429405   -3.40567113    c      6.000     0
         -2.46271799  -10.47187288   -3.13539153    c      6.000     0
         -8.03177925    7.68504376    0.02164070    c      6.000     0
         -5.71341521    9.51987451   -0.07447425    c      6.000     0
          1.94152099   -8.98887546   -3.65173783    c      6.000     0
          6.57320505   -8.39343564   -3.37108826    c      6.000     0
          1.00087637   11.05679508   -0.24385317    c      6.000     0
          3.88410273   10.39444737   -0.29365784    c      6.000     0
          7.96412607   -3.94771419   -3.73777641    c      6.000     0
         10.59022966   -0.08465384   -3.63588412    c      6.000     0
          9.27885210    6.10845908   -0.35335093    c      6.000     0
         10.56262569    3.44279839   -0.32660386    c      6.000     0
          8.15073432    3.88531722   -4.06657197    c      6.000     0
         10.56434910   -3.44728825   -0.14554644    c      6.000     0
          9.28100186   -6.11201021   -0.06218119    c      6.000     0
         -9.66875352   -4.67938915   -3.09033004    c      6.000     0
         -9.15398410   -0.05740772   -3.52441968    c      6.000     0
          3.88697709  -10.39536952    0.11944907    c      6.000     0
          1.00404260  -11.05601269    0.19942398    c      6.000     0
         -9.73708964    4.57556702   -3.27874397    c      6.000     0
         -5.76790052    7.00607026   -3.77157802    c      6.000     0
         -5.71009893   -9.51727106    0.32998116    c      6.000     0
         -8.03066624   -7.68273415    0.33703860    c      6.000     0
         -2.44801601   10.29255602   -3.55790758    c      6.000     0
          1.90030329    8.61607464   -3.87478289    c      6.000     0
         -9.58716660   -4.57223893    3.70952297    c      6.000     0
         -8.98518310    0.05971141    3.92789844    c      6.000     0
          6.55964612    8.27042544   -3.72515387    c      6.000     0
         -5.60067779   -7.00374993    4.02601428    c      6.000     0
         -2.29232132  -10.28887424    3.66374659    c      6.000     0
         -9.51580497    4.68224323    3.51917375    c      6.000     0
         -5.50462112    7.07667048    3.65541866    c      6.000     0
          2.06771976   -8.61677935    3.78672075    c      6.000     0
          6.71612567   -8.27437024    3.42801786    c      6.000     0
         -2.31329377   10.47226133    3.24196985    c      6.000     0
          2.10932384    8.98831602    3.56106441    c      6.000     0
          8.32185119   -3.88927279    3.69850940    c      6.000     0
         10.74079229    0.08020662    3.15954098    c      6.000     0
          6.72428424    8.39322127    3.07322464    c      6.000     0
          8.12612101    3.94625921    3.37822103    c      6.000     0
        -12.93882675   -2.30620564    0.31807168    h      1.000     0
         10.27488525    0.14549440    5.17034380    h      1.000     0
          6.46595103    8.01954488    5.08769808    h      1.000     0
          8.04391694    9.97034588    2.79505768    h      1.000     0
         12.79836041    0.12751879    2.89372301    h      1.000     0
          7.94952671   -9.92945563    3.21514563    h      1.000     0
         -2.82383136   12.46727938    2.98748571    h      1.000     0
         -2.16584030   10.01843769    5.25108112    h      1.000     0
          6.42764758   -7.84572800    5.42732194    h      1.000     0
         -2.72112989  -12.31340148    3.51021078    h      1.000     0
        -11.37194419    5.59284014    3.34201849    h      1.000     0
         -8.99353442    4.49374655    5.50802942    h      1.000     0
         -2.11827311   -9.73917422    5.64643553    h      1.000     0
          6.18083965    7.84091395   -5.70916540    h      1.000     0
         -9.10060687   -4.31096645    5.69933209    h      1.000     0
        -11.45165785   -5.46497193    3.53212653    h      1.000     0
          7.80156879    9.92548538   -3.56920502    h      1.000     0
         -9.86303262   -8.65720938    0.35843089    h      1.000     0
         -2.86934546   12.31707079   -3.38547228    h      1.000     0
         -6.23612999  -11.52497365    0.35782638    h      1.000     0
         -2.36287937    9.74274062   -5.54638061    h      1.000     0
          0.62019299  -13.09316099    0.30525644    h      1.000     0
        -11.59076162    5.47081111   -3.01958767    h      1.000     0
          5.12335722  -12.06202232    0.17565539    h      1.000     0
         -9.33871000    4.31387664   -5.28798400    h      1.000     0
         10.63111227   -7.68740802   -0.11829565    h      1.000     0
        -11.51482256   -5.58994084   -2.82875382    h      1.000     0
         12.63630294   -3.52507174   -0.24122807    h      1.000     0
         -9.23685331   -4.49219590   -5.10081844    h      1.000     0
         12.63681331    3.51904066   -0.32283753    h      1.000     0
         10.03609322   -0.14957714   -5.62417914    h      1.000     0
         10.63125955    7.68285043   -0.35841371    h      1.000     0
         12.65744806   -0.13327261   -3.46092675    h      1.000     0
          5.11766428   12.06019076   -0.40743463    h      1.000     0
          7.90298675   -9.97152770   -3.15371844    h      1.000     0
          0.61400053   13.09428281   -0.33034617    h      1.000     0
          6.22400686   -8.01878782   -5.37166462    h      1.000     0
         -6.24037612   11.52751080   -0.07784421    h      1.000     0
         -2.40495976  -10.01824067   -5.14912894    h      1.000     0
         -9.86340443    8.65938686    0.08021749    h      1.000     0
         -2.96263253  -12.46653292   -2.85817537    h      1.000     0
        -12.93642134    2.31462776    0.26026762    h      1.000     0
          0.03087599   -2.73416033   -0.43315891    c      0.000     0
         -2.32492522    1.34882738   -0.49239404    c      0.000     0
          0.05509231    2.73389290    0.43154703    c      0.000     0
          2.40615525   -1.34276488    0.50452142    c      0.000     0
          2.38288229    1.33884600   -0.61353517    c      0.000     0
         -2.30234052   -1.34527729    0.59815730    c      0.000     0
          0.13077801    0.12974653    4.37881871    c      0.000     0
         -0.06895955   -0.12999672   -4.37989499    c      0.000     0
          2.31134358    1.27276831   -3.51941694    c      0.000     0
         -2.25663040   -1.24308822    3.49676876    c      0.000     0
          0.01744015   -2.82753678   -3.33677486    c      0.000     0
          0.17384500    2.82719859    3.33278816    c      0.000     0
         -2.41176526    1.24611914   -3.39006169    c      0.000     0
          2.46763028   -1.27591944    3.41054115    c      0.000     0
         -2.76648499   -0.99879609   -8.28419171    c      0.000     0
          2.09969971    2.07070760    8.33242655    c      0.000     0
          1.71125477   -2.07841833   -8.41806727    c      0.000     0
         -2.38316153    1.00730487    8.40255703    c      0.000     0
          0.40457876    2.33887917   -8.49432431    c      0.000     0
          0.78209354   -2.34158961    8.46740403    c      0.000     0
          0.15846524    0.21627394    7.37103786    n      0.000     0
         -0.17756290   -0.21675733   -7.37023349    n      0.000     0
          0.03944332   -4.67918434    0.28364704    h      0.000     0
          0.03424120    4.67902700   -0.28479133    h      0.000     0
          4.09656009    2.34492829   -0.02738462    h      0.000     0
         -4.02292896   -2.33841597    0.00250677    h      0.000     0
         -4.01505366    2.34487119    0.18070508    h      0.000     0
          4.08965300   -2.35195463   -0.15890532    h      0.000     0
         -1.59127142   -3.93649316   -4.00939424    h      0.000     0
          1.92668216    3.76470230    3.88863655    h      0.000     0
         -2.50236861    3.15916908   -4.16225813    h      0.000     0
          2.49909600   -3.21403409    4.11908977    h      0.000     0
          4.00258750    0.32962736   -4.24092116    h      0.000     0
         -3.94374409   -0.25336198    4.15179363    h      0.000     0
         -2.31430020   -3.15606282    4.27172999    h      0.000     0
          2.31193354    3.21108954   -4.22799837    h      0.000     0
         -1.40078436    3.93882100    4.07767023    h      0.000     0
          1.74156187   -3.76803455   -3.97181178    h      0.000     0
          4.19121906   -0.33407120    4.05313634    h      0.000     0
         -4.12863223    0.25872649   -3.96675018    h      0.000     0
         -3.34795518   -2.72578207   -7.32711784    h      0.000     0
          1.49873380    3.98680389    7.88520287    h      0.000     0
         -0.80277393    3.76407304   -7.63368526    h      0.000     0
          2.74739340   -2.79602628    8.06643844    h      0.000     0
          3.57312072   -1.68618719   -7.63956305    h      0.000     0
         -3.74598081   -0.50262171    8.10447346    h      0.000     0
          3.92313974    1.67081588    7.47160244    h      0.000     0
         -4.10856705    0.51629285   -7.92480513    h      0.000     0
         -3.00141281    2.73700380    7.47412373    h      0.000     0
          1.12317483   -3.99229021   -7.94488751    h      0.000     0
         -0.46864082   -3.76220345    7.66308087    h      0.000     0
          2.38785423    2.78613151   -8.18372631    h      0.000     0
         -2.60841766   -1.33897680  -10.31152828    h      0.000     0
          2.21048654    1.82031208   10.37602475    h      0.000     0
          1.73169441   -1.82762116  -10.46447360    h      0.000     0
         -2.13129758    1.34529221   10.42080075    h      0.000     0
          0.01258724    2.21192085  -10.51445861    h      0.000     0
          0.48347917   -2.21336169   10.50339038    h      0.000     0
 
       center of nuclear mass  :   -0.00170953    0.00002205    0.00000981
       center of nuclear charge:   -0.00712474    0.00007428    0.00006581

              +--------------------------------------------------+
              |               basis set information              |
              +--------------------------------------------------+

              we will work with the 1s 3p 5d 7f 9g ... basis set
              ...i.e. with spherical basis functions...

   type   atoms  prim   cont   basis
   ---------------------------------------------------------------------------
    o       14     50     30   cc-pVTZ   [4s3p2d1f|18s5p2d1f]
    n       30     50     30   cc-pVTZ   [4s3p2d1f|18s5p2d1f]
    c       62     50     30   cc-pVTZ   [4s3p2d1f|18s5p2d1f]
    h       78     16     14   cc-pVTZ   [3s2p1d|5s2p1d]
   ---------------------------------------------------------------------------
   total:  184   6548   4272
   ---------------------------------------------------------------------------

   total number of primitive shells          :   86
   total number of contracted shells         : 1528
   total number of cartesian basis functions : 4880
   total number of SCF-basis functions       : 4272


 integral neglect threshold       :  0.68E-12
 integral storage threshold THIZE :  0.10E-04
 integral storage threshold THIME :         5


 DENSITY CONVERGENCE CHECK SWITCHED ON !
 SCF CONVERGENCE IF RMS(delta[D]) <     0.1000000000E-06


 symmetry group of the molecule :   c1 

 the group has the following generators :
   c1(z)

    1 symmetry operations found

 there are 1 real representations :   a   

 maximum number of shells which are related by symmetry :  1


    mo occupation :
   irrep   mo's   occupied
    a     4272      301
 
 number of basis functions   :                   4272
 number of occupied orbitals :                    301
 

 automatic virtual orbital shift switched on 
      shift if e(lumo)-e(homo) < 0.10000000    


 keyword $2e-ints_shell_statistics missing in file <control>

 ! One task per shell generated
  No pre-computed optimal task distribution found
  ... using automatic task generation

          ------------------------
          nuclear repulsion energy  :   16588.4369972    
          ------------------------


         -----------------
         -S,T+V- integrals
         -----------------

 1e-integrals will be neglected if expon. factor < 0.684828E-13
 
   Difference densities algorithm switched on.
   The maximal number of linear combinations of
   difference densities is                    20 .

 DIIS switched on: error vector is FDS-SDF
 Max. Iterations for DIIS is     :   5
 DIIS matrix (see manual) 
    Scaling factor of diagonals  :  1.200
    threshold for scaling factor :  0.000

 scf convergence criterion : increment of total energy < .1000000D-06
                  and increment of one-electron energy < .1000000D-03

  MOs are in ASCII format !


 reading orbital data $scfmo  from file mos
 orbital characterization : expanded
 mo provided and orthogonalized by Cholesky decomposition

 DSCF restart information will be dumped onto file mos

 
                                              current damping :  0.300
 ITERATION  ENERGY          1e-ENERGY        2e-ENERGY     RMS[dD(SAO)]   TOL
   1  -4172.2929559464    -38708.681216     17947.951263    0.000D+00 0.683D-12
          max. resid. norm for Fia-block=  4.440D-01 for orbital    219a         
          max. resid. fock norm         =  9.135D+00 for orbital   4069a         
          Delta Eig. =  1042.5126469570 eV 
 
                                              current damping :  0.250
 ITERATION  ENERGY          1e-ENERGY        2e-ENERGY     RMS[dD(SAO)]   TOL
   2  -4187.8808946997    -38802.350467     18026.032575    0.172D-02 0.464D-12
          Norm of current diis error:  5.8668    
          max. resid. norm for Fia-block=  1.317D-01 for orbital      2a         
          max. resid. fock norm         =  4.342D-01 for orbital   4239a         
          Delta Eig. =   249.2980070794 eV 
 
                                              current damping :  0.150
 ITERATION  ENERGY          1e-ENERGY        2e-ENERGY     RMS[dD(SAO)]   TOL
   3  -4189.1106472255    -38813.160310     18035.612666    0.575D-03 0.372D-12
          Norm of current diis error:  2.1903    
          max. resid. norm for Fia-block=  4.453D-02 for orbital    274a         
          max. resid. fock norm         =  4.629D-02 for orbital    274a         
          Delta Eig. =    53.9712730581 eV 
 
                                              current damping :  0.100
 ITERATION  ENERGY          1e-ENERGY        2e-ENERGY     RMS[dD(SAO)]   TOL
   4  -4189.3431060828    -38820.830731     18043.050627    0.328D-03 0.317D-12
          Norm of current diis error: 0.67568    
          max. resid. norm for Fia-block=  1.410D-02 for orbital     99a         
          max. resid. fock norm         =  2.683D-02 for orbital   4190a         
          Delta Eig. =     7.4263475897 eV 
 
                                              current damping :  0.150
 ITERATION  ENERGY          1e-ENERGY        2e-ENERGY     RMS[dD(SAO)]   TOL
   5  -4189.3672303114    -38818.411609     18040.607382    0.112D-03 0.294D-12
          Norm of current diis error: 0.19425    
          max. resid. norm for Fia-block=  4.320D-03 for orbital    280a         
          max. resid. fock norm         =  5.546D-03 for orbital    280a         
 mo-orthogonalization: Cholesky decomposition
          Delta Eig. =     0.6336492626 eV 
 
                                              current damping :  0.200
 ITERATION  ENERGY          1e-ENERGY        2e-ENERGY     RMS[dD(SAO)]   TOL
   6  -4189.3695525564    -38820.198936     18042.392386    0.321D-04 0.281D-12
          Norm of current diis error: 0.60833E-01
          max. resid. norm for Fia-block=  1.622D-03 for orbital    279a         
          max. resid. fock norm         =  1.756D-03 for orbital    285a         
          Delta Eig. =     0.1129425655 eV 
 
                                              current damping :  0.250
 ITERATION  ENERGY          1e-ENERGY        2e-ENERGY     RMS[dD(SAO)]   TOL
   7  -4189.3698739648    -38819.819154     18042.012283    0.156D-04 0.269D-12
          Norm of current diis error: 0.24345E-01
          max. resid. norm for Fia-block=  8.404D-04 for orbital    279a         
          max. resid. fock norm         =  8.541D-04 for orbital    279a         
          Delta Eig. =     0.0194933892 eV 
 
                                              current damping :  0.300
 ITERATION  ENERGY          1e-ENERGY        2e-ENERGY     RMS[dD(SAO)]   TOL
   8  -4189.3699425080    -38819.893294     18042.086355    0.656D-05 0.258D-12
          Norm of current diis error: 0.98328E-02
          max. resid. norm for Fia-block=  4.586D-04 for orbital    279a         
          max. resid. fock norm         =  4.607D-04 for orbital    279a         
          Delta Eig. =     0.0059143852 eV 
 
                                              current damping :  0.150
 ITERATION  ENERGY          1e-ENERGY        2e-ENERGY     RMS[dD(SAO)]   TOL
   9  -4189.3699564079    -38819.893620     18042.086666    0.288D-05 0.247D-12
          Norm of current diis error: 0.42503E-02
          max. resid. norm for Fia-block=  2.235D-04 for orbital    280a         
          max. resid. fock norm         =  2.246D-04 for orbital    280a         
          Delta Eig. =     0.0026401370 eV 
 
                                              current damping :  0.100
 ITERATION  ENERGY          1e-ENERGY        2e-ENERGY     RMS[dD(SAO)]   TOL
  10  -4189.3699594545    -38819.898253     18042.091297    0.124D-05 0.235D-12
          Norm of current diis error: 0.17218E-02
          max. resid. norm for Fia-block=  8.330D-05 for orbital    279a         
          max. resid. fock norm         =  9.078D-05 for orbital    273a         
 mo-orthogonalization: Cholesky decomposition
          Delta Eig. =     0.0023649925 eV 
 
                                              current damping :  0.150
 ITERATION  ENERGY          1e-ENERGY        2e-ENERGY     RMS[dD(SAO)]   TOL
  11  -4189.3699599442    -38819.893655     18042.086698    0.461D-06 0.225D-12
          Norm of current diis error: 0.66541E-03
          max. resid. norm for Fia-block=  3.503D-05 for orbital    280a         
          max. resid. fock norm         =  3.788D-05 for orbital    280a         
          Delta Eig. =     0.0008832971 eV 
 
                                              current damping :  0.200
 ITERATION  ENERGY          1e-ENERGY        2e-ENERGY     RMS[dD(SAO)]   TOL
  12  -4189.3699600060    -38819.898625     18042.091668    0.123D-06 0.219D-12
          Norm of current diis error: 0.41932E-03
          max. resid. norm for Fia-block=  1.732D-05 for orbital    268a         
          max. resid. fock norm         =  2.010D-05 for orbital    268a         
          Delta Eig. =     0.0005935412 eV 

 DENSITY CONVERGED !

 
                                              current damping :  0.250
 ITERATION  ENERGY          1e-ENERGY        2e-ENERGY     RMS[dD(SAO)]   TOL
  13  -4189.3699600356    -38819.896594     18042.089637    0.731D-07 0.214D-12
          Norm of current diis error: 0.12330E-03
          max. resid. norm for Fia-block=  7.129D-06 for orbital    280a         
          max. resid. fock norm         =  7.277D-06 for orbital    280a         
          Delta Eig. =     0.0000854264 eV 

 DENSITY CONVERGED !

 
                                              current damping :  0.300
 ITERATION  ENERGY          1e-ENERGY        2e-ENERGY     RMS[dD(SAO)]   TOL
  14  -4189.3699600576    -38819.896849     18042.089891    0.330D-07 0.209D-12
          Norm of current diis error: 0.47639E-04
          max. resid. norm for Fia-block=  2.543D-06 for orbital    274a         
          max. resid. fock norm         =  2.821D-06 for orbital   4139a         
          Delta Eig. =     0.0000332942 eV 

 ENERGY & DENSITY CONVERGED !

 
                                              current damping :  0.350
 ITERATION  ENERGY          1e-ENERGY        2e-ENERGY     RMS[dD(SAO)]   TOL
  15  -4189.3699600636    -38819.896758     18042.089801    0.124D-07 0.204D-12
          max. resid. norm for Fia-block=  4.429D-07 for orbital    283a         
          max. resid. fock norm         =  3.242D-06 for orbital   4164a         

 convergence criteria satisfied after    15 iterations


                  ------------------------------------------ 
                 |  total energy      =  -4189.36996006355  |
                  ------------------------------------------ 
                 :  kinetic energy    =   4180.88980758484  :
                 :  potential energy  =  -8370.25976764839  :
                 :  virial theorem    =      1.99797579289  :
                 :  wavefunction norm =      1.00000000000  :
                  .......................................... 


 <geterg> : there is no data group $energy 


 <skperg> : $end is missing 


 orbitals $scfmo  will be written to file mos

    irrep                297a        298a        299a        300a        301a   
 eigenvalues H         -0.39221    -0.38985    -0.38983    -0.38596    -0.38563
            eV         -10.6727    -10.6085    -10.6079    -10.5027    -10.4935
 occupation              2.0000      2.0000      2.0000      2.0000      2.0000 

    irrep                302a        303a        304a        305a        306a   
 eigenvalues H          0.10140     0.10452     0.10457     0.10483     0.11142
            eV           2.7592      2.8442      2.8454      2.8527      3.0318
 
 
 
 
 ==============================================================================
                           electrostatic moments
 ==============================================================================

 reference point for electrostatic moments:    0.00000   0.00000   0.00000

 
              nuc           elec       ->  total
 ------------------------------------------------------------------------------
                          charge      
 ------------------------------------------------------------------------------
         602.000000    -602.000000      -0.000000
 
 ------------------------------------------------------------------------------
                       dipole moment  
 ------------------------------------------------------------------------------
   x      -4.289093       4.271482      -0.017611
   y       0.044719      -0.043880       0.000839
   z       0.039615      -0.039789      -0.000174
 
   | dipole moment | =     0.0176 a.u. =     0.0448 debye 
 
 ------------------------------------------------------------------------------
                     quadrupole moment
 ------------------------------------------------------------------------------
  xx   29823.264066  -30038.342397    -215.078331
  yy   29694.292985  -29909.373974    -215.080989
  zz    7546.964787   -8012.973425    -466.008638
  xy      -5.295508       5.174638      -0.120870
  xz    -497.264372     491.630922      -5.633450
  yz    -449.593034     443.878830      -5.714203
 
     1/3  trace=    -298.722653
     anisotropy=     251.313668
 
 ==============================================================================
 

    dscf profiling
  --------------------------------------------------------------------
             module   cpu total (s)       %  wall total (s)       %

          dscf.total         22186.3  100.00         20009.7  100.00
        dscf.prepare            92.1    0.42            92.1    0.46
      prepare.oneint             0.7    0.00             0.7    0.00
     prepare.moinput             1.1    0.00             1.1    0.01
     moinput_orthmos            89.8    0.40            89.7    0.45
            dscf.scf         22090.2   99.57         19913.6   99.52
             scf.pre             0.0    0.00             0.1    0.00
        scf.makedmat            41.6    0.19            41.8    0.21
          scf.shloop         18492.3   83.35         18477.7   92.34
          shloop_omp         18489.2   83.34         18474.6   92.33
          scf.symcar             4.4    0.02             4.4    0.02
        scf.makefock             8.4    0.04             9.4    0.05
          scf.newerg             0.4    0.00             0.4    0.00
          scf.newcnv           598.1    2.70            76.7    0.38
           scf.fdiag          1800.7    8.12           225.7    1.13
         diag_tritrn           425.1    1.92            53.3    0.27
          diag_rdiag          1367.0    6.16           171.1    0.86
          scf.modump           966.8    4.36           955.8    4.78
           ortho_all           106.5    0.48            51.4    0.26
            scf.post            70.3    0.32            70.1    0.35
        dscf.postscf             3.9    0.02             4.0    0.02
 


    ------------------------------------------------------------------------
         total  cpu-time :  6 hours  9 minutes and 46 seconds
         total wall-time :  5 hours 33 minutes and 30 seconds
    ------------------------------------------------------------------------

   ****  dscf : all done  ****


    2018-02-20 12:47:10.587 

