STARTING ridft ON 16 PROCESSORS!
RUNNING PROGRAM /sopt/TURBOMOLE/7.3-official/bin/em64t-unknown-linux-gnu_smp/ridft_mpi.
           SMPCPUS    set: Shared-memory Parallelization with  16 CPUs.

           SMP Parallelization Reference:
           C. van Wullen, J. Comput. Chem. 32 (2011) 1195--1201
 operating system is UNIX !

 ridft (c-16-23) : TURBOMOLE V7.3 ( 22118 ) 1 Jul 2018 at 20:38:15
 Copyright (C) 2018 TURBOMOLE GmbH, Karlsruhe


    2019-03-12 22:53:30.551 



                                  r i d f t

                        DFT program with RI approximation 
                                for coulomb part 




                                                 
                                 References:     
                                                 
          TURBOMOLE:                             
              R. Ahlrichs, M. Baer, M. Haeser, H. Horn, and
              C. Koelmel
              Electronic structure calculations on workstation
              computers: the program system TURBOMOLE
              Chem. Phys. Lett. 162: 165 (1989)
          Density Functional:                              
              O. Treutler and R. Ahlrichs                      
              Efficient Molecular Numerical Integration Schemes
              J. Chem. Phys. 102: 346 (1995)                   
          Parallel Version:                                
              Performance of parallel TURBOMOLE for Density    
              Functional Calculations                          
              M. v. Arnim and R. Ahlrichs                      
              J. Comp. Chem. 19: 1746 (1998)                   
          RI-J Method:                                     
              Auxiliary Basis Sets to approximate Coulomb      
              Potentials                                       
              Chem. Phys. Lett. 240: 283 (1995)                
              K. Eichkorn, O. Treutler, H. Oehm, M. Haeser     
              and R. Ahlrichs                                  
              Chem. Phys. Lett. 242: 652 (1995)                
                                                           
              Auxiliary Basis Sets for Main Row Atoms and their
              Use to approximate Coulomb Potentials            
              K. Eichkorn, F. Weigend, O. Treutler and         
              R. Ahlrichs                                      
              Theo. Chem. Acc. 97: 119 (1997)                   
                                                           
              Accurate Coulomb-fitting basis sets for H to Rn 
              F. Weigend                                        
              Phys. Chem. Chem. Phys. 8: 1057 (2006)            
                                                           
          Multipole accelerated RI-J (MARI-J):             
              Fast evaluation of the Coulomb potential for     
              electron densities using multipole accelerated   
              resolution of identity approximation             
              M. Sierka, A. Hogekamp and R. Ahlrichs           
              J. Chem. Phys. 118: 9136 (2003)                  
          RI-JK Method:                                     
              A fully direct RI-HF algorithm: Implementation,
              optimised auxiliary basis sets, demonstration of
              accuracy and efficiency                         
              F. Weigend                                      
              Phys. Chem. Chem. Phys. 4: 4285 (2002)           
          Two-component HF and DFT with spin-orbit coupling:  
              Self-consistent treatment of spin-orbit         
              interactions with efficient Hartree-Fock and    
              density functional methods                      
              M. K. Armbruster, F. Weigend, C. van Wüllen and 
              W. Klopper                                      
              Phys. Chem. Chem. Phys. 10: 1748 (2008)         
          Two-component difference density and DIIS algorithm 
              Efficient two-component self-consistent field   
              procedures and gradients: implementation in     
              TURBOMOLE and application to Au20-              
              A. Baldes, F. Weigend                           
              Mol. Phys. 111: 2617 (2013)                     
          Relativistic all-electron 2c calculations           
              An efficient implementation of two-component    
              relativistic exact-decoupling methods for large 
              molecules                                       
              D. Peng, N. Middendorf, F. Weigend, M. Reiher   
              J. Chem. Phys. 138: 184105 (2013)               
          Finite nucleus model and SNSO approximation         
              Efficient implementation of one- and two-       
              component analytical energy gradients in exact  
              two-component theory                            
              Y. J. Franzke, N. Middendorf, F. Weigend        
              J. Chem. Phys. 148: 104110 (2018)               
                                         




              +--------------------------------------------------+
              |      general information about current run       |
              +--------------------------------------------------+

 
 PBE functional
 exchange:    LDA + PBE
 correlation: LDA (PW) + PBE
 A DFT calculation using the RI-J approximation will be carried out.
 Allocatable memory for RI due to $ricore (MB):                  8000


              +--------------------------------------------------+
              | Atomic coordinate, charge and isotop information |
              +--------------------------------------------------+

                    atomic coordinates            atom    charge  isotop
         -4.78622267   -0.74390812    7.83356202    c      6.000     0
         -4.84195720   -1.90234951    6.13055996    h      1.000     0
         -4.85450594   -2.01800044    9.45044385    h      1.000     0
         -6.48918973    0.41074560    7.86615213    h      1.000     0
         -2.40245318    0.86741490    7.90124811    c      6.000     0
         -2.40322015    2.03922193    9.60085635    h      1.000     0
         -2.38660150    2.16548350    6.29675646    h      1.000     0
         -0.00009298   -0.71533953    7.85033283    c      6.000     0
         -0.00038410   -2.01296289    9.46006205    h      1.000     0
          0.00017360   -1.90128977    6.15592408    h      1.000     0
          2.40216544    0.86746943    7.90211990    c      6.000     0
          2.40268134    2.03874201    9.60190099    h      1.000     0
          2.38667947    2.16585236    6.29791697    h      1.000     0
          4.78596308   -0.74394636    7.83442200    c      6.000     0
          4.84194333   -1.90207730    6.13119450    h      1.000     0
          6.48894290    0.41055568    7.86763968    h      1.000     0
          4.85383895   -2.01848364    9.45109350    h      1.000     0
 
       center of nuclear mass  :   -0.00012893   -0.11322888    7.86347720
       center of nuclear charge:   -0.00012954   -0.12701001    7.86287166

              +--------------------------------------------------+
              |               basis set information              |
              +--------------------------------------------------+

              we will work with the 1s 3p 5d 7f 9g ... basis set
              ...i.e. with spherical basis functions...

   type   atoms  prim   cont   basis
   ---------------------------------------------------------------------------
    c        5     68     48   def2-QZVP   [7s4p3d2f|15s8p3d2f]
    h       12     26     23   def2-QZVP   [4s3p2d|7s3p2d]
   ---------------------------------------------------------------------------
   total:   17    652    516
   ---------------------------------------------------------------------------

   total number of primitive shells          :   40
   total number of contracted shells         :  188
   total number of cartesian basis functions :  585
   total number of SCF-basis functions       :  516


 integral neglect threshold       :  0.57E-11
 integral storage threshold THIZE :  0.10E-04
 integral storage threshold THIME :         5

 RI-J AUXILIARY BASIS SET information:

              we will work with the 1s 3p 5d 7f 9g ... basis set
              ...i.e. with spherical basis functions...

   type   atoms  prim   cont   basis
   ---------------------------------------------------------------------------
    c        5     70     49   def2-QZVP   [6s4p3d1f1g|12s5p4d2f1g]
    h       12     16     11   def2-QZVP   [3s1p1d|5s2p1d]
   ---------------------------------------------------------------------------
   total:   17    542    377
   ---------------------------------------------------------------------------

   total number of primitive shells          :   32
   total number of contracted shells         :  135
   total number of cartesian basis functions :  449
   total number of SCF-basis functions       :  377


 symmetry group of the molecule :   c1 

 the group has the following generators :
   c1(z)

    1 symmetry operations found

 there are 1 real representations :   a   

 maximum number of shells which are related by symmetry :  1


    mo occupation :
   irrep   mo's   occupied
    a      516       21
 
 number of basis functions   :                    516
 number of occupied orbitals :                     21
 
  
           ------------------
           density functional
           ------------------
 PBE functional
 exchange:    LDA + PBE
 correlation: LDA (PW) + PBE

 iterations will be done with small grid
  
 spherical integration : Lebedev's spherical grid
 spherical gridsize    :                     4
    i.e. gridpoints    :                   434
 value for diffuse not defined
 radial integration    : Chebyshev 2nd kind (scaling 3)
 radial gridsize       :                     6
 integration cells     :                    17
 partition function    : becke
 partition sharpness   :                     3
  

 biggest AO integral is expected to be     5.262544080
  
           ------------------------
               RI-J - INFORMATION
           ------------------------
 Contributions to RI integral batches: 
  neglected integral batches:                  2643
  direct contribution:                            0
  memory contribution:                 15123
 Memory core needed for (P|Q) and Cholesky      2 MByte
 Memory core minimum needed except of (P|Q)     2 MByte
 Total minimum memory core needed (sum)         3 MByte
  
 ****************************************
 Memory allocated for RI-J   504 MByte
 ****************************************
                                            

          ------------------------
          nuclear repulsion energy  :   185.655948471    
          ------------------------

  _________________________________
 |                                 |
 |         DFTD3 V3.1 Rev 0        |
 | S.Grimme, University Bonn       |
 |            June  2014           |
 |   see standalone version        |
 |       dftd3 -h for options      |
 |_________________________________|
 
 Please cite DFT-D3 work done with this code as:
 S. Grimme, J. Antony, S. Ehrlich and H. Krieg,
 J. Chem. Phys, 132 (2010), 154104.
 If used with BJ-damping cite also
 S. Grimme, S. Ehrlich and L. Goerigk,
 J. Comput. Chem. 32 (2011), 1456-1465
 For DFT-D2 the reference is
 S. Grimme, J. Comput. Chem., 27 (2006), 1787-1799
 
C6 coefficients used:
                     2  C6 for element                      1
Z=  1 CN= 0.912     C6(AA)=    3.03
Z=  1 CN= 0.000     C6(AA)=    7.59
                     5  C6 for element                      6
Z=  6 CN= 0.000     C6(AA)=   49.11
Z=  6 CN= 0.987     C6(AA)=   43.25
Z=  6 CN= 1.998     C6(AA)=   29.36
Z=  6 CN= 2.999     C6(AA)=   25.78
Z=  6 CN= 3.984     C6(AA)=   18.21

#           XYZ [au]              R0(AA) [Ang.]  CN          C6(AA)     C8(AA)   C10(AA) [au]
  1  -4.78622  -0.74391   7.83356   c   0.610  4.016        18.3       529.6     18763.6
  2  -4.84196  -1.90235   6.13056   h   0.395  0.998         3.1        37.4       553.4
  3  -4.85451  -2.01800   9.45044   h   0.395  0.998         3.1        37.4       553.4
  4  -6.48919   0.41075   7.86615   h   0.395  0.998         3.1        37.4       553.4
  5  -2.40245   0.86741   7.90125   c   0.610  4.027        18.3       529.4     18754.8
  6  -2.40322   2.03922   9.60086   h   0.395  1.003         3.1        37.3       553.0
  7  -2.38660   2.16548   6.29676   h   0.395  1.003         3.1        37.3       553.0
  8  -0.00009  -0.71534   7.85033   c   0.610  4.059        18.3       528.7     18733.0
  9  -0.00038  -2.01296   9.46006   h   0.395  1.003         3.1        37.3       553.0
 10   0.00017  -1.90129   6.15592   h   0.395  1.003         3.1        37.3       553.0
 11   2.40217   0.86747   7.90212   c   0.610  4.027        18.3       529.4     18754.8
 12   2.40268   2.03874   9.60190   h   0.395  1.003         3.1        37.3       553.0
 13   2.38668   2.16585   6.29792   h   0.395  1.003         3.1        37.3       553.0
 14   4.78596  -0.74395   7.83442   c   0.610  4.016        18.3       529.6     18763.6
 15   4.84194  -1.90208   6.13119   h   0.395  0.998         3.1        37.4       553.4
 16   6.48894   0.41056   7.86764   h   0.395  0.998         3.1        37.4       553.4
 17   4.85384  -2.01848   9.45109   h   0.395  0.998         3.1        37.4       553.4

molecular C6(AA) [au] =      1797.85

           DFT-D V3(BJ)
 DF pbe                                               
 parameters
 s6       :    1.0000
 s8       :    0.7875
 a1       :    0.4289
 a2       :    4.4407
 k1-k3    :   16.0000    1.3333   -4.0000
 
 Edisp /kcal,au:    -7.4469 -0.01186737

 E6    /kcal :    -5.4320
 E8    /kcal :    -2.0149
 % E8        : 27.06
 nuclear repulsion energy                  =     185.655948471
 empirical dispersive energy correction    =      -0.011867369
 nuclear repulsion + dispersion correction =     185.644081102


         -----------------
         -S,T+V- integrals
         -----------------

 1e-integrals will be neglected if expon. factor < 0.571275E-12
 Difference densities >>NOT<< switched on in parallel ridft!

 DIIS switched on: error vector is FDS-SDF
 Max. Iterations for DIIS is     :   4
 DIIS matrix (see manual) 
    Scaling factor of diagonals  :  1.200
    threshold for scaling factor :  0.000

 scf convergence criterion : increment of total energy < .1000000D-06
                  and increment of one-electron energy < .1000000D-03

  MOs are in ASCII format !


 automatic virtual orbital shift switched on 
      shift if e(lumo)-e(homo) < 0.10000000    


 reading orbital data $scfmo  from file mos
 orbital characterization : expanded
 mo provided and orthogonalized by Cholesky decomposition

 DSCF restart information will be dumped onto file mos


 Starting SCF iterations

          Overall gridpoints after grid construction =         38980

 ITERATION  ENERGY          1e-ENERGY        2e-ENERGY     NORM[dD(SAO)]  TOL
   1  -196.87741836408    -623.41249540     240.89099594    0.000D+00 0.570D-11
                            Exc = -30.3000783583     Coul =  271.191074295    
                              N = 41.999021332    
                            current damping = 0.700
 
          max. resid. norm for Fia-block=  4.483D-01 for orbital      6a         
          max. resid. fock norm         =  4.977D+01 for orbital    441a         

 ITERATION  ENERGY          1e-ENERGY        2e-ENERGY     NORM[dD(SAO)]  TOL
   2  -197.42803123198    -629.12373982     246.05162748    0.000D+00 0.570D-11
                            Exc = -30.9504077969     Coul =  277.002035279    
                              N = 41.999144192    
                            current damping = 0.650
 
          Norm of current diis error:  2.5237    
          max. resid. norm for Fia-block=  1.016D-01 for orbital      3a         
          max. resid. fock norm         =  1.173D-01 for orbital      6a         

 ITERATION  ENERGY          1e-ENERGY        2e-ENERGY     NORM[dD(SAO)]  TOL
   3  -197.53414680256    -630.17746552     246.99923761    0.000D+00 0.570D-11
                            Exc = -31.1433972665     Coul =  278.142634881    
                              N = 41.999219706    
                            current damping = 0.550
 
          Norm of current diis error:  1.2064    
          max. resid. norm for Fia-block=  4.457D-02 for orbital     10a         
          max. resid. fock norm         =  4.973D-02 for orbital      6a         

 ITERATION  ENERGY          1e-ENERGY        2e-ENERGY     NORM[dD(SAO)]  TOL
   4  -197.56441702027    -631.39334694     248.18484881    0.000D+00 0.570D-11
                            Exc = -31.2995592117     Coul =  279.484408024    
                              N = 41.999289020    
                            current damping = 0.450
 
          Norm of current diis error: 0.43041    
          max. resid. norm for Fia-block=  1.679D-02 for orbital      6a         
          max. resid. fock norm         =  1.922D-02 for orbital      6a         

 ITERATION  ENERGY          1e-ENERGY        2e-ENERGY     NORM[dD(SAO)]  TOL
   5  -197.56887593557    -631.50831749     248.29536045    0.000D+00 0.570D-11
                            Exc = -31.3380415438     Coul =  279.633401995    
                              N = 41.999313465    
                            current damping = 0.300
 
          Norm of current diis error: 0.16596    
          max. resid. norm for Fia-block=  6.780D-03 for orbital     10a         
          max. resid. fock norm         =  6.925D-03 for orbital     10a         
          mo-orthogonalization: Cholesky decomposition

 ITERATION  ENERGY          1e-ENERGY        2e-ENERGY     NORM[dD(SAO)]  TOL
   6  -197.56954064107    -631.82049346     248.60687171    0.000D+00 0.570D-11
                            Exc = -31.3705923722     Coul =  279.977464086    
                              N = 41.999329004    
                            current damping = 0.150
 
          Norm of current diis error: 0.53287E-01
          max. resid. norm for Fia-block=  1.831D-03 for orbital     20a         
          max. resid. fock norm         =  3.028D-03 for orbital    515a         

 ITERATION  ENERGY          1e-ENERGY        2e-ENERGY     NORM[dD(SAO)]  TOL
   7  -197.56959083315    -631.71351578     248.49984384    0.000D+00 0.570D-11
                            Exc = -31.3663781095     Coul =  279.866221954    
                              N = 41.999328497    
                            current damping = 0.200
 
          Norm of current diis error: 0.28888E-01
          max. resid. norm for Fia-block=  6.200D-04 for orbital     14a         
          max. resid. fock norm         =  1.685D-03 for orbital    515a         

 ITERATION  ENERGY          1e-ENERGY        2e-ENERGY     NORM[dD(SAO)]  TOL
   8  -197.56960569696    -631.75131537     248.53762857    0.000D+00 0.570D-11
                            Exc = -31.3688814954     Coul =  279.906510070    
                              N = 41.999329747    
                            current damping = 0.250
 
          Norm of current diis error: 0.62102E-02
          max. resid. norm for Fia-block=  2.034D-04 for orbital     15a         
          max. resid. fock norm         =  5.386D-04 for orbital    515a         

 ITERATION  ENERGY          1e-ENERGY        2e-ENERGY     NORM[dD(SAO)]  TOL
   9  -197.56960625949    -631.76288698     248.54919962    0.000D+00 0.570D-11
                            Exc = -31.3699719673     Coul =  279.919171589    
                              N = 41.999330039    
                            current damping = 0.100
 
          Norm of current diis error: 0.31065E-02
          max. resid. norm for Fia-block=  6.171D-05 for orbital     15a         
          max. resid. fock norm         =  1.713D-04 for orbital    515a         

 ITERATION  ENERGY          1e-ENERGY        2e-ENERGY     NORM[dD(SAO)]  TOL
  10  -197.56960644375    -631.75915266     248.54546512    0.000D+00 0.570D-11
                            Exc = -31.3696314926     Coul =  279.915096611    
                              N = 41.999329963    
                            current damping = 0.150
 
          Norm of current diis error: 0.12018E-03
          max. resid. norm for Fia-block=  3.474D-06 for orbital     21a         
          max. resid. fock norm         =  9.750D-06 for orbital    515a         
          mo-orthogonalization: Cholesky decomposition

 ENERGY CONVERGED !

          Overall gridpoints after grid construction =        150517

 ITERATION  ENERGY          1e-ENERGY        2e-ENERGY     NORM[dD(SAO)]  TOL
  11  -197.56964027997    -631.75920706     248.54548568    0.000D+00 0.570D-11
                            Exc = -31.3696742007     Coul =  279.915159881    
                              N = 41.999994596    
                            current damping = 0.200
 
          Norm of current diis error: 0.51978E-04
          max. resid. norm for Fia-block=  1.683D-06 for orbital     21a         
          max. resid. fock norm         =  2.781D-06 for orbital    508a         

 End of SCF iterations

   convergence criteria satisfied after    11 iterations


                  ------------------------------------------ 
                 |  total energy      =   -197.56964027997  |
                  ------------------------------------------ 
                 :  kinetic energy    =    196.66995403615  :
                 :  potential energy  =   -394.23959431612  :
                 :  virial theorem    =      1.99544623231  :
                 :  wavefunction norm =      1.00000000000  :
                  .......................................... 


 orbitals $scfmo  will be written to file mos

    irrep                 17a         18a         19a         20a         21a   
 eigenvalues H         -0.31084    -0.29119    -0.28620    -0.27808    -0.27568
            eV          -8.4585     -7.9239     -7.7880     -7.5671     -7.5016
 occupation              2.0000      2.0000      2.0000      2.0000      2.0000 

    irrep                 22a         23a         24a         25a         26a   
 eigenvalues H          0.00559     0.01686     0.02668     0.03126     0.04696
            eV           0.1521      0.4589      0.7259      0.8507      1.2777
 
 
 
 
 ==============================================================================
                           electrostatic moments
 ==============================================================================

 reference point for electrostatic moments:    0.00000   0.00000   0.00000

 
              nuc           elec       ->  total
 ------------------------------------------------------------------------------
                          charge      
 ------------------------------------------------------------------------------
          42.000000     -42.000000      -0.000000
 
 ------------------------------------------------------------------------------
                       dipole moment  
 ------------------------------------------------------------------------------
   x      -0.005441       0.005437      -0.000003
   y      -5.334420       5.371298       0.036878
   z     330.240610    -330.238428       0.002181
 
   | dipole moment | =     0.0369 a.u. =     0.0939 debye 
 
 ------------------------------------------------------------------------------
                     quadrupole moment
 ------------------------------------------------------------------------------
  xx     545.304660    -572.417241     -27.112582
  yy      59.823622     -86.535160     -26.711538
  zz    2624.122343   -2649.915461     -25.793118
  xy      -0.002000       0.002178       0.000177
  xz       0.012620      -0.012732      -0.000113
  yz     -40.706167      40.959749       0.253583
 
     1/3  trace=     -26.539079
     anisotropy=       1.251227
 
 ==============================================================================
 


    ------------------------------------------------------------------------
         total  cpu-time :  1 minutes and 43 seconds
         total wall-time :  31.54 seconds
    ------------------------------------------------------------------------

   ****  ridft : all done  ****


    2019-03-12 22:54:02.049 

