
   OpenMP run-time library returned nthreads =  8

 ricc2 (c-16-29.local) : TURBOMOLE V7.2 ( 21471 ) 11 Oct 2017 at 17:04:51
 Copyright (C) 2017 TURBOMOLE GmbH, Karlsruhe


    2018-04-03 13:31:40.583 



                              R I C C 2 - PROGRAM

                          the quantum chemistry groups
                             at the universities in
                           Karlsruhe, Bochum & Mainz
                                   Germany



   *-----------------------------------------------------------------------*
   |                     program will use  8 thread(s)                     |
   *-----------------------------------------------------------------------*


              +--------------------------------------------------+
              | Atomic coordinate, charge and isotop information |
              +--------------------------------------------------+

                    atomic coordinates            atom    charge  isotop
          0.21735126   -1.25560281    0.00000000    c      6.000     0
         -2.19187843   -1.40051657    0.00000000    o      8.000     0
          1.38964493    1.39385633    0.00000000    c      6.000     0
          1.69525106   -3.12006025    0.00000000    o      8.000     0
          2.59847773    1.61298587   -1.66674633    h      1.000     0
          2.59847773    1.61298587    1.66674633    h      1.000     0
         -0.05215451    2.87142027    0.00000000    h      1.000     0
         -6.25516977   -1.71506871    0.00000000    na    11.000     0
 
       center of nuclear mass  :   -1.55133125   -1.26713320    0.00000000
       center of nuclear charge:   -1.38078829   -1.14532041    0.00000000

              +--------------------------------------------------+
              |               basis set information              |
              +--------------------------------------------------+

              we will work with the 1s 3p 5d 7f 9g ... basis set
              ...i.e. with spherical basis functions...

   type   atoms  prim   cont   basis
   ---------------------------------------------------------------------------
    c        2     50     30   cc-pVTZ   [4s3p2d1f|18s5p2d1f]
    o        2     50     30   cc-pVTZ   [4s3p2d1f|18s5p2d1f]
    h        3     16     14   cc-pVTZ   [3s2p1d|5s2p1d]
    na       1    115     34   cc-pVTZ   [5s4p2d1f|44s18p2d1f]
   ---------------------------------------------------------------------------
   total:    8    363    196
   ---------------------------------------------------------------------------

   total number of primitive shells          :  125
   total number of contracted shells         :   70
   total number of cartesian basis functions :  224
   total number of SCF-basis functions       :  196


 symmetry group of the molecule :   c1 

 the group has the following generators :
   c1(z)

    1 symmetry operations found

 there are 1 real representations :   a   


   =========================================================================


     restricted closed shell calculation for the wavefunction models:
               MP2        - Second Order Moeller Plesset PT


     global parameters for ricc2 program:

        hard restart (reuse of interm.) :  enabled 
        soft restart (reuse of vectors) :  enabled 
        threshold for vector function   :    0.100000E-05
        convergence threshold energy    :    0.100000E-06
        linear dependence threshold     :    0.100000E-13
        global print level              :      1
        maximum number of iterations    :   300
        maximum number DIIS vectors     :    10
        max. dim. of reduced space      :   100
        core memory limit (MB)          : 15258


     MP2 energy only: Energy will be calculated directly from T2 amplitudes!

     Scratch Directory : 


   =========================================================================

    der. integral neglect threshold  :  0.10E-07
    integral neglect threshold       :  0.15E-10
    integral storage threshold THIZE :  0.10E-04
    integral storage threshold THIME :         5


                  +------------------------------------------+
                  |     Auxiliary basis set information      |
                  +------------------------------------------+

              we will work with the 1s 3p 5d 7f 9g ... basis set
              ...i.e. with spherical basis functions...

   type   atoms  prim   cont   basis
   ---------------------------------------------------------------------------
    c        2     81     81   cc-pVTZ   [8s6p5d3f1g|8s6p5d3f1g]
    o        2     81     81   cc-pVTZ   [8s6p5d3f1g|8s6p5d3f1g]
    h        3     30     30   cc-pVTZ   [4s3p2d1f|4s3p2d1f]
    na       1    122    122   cc-pVTZ   [10s8p7d5f2g|10s8p7d5f2g]
   ---------------------------------------------------------------------------
   total:    8    536    536
   ---------------------------------------------------------------------------

   total number of primitive shells          :   88
   total number of contracted shells         :  154
   total number of cartesian basis functions :  665
   total number of SCF-basis functions       :  536


 maximum number of shells which are related by symmetry :  1


 The symmetry information takes   1 MB

*---------------------------------------------------------------------*
|               simplified C1 algorithm will be applied               |
*---------------------------------------------------------------------*
  MOs are in ASCII format !


 reading orbital data $scfmo  from file mos
 orbital characterization : scfconv=9



              +--------------------------------------------+
              | list of orbitals that will be kept frozen: |
              +--------------------------------------------+
              |   irrep   index      energy     occ/vir    |
              +--------------------------------------------+
              |   a         1      -40.5255     occupied   |
              |   a         2      -20.4604     occupied   |
              |   a         3      -20.4275     occupied   |
              |   a         4      -11.2874     occupied   |
              |   a         5      -11.1797     occupied   |
              +--------------------------------------------+



   Molecular Orbital Statistic:
   ============================

   -----------------------------
   orbitals in total:
   -----------------------------
    frozen occupied :      5
    active occupied :     16
    active virtual  :    175
    frozen virtual  :      0
    all together    :    196
   -----------------------------


     time in riccmos       cpu:  0.73 sec    wall:  0.09 sec    ratio:  7.9

     total memory allocated for calculation of (Q|P)**(-1/2) : 4 MiB


     calculation of (P|Q) ...
     time in lp2sym        cpu:  0.15 sec    wall:  0.02 sec    ratio:  7.6


     calculation of the Cholesky decomposition of (P|Q)**(-1) ...
     time in invmetri      cpu:  0.44 sec    wall:  0.06 sec    ratio:  7.6

   threshold for RMS(d[D]) in SCF was     :  0.10E-06
   integral neglect threshold             :  0.15E-10
   derivative integral neglect threshold  :  0.10E-07


   =========================================================================

     Energy of reference wave function is  -389.1981348790000
     Maximum orbital residual is           0.2416361955471E-06


     Number of symmetry-nonredundant auxiliary basis functions:      536

     Block lengths for integral files:
        frozen occupied (BOI):        1 MiB
        active occupied (BJI):        1 MiB
        active virtual  (BAI):        1 MiB
        frozen virtual  (BGI):        0 MiB
               general  (BTI):        1 MiB

   =========================================================================



   restarted calculation begins with wavefunction model nb. 1 which is MP2     


   **************************************************************************
   *                                                                        *
   *          OPTIMIZATION OF THE GROUND STATE CLUSTER AMPLITUDES           *
   *                                                                        *
   **************************************************************************


   Iter.   MP2 energy       Norm(Omega)    Norm(t1)  Norm(t2)     cpu    wall
   ...........................................................................
    1   -390.0200830066     ------          0.00000   0.28179    0.01    0.00
   ...........................................................................


     time in total         cpu:  0.76 sec    wall:  0.10 sec    ratio:  7.7


     **********************************************************************
     *                                                                    *
     *   RHF  energy                             :   -389.1981348790      *
     *   MP2 correlation energy (doubles)        :     -0.8219481276      *
     *                                                                    *
     *   Final MP2 energy                        :   -390.0200830066      *
     *                                                                    *
     *    E(S)   =     -0.5084616892      E(T)   =     -0.3134864384      *
     *    E(OS)  =     -0.6129571687      E(SS)  =     -0.2089909589      *
     *                                                                    *
     *   SCS-MP2 energy                          :   -390.0033471344      *
     *   (computed with  C(OS) =   1.2000  and  C(SS) =   0.3333)         *
     *                                                                    *
     *   SOS-MP2 energy                          :   -389.9949791983      *
     *   (computed with  C(OS) =   1.3000)                                *
     *                                                                    *
     *   Norm of MP1 T2 amplitudes               :      0.2817890935      *
     *                                                                    *
     **********************************************************************



    ------------------------------------------------------------------------
         total  cpu-time :   5.53 seconds
         total wall-time :   0.79 seconds
    ------------------------------------------------------------------------

   ****  ricc2 : all done  ****


    2018-04-03 13:31:41.276 

