STARTING dscf ON 40 PROCESSORS!
RUNNING PROGRAM /beegfs/modfac/apps/TURBOMOLE/7.2.1-official/bin/em64t-unknown-linux-gnu_mpi/dscf_mpi.
PLEASE WAIT UNTIL dscf HAS FINISHED.
Look for the output in slave1.output.
MACHINEFILE is ./hostlist
 this is node-proc. number 1 running on node c-9-332.local
 the total number of node-proc. spawned is  41
  parallel platform: MPP or cluster with fast interconnect

 dscf (c-9-332.local) : TURBOMOLE V7.2 ( 21471 ) 7 Nov 2017 at 16:15:16
 Copyright (C) 2017 TURBOMOLE GmbH, Karlsruhe


    2018-02-15 01:35:51.054 


 SCF run will be profiled !



                             d s c f - program

                   idea & directorship : reinhart ahlrichs
                   program development : marco haeser
                                         michael baer
                           dft version : oliver treutler
           parallelized version : malte v. arnim, gina corongiu, GMD 


                          quantum chemistry group
                          universitaet  karlsruhe
                                  germany




                          References             
                                                 
          TURBOMOLE:                             
              R. Ahlrichs, M. Baer, M. Haeser, H. Horn, and
              C. Koelmel
              Electronic structure calculations on workstation
              computers: the program system TURBOMOLE
              Chem. Phys. Lett. 162: 165 (1989)
          Density Functional:                              
              O. Treutler and R. Ahlrichs                      
              Efficient Molecular Numerical Integration Schemes
              J. Chem. Phys. 102: 346 (1995)                   
          Parallel Version:                                
              Performance of parallel TURBOMOLE for Density    
              Functional Calculations                          
              M. v. Arnim and R. Ahlrichs                      
              J. Comp. Chem. 19: 1746 (1998)                   
                                         




              +--------------------------------------------------+
              | Atomic coordinate, charge and isotop information |
              +--------------------------------------------------+

                    atomic coordinates            atom    charge  isotop
          5.32392463   -1.49516900   -2.40294285    c      6.000     0
          6.18731652   -3.52966606   -0.98744084    c      6.000     0
          4.82376692   -5.71510672   -1.77930586    c      6.000     0
          3.17420547   -4.98683212   -3.67633784    c      6.000     0
          6.00623048    1.30084672   -2.38521574    c      6.000     0
          8.83970149    1.58130848   -3.10270124    c      6.000     0
          4.37227662    2.69090806   -4.29136691    c      6.000     0
          4.51174257    2.89108961   -6.89906610    c      6.000     0
          1.35221078   -6.44314688   -5.33166096    c      6.000     0
          0.75206739   -9.02020477   -4.09185518    c      6.000     0
          2.55403637   -6.91550744   -7.95239686    c      6.000     0
         -1.05525346   -4.93309984   -5.64581292    c      6.000     0
         -2.51773129   -4.33794719   -7.73452991    c      6.000     0
          3.51136005   -2.42677166   -4.01061320    n      7.000     0
          2.16807609    3.87254735   -3.57044427    n      7.000     0
         -2.27867614   -3.93393675   -3.57588096    n      7.000     0
         -3.31653021    4.92414393   -3.65307308    c      6.000     0
         -5.01890894    5.65674207   -1.80453878    c      6.000     0
         -6.38528656    3.46829669   -1.02755151    c      6.000     0
         -5.47284584    1.42827285   -2.40330205    c      6.000     0
         -1.48029780    6.38875004   -5.28641586    c      6.000     0
         -0.85848565    8.94313763   -4.00985075    c      6.000     0
         -2.67944908    6.90908267   -7.89940873    c      6.000     0
          0.91509443    4.86624140   -5.62619683    c      6.000     0
          2.33998721    4.25199702   -7.73493599    c      6.000     0
         -6.11184336   -1.37661477   -2.34124766    c      6.000     0
         -8.95603865   -1.71149971   -2.98594642    c      6.000     0
         -4.50027024   -2.76638251   -4.26675676    c      6.000     0
         -4.68149264   -2.98209206   -6.87061072    c      6.000     0
         -3.62553357    2.35860202   -3.97236025    n      7.000     0
          5.56243944    2.44316398    0.21845543    c      6.000     0
          5.74880943    4.95755089    1.03539559    c      6.000     0
          4.82696343    1.02208452    2.23616870    n      7.000     0
          5.09712296    5.00759210    3.64265296    c      6.000     0
          4.52995734    2.52391905    4.34966695    c      6.000     0
         -5.58485686   -2.47329868    0.26757915    c      6.000     0
         -5.69367849   -4.97768039    1.12841681    c      6.000     0
         -4.82156431   -1.00509774    2.24039701    n      7.000     0
         -4.96428352   -4.97189564    3.71569707    c      6.000     0
         -4.43167384   -2.46565904    4.36758544    c      6.000     0
          3.86974805    1.47659183    6.79374874    c      6.000     0
         -3.71995740   -1.36306814    6.77245038    c      6.000     0
          3.44657604    2.70577856    8.70842435    o      8.000     0
         -3.23015205   -2.54658284    8.69977230    o      8.000     0
          3.80737564   -1.10514195    6.70826337    o      8.000     0
         -3.69326723    1.21724981    6.63487550    o      8.000     0
         -3.11601839    2.55707933    8.97702921    c      6.000     0
          3.27236864   -2.39434475    9.08950815    c      6.000     0
         -4.13475632    5.21909711    8.69124607    c      6.000     0
          4.33464575   -5.04552179    8.86678210    c      6.000     0
         -4.74286359   -7.24622871    5.39267405    c      6.000     0
          4.98928078    7.31000504    5.29265789    c      6.000     0
          2.32949891    8.49047736    5.35469284    c      6.000     0
         -2.05544737   -8.36436188    5.36462719    c      6.000     0
         -6.47853106   -7.26439578   -0.35989609    c      6.000     0
          6.53495588    7.20352807   -0.51297770    c      6.000     0
          5.04552848   -7.60788104   -1.04442988    h      1.000     0
          9.40463830    3.56686967   -3.06874157    h      1.000     0
          9.16900807    0.81643591   -4.99404391    h      1.000     0
          9.99999359    0.52688532   -1.75864220    h      1.000     0
          6.00028821    2.13720639   -8.07771787    h      1.000     0
         -0.57658928  -10.06901105   -5.27735712    h      1.000     0
         -0.09154432   -8.76783076   -2.22133333    h      1.000     0
          2.47830662  -10.14188443   -3.88285945    h      1.000     0
          3.00695523   -5.13035243   -8.89241341    h      1.000     0
          1.26176311   -7.98731176   -9.16265978    h      1.000     0
          4.29951081   -7.99790386   -7.72615856    h      1.000     0
         -2.10043299   -4.84330067   -9.66870102    h      1.000     0
          1.62118194    4.06309515   -1.74551550    h      1.000     0
         -1.69820183   -4.11008488   -1.75954821    h      1.000     0
         -5.27408351    7.55456826   -1.09394951    h      1.000     0
         -7.87045408    3.40127704    0.37572437    h      1.000     0
          0.47780127    9.99851566   -5.18109353    h      1.000     0
         -0.01691243    8.65831410   -2.14301672    h      1.000     0
         -2.57536024   10.07562405   -3.78405646    h      1.000     0
         -3.14786604    5.14109049   -8.86383627    h      1.000     0
         -1.37927658    7.98828701   -9.09468780    h      1.000     0
         -4.41616896    8.00151728   -7.65556843    h      1.000     0
          1.89330265    4.74931897   -9.66451676    h      1.000     0
         -9.34194453   -0.98452516   -4.88139362    h      1.000     0
        -10.10218985   -0.65357042   -1.63234032    h      1.000     0
         -9.48813212   -3.70467596   -2.90525893    h      1.000     0
         -6.19055346   -2.23826584   -8.02939932    h      1.000     0
         -2.67671777    1.27816199   -5.23839476    h      1.000     0
          4.52467074   -0.86956392    2.17265762    h      1.000     0
         -4.57513198    0.89322231    2.14017243    h      1.000     0
         -1.06724050    2.53762041    9.24474282    h      1.000     0
         -4.00200760    1.53454253   10.53729267    h      1.000     0
          1.22491823   -2.40209104    9.36804540    h      1.000     0
          4.15197938   -1.31549499   10.61478264    h      1.000     0
         -3.29787149    6.15969717    7.05159290    h      1.000     0
         -3.66364894    6.32146671   10.37803281    h      1.000     0
         -6.19078047    5.20628832    8.46601891    h      1.000     0
          3.50038789   -6.04585038    7.26153145    h      1.000     0
          3.89684945   -6.10885657   10.58737629    h      1.000     0
          6.38826232   -5.00405885    8.62347613    h      1.000     0
         -6.09784411   -8.68616137    4.77186525    h      1.000     0
         -5.22573357   -6.72027811    7.33200352    h      1.000     0
          6.35168033    8.70899457    4.59912895    h      1.000     0
          5.53605184    6.80045296    7.21942620    h      1.000     0
          1.70050500    9.01194270    3.45164413    h      1.000     0
          2.30302838   10.19059998    6.53555486    h      1.000     0
          0.97774897    7.13670014    6.13349410    h      1.000     0
         -1.49386721   -8.90817405    3.44671263    h      1.000     0
         -1.93904251  -10.03983678    6.57480869    h      1.000     0
         -0.70379886   -6.96457904    6.05829261    h      1.000     0
         -6.41347141   -6.90296469   -2.39290412    h      1.000     0
         -8.40932355   -7.85362575    0.11806555    h      1.000     0
         -5.23601036   -8.87301876    0.03182258    h      1.000     0
          6.37824820    6.81887274   -2.53686091    h      1.000     0
          8.49847454    7.74628985   -0.12117738    h      1.000     0
          5.35194606    8.84927502   -0.09323357    h      1.000     0
          7.64619561   -3.46486501    0.44325816    h      1.000     0
          2.59692988   -1.34594449   -5.30183989    h      1.000     0
 
       center of nuclear mass  :   -0.00498592   -0.00077194    0.08075192
       center of nuclear charge:   -0.00411295   -0.00055348    0.07997689

              +--------------------------------------------------+
              |               basis set information              |
              +--------------------------------------------------+

              we will work with the 1s 3p 5d 7f 9g ... basis set
              ...i.e. with spherical basis functions...

   type   atoms  prim   cont   basis
   ---------------------------------------------------------------------------
    c       46     50     30   cc-pVTZ   [4s3p2d1f|18s5p2d1f]
    n        6     50     30   cc-pVTZ   [4s3p2d1f|18s5p2d1f]
    o        4     50     30   cc-pVTZ   [4s3p2d1f|18s5p2d1f]
    h       58     16     14   cc-pVTZ   [3s2p1d|5s2p1d]
   ---------------------------------------------------------------------------
   total:  114   3728   2492
   ---------------------------------------------------------------------------

   total number of primitive shells          :   86
   total number of contracted shells         :  908
   total number of cartesian basis functions : 2830
   total number of SCF-basis functions       : 2492


 integral neglect threshold       :  0.12E-13
 integral storage threshold THIZE :  0.10E-04
 integral storage threshold THIME :         5


 DENSITY CONVERGENCE CHECK SWITCHED ON !
 SCF CONVERGENCE IF RMS(delta[D]) <     0.1000000000E-06


 symmetry group of the molecule :   c1 

 the group has the following generators :
   c1(z)

    1 symmetry operations found

 there are 1 real representations :   a   

 maximum number of shells which are related by symmetry :  1


    mo occupation :
   irrep   mo's   occupied
    a     2492      204
 
 number of basis functions   :                   2492
 number of occupied orbitals :                    204
 

 automatic virtual orbital shift switched on 
      shift if e(lumo)-e(homo) < 0.10000000    


 keyword $2e-ints_shell_statistics missing in file <control>

 ! One task per shell generated
  No pre-computed optimal task distribution found
  ... using automatic task generation

          ------------------------
          nuclear repulsion energy  :   8805.56736051    
          ------------------------


         -----------------
         -S,T+V- integrals
         -----------------

 1e-integrals will be neglected if expon. factor < 0.118091E-14
 
   Difference densities algorithm switched on.
   The maximal number of linear combinations of
   difference densities is                    20 .

 DIIS switched on: error vector is FDS-SDF
 Max. Iterations for DIIS is     :   5
 DIIS matrix (see manual) 
    Scaling factor of diagonals  :  1.200
    threshold for scaling factor :  0.000

 scf convergence criterion : increment of total energy < .1000000D-08
                  and increment of one-electron energy < .1000000D-05

  MOs are in ASCII format !


 reading orbital data $scfmo  from file mos
 orbital characterization : scfconv=9

 DSCF restart information will be dumped onto file mos

 
                                              current damping :  0.300
 ITERATION  ENERGY          1e-ENERGY        2e-ENERGY     RMS[dD(SAO)]   TOL
   1  -2402.6437850332    -20821.677886     9613.4667400    0.000D+00 0.118D-13
          max. resid. norm for Fia-block=  2.368D-04 for orbital    203a         
          max. resid. fock norm         =  3.012D-03 for orbital   2417a         
          Delta Eig. =     0.1707313679 eV 
 
                                              current damping :  0.250
 ITERATION  ENERGY          1e-ENERGY        2e-ENERGY     RMS[dD(SAO)]   TOL
   2  -2402.6437862755    -20821.684067     9613.4729198    0.402D-05 0.747D-14
          Norm of current diis error: 0.15767E-02
          max. resid. norm for Fia-block=  7.157D-05 for orbital    201a         
          max. resid. fock norm         =  6.996D-04 for orbital   2417a         
          Delta Eig. =     0.0406011781 eV 
 
                                              current damping :  0.200
 ITERATION  ENERGY          1e-ENERGY        2e-ENERGY     RMS[dD(SAO)]   TOL
   3  -2402.6437863924    -20821.681028     9613.4698815    0.131D-05 0.591D-14
          Norm of current diis error: 0.43876E-03
          max. resid. norm for Fia-block=  1.844D-05 for orbital    201a         
          max. resid. fock norm         =  1.378D-04 for orbital   2417a         
          Delta Eig. =     0.0086469210 eV 
 
                                              current damping :  0.250
 ITERATION  ENERGY          1e-ENERGY        2e-ENERGY     RMS[dD(SAO)]   TOL
   4  -2402.6437864009    -20821.682599     9613.4714524    0.321D-06 0.531D-14
          Norm of current diis error: 0.11870E-03
          max. resid. norm for Fia-block=  3.806D-06 for orbital    194a         
          max. resid. fock norm         =  2.487D-05 for orbital   2417a         
          Delta Eig. =     0.0013855849 eV 

 DENSITY CONVERGED !

 
                                              current damping :  0.300
 ITERATION  ENERGY          1e-ENERGY        2e-ENERGY     RMS[dD(SAO)]   TOL
   5  -2402.6437864017    -20821.681972     9613.4708247    0.587D-07 0.505D-14
          Norm of current diis error: 0.41348E-04
          max. resid. norm for Fia-block=  1.450D-06 for orbital    191a         
          max. resid. fock norm         =  4.617D-06 for orbital   2417a         
 mo-orthogonalization: Cholesky decomposition
          Delta Eig. =     0.0002868690 eV 

 DENSITY CONVERGED !

 
                                              current damping :  0.350
 ITERATION  ENERGY          1e-ENERGY        2e-ENERGY     RMS[dD(SAO)]   TOL
   6  -2402.6437864016    -20821.682095     9613.4709480    0.151D-07 0.484D-14
          Norm of current diis error: 0.15911E-04
          max. resid. norm for Fia-block=  6.872D-07 for orbital    196a         
          max. resid. fock norm         =  1.218D-06 for orbital   2403a         
          Delta Eig. =     0.0000589186 eV 

 DENSITY CONVERGED !

 
                                              current damping :  0.400
 ITERATION  ENERGY          1e-ENERGY        2e-ENERGY     RMS[dD(SAO)]   TOL
   7  -2402.6437864019    -20821.682068     9613.4709216    0.549D-08 0.458D-14
          Norm of current diis error: 0.82587E-05
          max. resid. norm for Fia-block=  3.863D-07 for orbital    195a         
          max. resid. fock norm         =  3.878D-07 for orbital    195a         
          Delta Eig. =     0.0000207240 eV 

 ENERGY & DENSITY CONVERGED !

 
                                              current damping :  0.450
 ITERATION  ENERGY          1e-ENERGY        2e-ENERGY     RMS[dD(SAO)]   TOL
   8  -2402.6437864017    -20821.682074     9613.4709273    0.305D-08 0.431D-14
          max. resid. norm for Fia-block=  1.583D-07 for orbital    198a         
          max. resid. fock norm         =  1.626D-07 for orbital    198a         

 convergence criteria satisfied after     8 iterations


                  ------------------------------------------ 
                 |  total energy      =  -2402.64378640170  |
                  ------------------------------------------ 
                 :  kinetic energy    =   2398.44835130252  :
                 :  potential energy  =  -4801.09213770421  :
                 :  virial theorem    =      1.99825382559  :
                 :  wavefunction norm =      1.00000000000  :
                  .......................................... 


 orbitals $scfmo  will be written to file mos

    irrep                200a        201a        202a        203a        204a   
 eigenvalues H         -0.30579    -0.29803    -0.29454    -0.29008    -0.28509
            eV          -8.3210     -8.1099     -8.0149     -7.8935     -7.7576
 occupation              2.0000      2.0000      2.0000      2.0000      2.0000 

    irrep                205a        206a        207a        208a        209a   
 eigenvalues H          0.10913     0.10921     0.11710     0.12428     0.13469
            eV           2.9697      2.9717      3.1864      3.3819      3.6652
 
 
 
 
 ==============================================================================
                           electrostatic moments
 ==============================================================================

 reference point for electrostatic moments:    0.00000   0.00000   0.00000

 
              nuc           elec       ->  total
 ------------------------------------------------------------------------------
                          charge      
 ------------------------------------------------------------------------------
         408.000000    -408.000000      -0.000000
 
 ------------------------------------------------------------------------------
                       dipole moment  
 ------------------------------------------------------------------------------
   x      -1.678082       1.662481      -0.015601
   y      -0.225818       0.214757      -0.011062
   z      32.630570     -34.420343      -1.789773
 
   | dipole moment | =     1.7899 a.u. =     4.5494 debye 
 
 ------------------------------------------------------------------------------
                     quadrupole moment
 ------------------------------------------------------------------------------
  xx    8508.042772   -8758.428652    -250.385880
  yy    9786.797321  -10029.125493    -242.328172
  zz   11793.674007  -12052.667747    -258.993740
  xy    1722.593174   -1726.133924      -3.540750
  xz     126.121176    -126.494178      -0.373003
  yz      64.578768     -64.799779      -0.221011
 
     1/3  trace=    -250.569264
     anisotropy=      15.702108
 
 ==============================================================================
 

    dscf profiling
  --------------------------------------------------------------------
             module   cpu total (s)       %  wall total (s)       %

          dscf.total          2035.3  100.00          1748.5  100.00
        dscf.prepare            10.7    0.53            10.9    0.62
      prepare.oneint             0.2    0.01             0.2    0.01
     prepare.moinput             5.0    0.24             5.0    0.28
     moinput_orthmos             5.4    0.26             5.5    0.32
            dscf.scf          2023.4   99.42          1736.4   99.31
             scf.pre             0.0    0.00             0.1    0.00
        scf.makedmat             4.5    0.22             4.6    0.26
          scf.shloop          1515.4   74.45          1515.1   86.65
          shloop_omp          1514.6   74.42          1514.3   86.61
          scf.symcar             0.5    0.03             0.5    0.03
        scf.makefock             1.0    0.05             1.2    0.07
          scf.newerg             0.0    0.00             0.0    0.00
          scf.newcnv            84.1    4.13             4.4    0.25
           scf.fdiag           173.5    8.53             8.7    0.50
         diag_tritrn            51.9    2.55             2.6    0.15
          diag_rdiag           109.8    5.39             5.5    0.32
          scf.modump           195.1    9.58           167.1    9.56
           ortho_all            12.6    0.62             3.3    0.19
            scf.post            33.9    1.67            31.2    1.78
        dscf.postscf             1.2    0.06             1.2    0.07
 


    ------------------------------------------------------------------------
         total  cpu-time : 33 minutes and 56 seconds
         total wall-time : 29 minutes and  9 seconds
    ------------------------------------------------------------------------

   ****  dscf : all done  ****


    2018-02-15 02:04:59.639 

