
   OpenMP run-time library returned nthreads = 28
 operating system is UNIX !

 dscf (c-16-37) : TURBOMOLE V7.3 ( 22142 ) 4 Jul 2018 at 18:12:42
 Copyright (C) 2018 TURBOMOLE GmbH, Karlsruhe


    2019-04-01 22:32:30.041 



                             d s c f - program

                   idea & directorship : reinhart ahlrichs
                   program development : marco haeser
                                         michael baer
                           dft version : oliver treutler


                          quantum chemistry group
                          universitaet  karlsruhe
                                  germany




                          References             
                                                 
          TURBOMOLE:                             
              R. Ahlrichs, M. Baer, M. Haeser, H. Horn, and
              C. Koelmel
              Electronic structure calculations on workstation
              computers: the program system TURBOMOLE
              Chem. Phys. Lett. 162: 165 (1989)
          Density Functional:                              
              O. Treutler and R. Ahlrichs                      
              Efficient Molecular Numerical Integration Schemes
              J. Chem. Phys. 102: 346 (1995)                   
          Parallel Version:                                
              Performance of parallel TURBOMOLE for Density    
              Functional Calculations                          
              M. v. Arnim and R. Ahlrichs                      
              J. Comp. Chem. 19: 1746 (1998)                   
                                         




              +--------------------------------------------------+
              | Atomic coordinate, charge and isotop information |
              +--------------------------------------------------+

                    atomic coordinates            atom    charge  isotop
         -4.78725956   -0.55724068    1.34765584    c      6.000     0
         -4.84455260   -1.84641703   -0.25780143    h      1.000     0
         -4.85088607   -1.69296010    3.06462890    h      1.000     0
         -6.49012477    0.59707245    1.29277010    h      1.000     0
         -2.40351407    1.05381611    1.27434566    c      6.000     0
         -2.40189162    2.37456507    2.86164895    h      1.000     0
         -2.39358863    2.20700324   -0.43808865    h      1.000     0
         -0.00025519   -0.52613418    1.35985287    c      6.000     0
         -0.00030118   -1.67662080    3.07767806    h      1.000     0
         -0.00069055   -1.85328122   -0.22564160    h      1.000     0
          2.40353277    1.05329968    1.27379084    c      6.000     0
          2.40178854    2.37469281    2.86048867    h      1.000     0
          2.39359608    2.20565528   -0.43914765    h      1.000     0
          4.78743929   -0.55735915    1.34790414    c      6.000     0
          4.84510509   -1.84772527   -0.25658392    h      1.000     0
          6.48990451    0.59763405    1.29181575    h      1.000     0
          4.85198184   -1.69169959    3.06575684    h      1.000     0
          4.78772944    0.55750952    8.52852274    c      0.000     0
          4.85308465    1.69097991    6.81014649    h      0.000     0
          4.84537235    1.84858284   10.13241801    h      0.000     0
          6.48976928   -0.59805292    8.58560936    h      0.000     0
          2.40322350   -1.05232412    8.60279701    c      0.000     0
          2.39293637   -2.20454251   10.31582801    h      0.000     0
          2.40108714   -2.37391117    7.01621874    h      0.000     0
         -0.00008294    0.52767420    8.51659443    c      0.000     0
         -0.00037571    1.85484772   10.10204532    h      0.000     0
          0.00006237    1.67809491    6.79870179    h      0.000     0
         -2.40336263   -1.05240515    8.60214524    c      0.000     0
         -2.39319167   -2.20534492   10.31470974    h      0.000     0
         -2.40127195   -2.37336698    7.01503295    h      0.000     0
         -4.78766643    0.55772903    8.52848805    c      0.000     0
         -4.85228241    1.69257319    6.81095989    h      0.000     0
         -6.48993547   -0.59745745    8.58425988    h      0.000     0
         -4.84537779    1.84763008   10.13335949    h      0.000     0
 
       center of nuclear mass  :   -0.00001644    0.00043554    4.93820816
       center of nuclear charge:    0.00000000    0.06062404    1.32187667

              +--------------------------------------------------+
              |               basis set information              |
              +--------------------------------------------------+

              we will work with the 1s 3p 5d 7f 9g ... basis set
              ...i.e. with spherical basis functions...

   type   atoms  prim   cont   basis
   ---------------------------------------------------------------------------
    c       10     77     55   cc-pVQZ   [5s4p3d2f1g|21s6p3d2f1g]
    h       24     32     30   cc-pVQZ   [4s3p2d1f|6s3p2d1f]
   ---------------------------------------------------------------------------
   total:   34   1538   1270
   ---------------------------------------------------------------------------

   total number of primitive shells          :   45
   total number of contracted shells         :  390
   total number of cartesian basis functions : 1540
   total number of SCF-basis functions       : 1270


 integral neglect threshold       :  0.22E-13
 integral storage threshold THIZE :  0.10E-04
 integral storage threshold THIME :         5


 DENSITY CONVERGENCE CHECK SWITCHED ON !
 SCF CONVERGENCE IF RMS(delta[D]) <     0.1000000000E-06


 symmetry group of the molecule :   c1 

 the group has the following generators :
   c1(z)

    1 symmetry operations found

 there are 1 real representations :   a   

 maximum number of shells which are related by symmetry :  1


    mo occupation :
   irrep   mo's   occupied
    a     1270       21
 
 number of basis functions   :                   1270
 number of occupied orbitals :                     21
 

 automatic virtual orbital shift switched on 
      shift if e(lumo)-e(homo) < 0.10000000    


          ------------------------
          nuclear repulsion energy  :   185.636650021    
          ------------------------


         -----------------
         -S,T+V- integrals
         -----------------

 1e-integrals will be neglected if expon. factor < 0.217010E-14
 
   Difference densities algorithm switched on.
   The maximal number of linear combinations of
   difference densities is                    20 .

 DIIS switched on: error vector is FDS-SDF
 Max. Iterations for DIIS is     :   5
 DIIS matrix (see manual) 
    Scaling factor of diagonals  :  1.200
    threshold for scaling factor :  0.000

 scf convergence criterion : increment of total energy < .1000000D-08
                  and increment of one-electron energy < .1000000D-05

  MOs are in ASCII format !


 reading orbital data $scfmo  from file mos
 orbital characterization : scfconv=9

 DSCF restart information will be dumped onto file mos

 
                                              current damping :  0.700
 ITERATION  ENERGY          1e-ENERGY        2e-ENERGY     RMS[dD(SAO)]   TOL
   1  -196.36803311348    -631.73998885     249.73530572    0.000D+00 0.216D-13
          max. resid. norm for Fia-block=  1.023D-01 for orbital      5a         
          max. resid. fock norm         =  3.166D-01 for orbital   1227a         
          Delta Eig. =    22.4584572048 eV 
 
                                              current damping :  0.650
 ITERATION  ENERGY          1e-ENERGY        2e-ENERGY     RMS[dD(SAO)]   TOL
   2  -196.40586302690    -631.09669674     249.05418369    0.369D-03 0.141D-13
          Norm of current diis error: 0.61104    
          max. resid. norm for Fia-block=  4.875D-02 for orbital      5a         
          max. resid. fock norm         =  1.258D-01 for orbital   1234a         
          Delta Eig. =     9.7185715172 eV 
 
                                              current damping :  0.600
 ITERATION  ENERGY          1e-ENERGY        2e-ENERGY     RMS[dD(SAO)]   TOL
   3  -196.41387874371    -631.24986238     249.19933362    0.179D-03 0.105D-13
          Norm of current diis error: 0.27396    
          max. resid. norm for Fia-block=  2.002D-02 for orbital      5a         
          max. resid. fock norm         =  5.344D-02 for orbital   1237a         
          Delta Eig. =     3.8406853124 eV 
 
                                              current damping :  0.650
 ITERATION  ENERGY          1e-ENERGY        2e-ENERGY     RMS[dD(SAO)]   TOL
   4  -196.41557409212    -631.18800317     249.13577906    0.767D-04 0.919D-14
          Norm of current diis error: 0.11054    
          max. resid. norm for Fia-block=  7.588D-03 for orbital      3a         
          max. resid. fock norm         =  1.808D-02 for orbital   1206a         
          Delta Eig. =     1.3786318314 eV 
 
                                              current damping :  0.500
 ITERATION  ENERGY          1e-ENERGY        2e-ENERGY     RMS[dD(SAO)]   TOL
   5  -196.41585377870    -631.17753961     249.12503581    0.295D-04 0.846D-14
          Norm of current diis error: 0.47111E-01
          max. resid. norm for Fia-block=  2.973D-03 for orbital      5a         
          max. resid. fock norm         =  6.828D-03 for orbital   1177a         
 mo-orthogonalization: Cholesky decomposition
          Delta Eig. =     0.5979070328 eV 
 
                                              current damping :  0.350
 ITERATION  ENERGY          1e-ENERGY        2e-ENERGY     RMS[dD(SAO)]   TOL
   6  -196.41590917039    -631.17166276     249.11910357    0.133D-04 0.779D-14
          Norm of current diis error: 0.17568E-01
          max. resid. norm for Fia-block=  1.058D-03 for orbital     14a         
          max. resid. fock norm         =  2.488D-03 for orbital   1208a         
          Delta Eig. =     0.2215384077 eV 
 
                                              current damping :  0.200
 ITERATION  ENERGY          1e-ENERGY        2e-ENERGY     RMS[dD(SAO)]   TOL
   7  -196.41591772644    -631.16895493     249.11638718    0.525D-05 0.718D-14
          Norm of current diis error: 0.54644E-02
          max. resid. norm for Fia-block=  3.278D-04 for orbital     14a         
          max. resid. fock norm         =  6.416D-04 for orbital   1211a         
          Delta Eig. =     0.0647250682 eV 
 
                                              current damping :  0.050
 ITERATION  ENERGY          1e-ENERGY        2e-ENERGY     RMS[dD(SAO)]   TOL
   8  -196.41591867266    -631.16811059     249.11554190    0.174D-05 0.666D-14
          Norm of current diis error: 0.13400E-02
          max. resid. norm for Fia-block=  7.801D-05 for orbital     14a         
          max. resid. fock norm         =  1.098D-04 for orbital   1211a         
          Delta Eig. =     0.0122814368 eV 
 
                                              current damping :  0.050
 ITERATION  ENERGY          1e-ENERGY        2e-ENERGY     RMS[dD(SAO)]   TOL
   9  -196.41591874134    -631.16768373     249.11511497    0.475D-06 0.625D-14
          Norm of current diis error: 0.24494E-03
          max. resid. norm for Fia-block=  1.636D-05 for orbital     19a         
          max. resid. fock norm         =  1.663D-05 for orbital     19a         
          Delta Eig. =     0.0007857473 eV 
 
                                              current damping :  0.050
 ITERATION  ENERGY          1e-ENERGY        2e-ENERGY     RMS[dD(SAO)]   TOL
  10  -196.41591874410    -631.16765812     249.11508935    0.108D-06 0.602D-14
          Norm of current diis error: 0.54927E-04
          max. resid. norm for Fia-block=  4.272D-06 for orbital     19a         
          max. resid. fock norm         =  4.283D-06 for orbital     19a         
 mo-orthogonalization: Cholesky decomposition
          Delta Eig. =     0.0000639773 eV 

 DENSITY CONVERGED !

 
                                              current damping :  0.050
 ITERATION  ENERGY          1e-ENERGY        2e-ENERGY     RMS[dD(SAO)]   TOL
  11  -196.41591874425    -631.16761422     249.11504546    0.309D-07 0.618D-14
          Norm of current diis error: 0.12504E-04
          max. resid. norm for Fia-block=  9.040D-07 for orbital     19a         
          max. resid. fock norm         =  9.454D-07 for orbital     19a         
          Delta Eig. =     0.0000485256 eV 

 DENSITY CONVERGED !

 
                                              current damping :  0.100
 ITERATION  ENERGY          1e-ENERGY        2e-ENERGY     RMS[dD(SAO)]   TOL
  12  -196.41591874426    -631.16762578     249.11505702    0.695D-08 0.619D-14
          Norm of current diis error: 0.33580E-05
          max. resid. norm for Fia-block=  2.047D-07 for orbital     19a         
          max. resid. fock norm         =  2.431D-07 for orbital     19a         
          Delta Eig. =     0.0000175290 eV 

 ENERGY & DENSITY CONVERGED !

 
                                              current damping :  0.150
 ITERATION  ENERGY          1e-ENERGY        2e-ENERGY     RMS[dD(SAO)]   TOL
  13  -196.41591874426    -631.16762030     249.11505153    0.135D-08 0.617D-14
          max. resid. norm for Fia-block=  6.412D-08 for orbital     21a         
          max. resid. fock norm         =  7.147D-08 for orbital     21a         

 convergence criteria satisfied after    13 iterations


                  ------------------------------------------ 
                 |  total energy      =   -196.41591874426  |
                  ------------------------------------------ 
                 :  kinetic energy    =    196.31489304976  :
                 :  potential energy  =   -392.73081179402  :
                 :  virial theorem    =      1.99948565424  :
                 :  wavefunction norm =      1.00000000000  :
                  .......................................... 


 orbitals $scfmo  will be written to file mos

    irrep                 17a         18a         19a         20a         21a   
 eigenvalues H         -0.49463    -0.47607    -0.46188    -0.45928    -0.44691
            eV         -13.4597    -12.9546    -12.5685    -12.4978    -12.1610
 occupation              2.0000      2.0000      2.0000      2.0000      2.0000 

    irrep                 22a         23a         24a         25a         26a   
 eigenvalues H          0.05082     0.07889     0.10725     0.11331     0.12584
            eV           1.3830      2.1468      2.9184      3.0835      3.4243
 
 
 
 
 ==============================================================================
                           electrostatic moments
 ==============================================================================

 reference point for electrostatic moments:    0.00000   0.00000   0.00000

 
              nuc           elec       ->  total
 ------------------------------------------------------------------------------
                          charge      
 ------------------------------------------------------------------------------
          42.000000     -42.000000       0.000000
 
 ------------------------------------------------------------------------------
                       dipole moment  
 ------------------------------------------------------------------------------
   x       0.000000       0.000007       0.000007
   y       2.546210      -2.513208       0.033002
   z      55.518820     -55.520515      -0.001695
 
   | dipole moment | =     0.0330 a.u. =     0.0840 debye 
 
 ------------------------------------------------------------------------------
                     quadrupole moment
 ------------------------------------------------------------------------------
  xx     545.602050    -572.758389     -27.156339
  yy      59.231893     -85.821451     -26.589558
  zz     100.914703    -126.627006     -25.712302
  xy      -0.011476       0.011318      -0.000157
  xz       0.000363      -0.000431      -0.000067
  yz       1.831397      -1.743640       0.087757
 
     1/3  trace=     -26.486066
     anisotropy=       1.269304
 
 ==============================================================================
 


    ------------------------------------------------------------------------
         total  cpu-time : 12 hours 26 minutes and 11 seconds
         total wall-time : 28 minutes and 11 seconds
    ------------------------------------------------------------------------

   ****  dscf : all done  ****


    2019-04-01 23:00:40.961 

