
 eiger (gplogin1.local) : TURBOMOLE V7.2 ( 21285 ) 30 Jun 2017 at 11:51:10
 Copyright (C) 2017 TURBOMOLE GmbH, Karlsruhe


    2017-11-03 13:11:34.293 

                                                                                
  
Total energy =  -1188.1017355470 H =    -32329.9115667 eV
 
 HOMO-LUMO Separation
   HOMO:    80.    80 a     -0.25445969 H =     -6.92420 eV
   LUMO:    81.    81 a     -0.17582912 H =     -4.78456 eV
   Gap :                    +0.07863057 H =     +2.13965 eV
 
Number of MOs=    760, Electrons=    160.00, Symmetry: c1   
 
   Nr.   Orbital    Occupation       Energy
   97.    97 a                     +0.081584 H =        +2.220 eV
   96.    96 a                     +0.074263 H =        +2.021 eV
   95.    95 a                     +0.065122 H =        +1.772 eV
   94.    94 a                     +0.064060 H =        +1.743 eV
   93.    93 a                     +0.060089 H =        +1.635 eV
   92.    92 a                     +0.048721 H =        +1.326 eV
   91.    91 a                     +0.039923 H =        +1.086 eV
   90.    90 a                     +0.013403 H =        +0.365 eV
   89.    89 a                     +0.009182 H =        +0.250 eV
   88.    88 a                     -0.022859 H =        -0.622 eV
   87.    87 a                     -0.046600 H =        -1.268 eV
   86.    86 a                     -0.087884 H =        -2.391 eV
   85.    85 a                     -0.093127 H =        -2.534 eV
   84.    84 a                     -0.139434 H =        -3.794 eV
   83.    83 a                     -0.145748 H =        -3.966 eV
   82.    82 a                     -0.161469 H =        -4.394 eV
   81.    81 a                     -0.175829 H =        -4.785 eV
   80.    80 a        2.000        -0.254460 H =        -6.924 eV
   79.    79 a        2.000        -0.265727 H =        -7.231 eV
   78.    78 a        2.000        -0.271186 H =        -7.379 eV
   77.    77 a        2.000        -0.272519 H =        -7.416 eV
   76.    76 a        2.000        -0.277815 H =        -7.560 eV
   75.    75 a        2.000        -0.283955 H =        -7.727 eV
   74.    74 a        2.000        -0.288159 H =        -7.841 eV
   73.    73 a        2.000        -0.289504 H =        -7.878 eV
   72.    72 a        2.000        -0.300339 H =        -8.173 eV
   71.    71 a        2.000        -0.301504 H =        -8.204 eV
   70.    70 a        2.000        -0.303973 H =        -8.272 eV
   69.    69 a        2.000        -0.312247 H =        -8.497 eV
   68.    68 a        2.000        -0.315624 H =        -8.589 eV
   67.    67 a        2.000        -0.328997 H =        -8.952 eV
   66.    66 a        2.000        -0.363107 H =        -9.881 eV
   65.    65 a        2.000        -0.381199 H =       -10.373 eV


    ------------------------------------------------------------------------
         total  cpu-time :   0.43 seconds
         total wall-time :   0.51 seconds
    ------------------------------------------------------------------------

   ****  eiger : all done  ****


    2017-11-03 13:11:34.793 

