
   OpenMP run-time library returned nthreads = 28

 ricc2 (c-16-41) : TURBOMOLE V7.3 ( 22142 ) 4 Jul 2018 at 18:12:42
 Copyright (C) 2018 TURBOMOLE GmbH, Karlsruhe


    2019-04-01 21:59:13.771 



                              R I C C 2 - PROGRAM

                          the quantum chemistry groups
                             at the universities in
                           Karlsruhe, Bochum & Mainz
                                   Germany



   *-----------------------------------------------------------------------*
   |                     program will use 28 thread(s)                     |
   *-----------------------------------------------------------------------*


              +--------------------------------------------------+
              | Atomic coordinate, charge and isotop information |
              +--------------------------------------------------+

                    atomic coordinates            atom    charge  isotop
         -1.18608996    0.16528918    0.00278033    o      8.000     0
          0.64931374    0.23111980   -0.00113468    h      1.000     0
         -1.84802220   -2.41612070    0.00234025    c      6.000     0
         -3.89924596   -2.53609434    0.00946560    h      1.000     0
         -1.16196177   -3.41355562   -1.67313320    h      1.000     0
         -1.15016353   -3.41707238    1.67084432    h      1.000     0
          4.29409396    0.03105255   -0.00307428    n      0.000     0
          5.61003950   -0.01512353   -2.16628083    c      0.000     0
          4.50553502    0.02876259   -3.88777492    h      0.000     0
          8.23607297   -0.10912392   -2.25828262    c      0.000     0
          9.19482996   -0.14180113   -4.06067076    h      0.000     0
          9.57848383   -0.15771373    0.00109856    c      0.000     0
         11.62002300   -0.22907877    0.00270350    h      0.000     0
          8.23253120   -0.11043069    2.25845174    c      0.000     0
          9.18835229   -0.14411379    4.06216829    h      0.000     0
          5.60665537   -0.01641741    2.16216247    c      0.000     0
          4.49926492    0.02643105    3.88203754    h      0.000     0
 
       center of nuclear mass  :    4.50103108   -0.36459726   -0.00000150
       center of nuclear charge:   -1.45216169   -1.23944518    0.00235145

              +--------------------------------------------------+
              |               basis set information              |
              +--------------------------------------------------+

              we will work with the 1s 3p 5d 7f 9g ... basis set
              ...i.e. with spherical basis functions...

   type   atoms  prim   cont   basis
   ---------------------------------------------------------------------------
    o        1     77     55   cc-pVQZ   [5s4p3d2f1g|21s6p3d2f1g]
    h        9     32     30   cc-pVQZ   [4s3p2d1f|6s3p2d1f]
    c        6     77     55   cc-pVQZ   [5s4p3d2f1g|21s6p3d2f1g]
    n        1     77     55   cc-pVQZ   [5s4p3d2f1g|21s6p3d2f1g]
   ---------------------------------------------------------------------------
   total:   17    904    710
   ---------------------------------------------------------------------------

   total number of primitive shells          :  111
   total number of contracted shells         :  210
   total number of cartesian basis functions :  875
   total number of SCF-basis functions       :  710


 symmetry group of the molecule :   c1 

 the group has the following generators :
   c1(z)

    1 symmetry operations found

 there are 1 real representations :   a   


   =========================================================================


     restricted closed shell calculation for the wavefunction models:
               MP2        - Second Order Moeller Plesset PT


     global parameters for ricc2 program:

        hard restart (reuse of interm.) :  disabled
        soft restart (reuse of vectors) :  disabled
        threshold for vector function   :    0.100000E-05
        convergence threshold energy    :    0.100000E-06
        linear dependence threshold     :    0.100000E-13
        global print level              :      1
        maximum number of iterations    :   300
        maximum number DIIS vectors     :    10
        max. dim. of reduced space      :   100
        core memory limit (MB)          : *****


     MP2 energy only: Energy will be calculated directly from T2 amplitudes!

     Scratch Directory : 


   =========================================================================

    der. integral neglect threshold  :  0.10E-07
    integral neglect threshold       :  0.38E-11
    integral storage threshold THIZE :  0.10E-04
    integral storage threshold THIME :         5


                  +------------------------------------------+
                  |     Auxiliary basis set information      |
                  +------------------------------------------+

              we will work with the 1s 3p 5d 7f 9g ... basis set
              ...i.e. with spherical basis functions...

   type   atoms  prim   cont   basis
   ---------------------------------------------------------------------------
    o        1    132    132   cc-pVQZ   [8s7p6d5f3g1h|8s7p6d5f3g1h]
    h        9     55     55   cc-pVQZ   [5s4p3d2f1g|5s4p3d2f1g]
    c        6    132    132   cc-pVQZ   [8s7p6d5f3g1h|8s7p6d5f3g1h]
    n        1    132    132   cc-pVQZ   [8s7p6d5f3g1h|8s7p6d5f3g1h]
   ---------------------------------------------------------------------------
   total:   17   1551   1551
   ---------------------------------------------------------------------------

   total number of primitive shells          :  105
   total number of contracted shells         :  375
   total number of cartesian basis functions : 2078
   total number of SCF-basis functions       : 1551


 maximum number of shells which are related by symmetry :  1


 The symmetry information takes   1 MB

*---------------------------------------------------------------------*
|               simplified C1 algorithm will be applied               |
*---------------------------------------------------------------------*
  MOs are in ASCII format !


 reading orbital data $scfmo  from file mos
 orbital characterization : scfconv=9



              +--------------------------------------------+
              | list of orbitals that will be kept frozen: |
              +--------------------------------------------+
              |   irrep   index      energy     occ/vir    |
              +--------------------------------------------+
              |   a         1      -20.5580     occupied   |
              |   a         2      -11.2688     occupied   |
              +--------------------------------------------+



   Molecular Orbital Statistic:
   ============================

   -----------------------------
   orbitals in total:
   -----------------------------
    frozen occupied :      2
    active occupied :      7
    active virtual  :    701
    frozen virtual  :      0
    all together    :    710
   -----------------------------


     time in riccmos       cpu:  9.07 sec    wall:  0.87 sec    ratio: 10.4

     total memory allocated for calculation of (Q|P)**(-1/2) : 28 MiB


     calculation of (P|Q) ...
     time in lp2sym        cpu:  2.82 sec    wall:  0.10 sec    ratio: 27.7


     calculation of the Cholesky decomposition of (P|Q)**(-1) ...
     time in invmetri      cpu: 11.44 sec    wall:  0.43 sec    ratio: 26.5

   threshold for RMS(d[D]) in SCF was     :  0.10E-06
   integral neglect threshold             :  0.38E-11
   derivative integral neglect threshold  :  0.10E-07


   =========================================================================

     Energy of reference wave function is  -115.0983030289000
     Maximum orbital residual is           0.2536161697696E-06


     Number of symmetry-nonredundant auxiliary basis functions:     1551

     Block lengths for integral files:
        frozen occupied (BOI):        1 MiB
        active occupied (BJI):        1 MiB
        active virtual  (BAI):        9 MiB
        frozen virtual  (BGI):        0 MiB
               general  (BTI):        9 MiB

   =========================================================================




   **************************************************************************
   *                                                                        *
   *          OPTIMIZATION OF THE GROUND STATE CLUSTER AMPLITUDES           *
   *                                                                        *
   **************************************************************************


   Iter.   MP2 energy       Norm(Omega)   Norm(t1)  Norm(t2)     cpu    wall
   ...........................................................................
    1   -115.5586145318     ------          0.00000   0.20748    0.53    0.02
   ...........................................................................


     time in total         cpu: 31.98 sec    wall:  1.16 sec    ratio: 27.5


     **********************************************************************
     *                                                                    *
     *   RHF  energy                             :   -115.0983030289      *
     *   MP2 correlation energy (doubles)        :     -0.4603115029      *
     *                                                                    *
     *   Final MP2 energy                        :   -115.5586145318      *
     *                                                                    *
     *    E(S)   =     -0.3061307293      E(T)   =     -0.1541807736      *
     *    E(OS)  =     -0.3575243205      E(SS)  =     -0.1027871824      *
     *                                                                    *
     *   SCS-MP2 energy                          :   -115.5615946076      *
     *   (computed with  C(OS) =   1.2000  and  C(SS) =   0.3333)         *
     *                                                                    *
     *   SOS-MP2 energy                          :   -115.5630846455      *
     *   (computed with  C(OS) =   1.3000)                                *
     *                                                                    *
     *   Norm of MP1 T2 amplitudes               :      0.2074771218      *
     *                                                                    *
     **********************************************************************



    ------------------------------------------------------------------------
         total  cpu-time :  2 minutes and  8 seconds
         total wall-time :   5.94 seconds
    ------------------------------------------------------------------------

   ****  ricc2 : all done  ****


    2019-04-01 21:59:19.661 

