
   OpenMP run-time library returned nthreads =  8
 operating system is UNIX !

 dscf (c-13-222) : TURBOMOLE V7.3 ( 22142 ) 4 Jul 2018 at 18:12:42
 Copyright (C) 2018 TURBOMOLE GmbH, Karlsruhe


    2019-04-02 15:06:46.649 



                             d s c f - program

                   idea & directorship : reinhart ahlrichs
                   program development : marco haeser
                                         michael baer
                           dft version : oliver treutler


                          quantum chemistry group
                          universitaet  karlsruhe
                                  germany




                          References             
                                                 
          TURBOMOLE:                             
              R. Ahlrichs, M. Baer, M. Haeser, H. Horn, and
              C. Koelmel
              Electronic structure calculations on workstation
              computers: the program system TURBOMOLE
              Chem. Phys. Lett. 162: 165 (1989)
          Density Functional:                              
              O. Treutler and R. Ahlrichs                      
              Efficient Molecular Numerical Integration Schemes
              J. Chem. Phys. 102: 346 (1995)                   
          Parallel Version:                                
              Performance of parallel TURBOMOLE for Density    
              Functional Calculations                          
              M. v. Arnim and R. Ahlrichs                      
              J. Comp. Chem. 19: 1746 (1998)                   
                                         




              +--------------------------------------------------+
              | Atomic coordinate, charge and isotop information |
              +--------------------------------------------------+

                    atomic coordinates            atom    charge  isotop
         -4.29977887   -0.25525464    1.57099334    c      6.000     0
         -4.70677445   -1.37558208   -0.10878464    h      1.000     0
         -4.20714230   -1.54663957    3.17251646    h      1.000     0
         -5.88087622    1.02979382    1.86591573    h      1.000     0
         -1.81734608    1.17026561    1.26498116    c      6.000     0
         -1.49042549    2.36297367    2.91906499    h      1.000     0
         -1.93919326    2.44803672   -0.35235528    h      1.000     0
          0.42802708   -0.59471630    0.90704170    c      6.000     0
          0.58476515   -1.84274587    2.54742251    h      1.000     0
          0.07398384   -1.82547309   -0.71580905    h      1.000     0
          2.91585059    0.79590450    0.50833539    c      6.000     0
          3.23452825    2.09338526    2.08332203    h      1.000     0
          2.77051739    1.97238901   -1.18163362    h      1.000     0
          5.15437226   -0.99562283    0.25976045    c      6.000     0
          4.89201256   -2.27374477   -1.33368809    h      1.000     0
          6.91923413    0.02209673   -0.03017633    h      1.000     0
          5.35774033   -2.14939329    1.95411878    h      1.000     0
 
       center of nuclear mass  :    0.47473954    0.00491620    0.90212804
       center of nuclear charge:    0.47369333   -0.00860584    0.90206157

              +--------------------------------------------------+
              |               basis set information              |
              +--------------------------------------------------+

              we will work with the 1s 3p 5d 7f 9g ... basis set
              ...i.e. with spherical basis functions...

   type   atoms  prim   cont   basis
   ---------------------------------------------------------------------------
    c        5     77     57   def2-QZVP   [7s4p3d2f1g|15s8p3d2f1g]
    h       12     33     30   def2-QZVP   [4s3p2d1f|7s3p2d1f]
   ---------------------------------------------------------------------------
   total:   17    781    645
   ---------------------------------------------------------------------------

   total number of primitive shells          :   42
   total number of contracted shells         :  205
   total number of cartesian basis functions :  780
   total number of SCF-basis functions       :  645


 integral neglect threshold       :  0.43E-13
 integral storage threshold THIZE :  0.10E-04
 integral storage threshold THIME :         5


 DENSITY CONVERGENCE CHECK SWITCHED ON !
 SCF CONVERGENCE IF RMS(delta[D]) <     0.1000000000E-06


 symmetry group of the molecule :   c1 

 the group has the following generators :
   c1(z)

    1 symmetry operations found

 there are 1 real representations :   a   

 maximum number of shells which are related by symmetry :  1


    mo occupation :
   irrep   mo's   occupied
    a      645       21
 
 number of basis functions   :                    645
 number of occupied orbitals :                     21
 

 automatic virtual orbital shift switched on 
      shift if e(lumo)-e(homo) < 0.10000000    


          ------------------------
          nuclear repulsion energy  :   185.624925999    
          ------------------------


         -----------------
         -S,T+V- integrals
         -----------------

 1e-integrals will be neglected if expon. factor < 0.428457E-14
 
   Difference densities algorithm switched on.
   The maximal number of linear combinations of
   difference densities is                    20 .

 DIIS switched on: error vector is FDS-SDF
 Max. Iterations for DIIS is     :   5
 DIIS matrix (see manual) 
    Scaling factor of diagonals  :  1.200
    threshold for scaling factor :  0.000

 scf convergence criterion : increment of total energy < .1000000D-08
                  and increment of one-electron energy < .1000000D-05

  MOs are in ASCII format !


 reading orbital data $scfmo  from file mos
 orbital characterization : scfconv=9

 DSCF restart information will be dumped onto file mos

 
                                              current damping :  0.700
 ITERATION  ENERGY          1e-ENERGY        2e-ENERGY     RMS[dD(SAO)]   TOL
   1  -196.36853179315    -631.70045404     249.70699625    0.000D+00 0.427D-13
          max. resid. norm for Fia-block=  1.976D-01 for orbital      3a         
          max. resid. fock norm         =  6.274D-01 for orbital    640a         
          Delta Eig. =    46.9579675131 eV 
 
                                              current damping :  0.650
 ITERATION  ENERGY          1e-ENERGY        2e-ENERGY     RMS[dD(SAO)]   TOL
   2  -196.40749087528    -631.06981022     249.03739335    0.522D-03 0.279D-13
          Norm of current diis error: 0.69770    
          max. resid. norm for Fia-block=  8.797D-02 for orbital      4a         
          max. resid. fock norm         =  2.523D-01 for orbital    637a         
          Delta Eig. =    19.1475716144 eV 
 
                                              current damping :  0.600
 ITERATION  ENERGY          1e-ENERGY        2e-ENERGY     RMS[dD(SAO)]   TOL
   3  -196.41579372847    -631.23126978     249.19055005    0.246D-03 0.209D-13
          Norm of current diis error: 0.30473    
          max. resid. norm for Fia-block=  3.576D-02 for orbital      3a         
          max. resid. fock norm         =  1.011D-01 for orbital    640a         
          Delta Eig. =     8.1061226041 eV 
 
                                              current damping :  0.650
 ITERATION  ENERGY          1e-ENERGY        2e-ENERGY     RMS[dD(SAO)]   TOL
   4  -196.41752267567    -631.16688691     249.12443823    0.103D-03 0.183D-13
          Norm of current diis error: 0.12205    
          max. resid. norm for Fia-block=  1.353D-02 for orbital      3a         
          max. resid. fock norm         =  3.783D-02 for orbital    640a         
          Delta Eig. =     2.9176533228 eV 
 
                                              current damping :  0.500
 ITERATION  ENERGY          1e-ENERGY        2e-ENERGY     RMS[dD(SAO)]   TOL
   5  -196.41780815055    -631.15762458     249.11489043    0.390D-04 0.168D-13
          Norm of current diis error: 0.51723E-01
          max. resid. norm for Fia-block=  5.319D-03 for orbital      3a         
          max. resid. fock norm         =  1.492D-02 for orbital    637a         
 mo-orthogonalization: Cholesky decomposition
          Delta Eig. =     1.2672000153 eV 
 
                                              current damping :  0.350
 ITERATION  ENERGY          1e-ENERGY        2e-ENERGY     RMS[dD(SAO)]   TOL
   6  -196.41786528889    -631.15201612     249.10922483    0.175D-04 0.154D-13
          Norm of current diis error: 0.19232E-01
          max. resid. norm for Fia-block=  1.761D-03 for orbital      3a         
          max. resid. fock norm         =  4.977D-03 for orbital    637a         
          Delta Eig. =     0.4695155185 eV 
 
                                              current damping :  0.200
 ITERATION  ENERGY          1e-ENERGY        2e-ENERGY     RMS[dD(SAO)]   TOL
   7  -196.41787431131    -631.14939366     249.10659335    0.703D-05 0.141D-13
          Norm of current diis error: 0.59997E-02
          max. resid. norm for Fia-block=  4.508D-04 for orbital      5a         
          max. resid. fock norm         =  1.287D-03 for orbital    637a         
          Delta Eig. =     0.1360521823 eV 
 
                                              current damping :  0.050
 ITERATION  ENERGY          1e-ENERGY        2e-ENERGY     RMS[dD(SAO)]   TOL
   8  -196.41787534891    -631.14858285     249.10578151    0.252D-05 0.131D-13
          Norm of current diis error: 0.14860E-02
          max. resid. norm for Fia-block=  8.249D-05 for orbital     14a         
          max. resid. fock norm         =  2.152D-04 for orbital    637a         
          Delta Eig. =     0.0260448241 eV 
 
                                              current damping :  0.050
 ITERATION  ENERGY          1e-ENERGY        2e-ENERGY     RMS[dD(SAO)]   TOL
   9  -196.41787542864    -631.14816352     249.10536209    0.854D-06 0.123D-13
          Norm of current diis error: 0.27453E-03
          max. resid. norm for Fia-block=  1.755D-05 for orbital     19a         
          max. resid. fock norm         =  1.784D-05 for orbital     19a         
          Delta Eig. =     0.0010216164 eV 
 
                                              current damping :  0.050
 ITERATION  ENERGY          1e-ENERGY        2e-ENERGY     RMS[dD(SAO)]   TOL
  10  -196.41787543200    -631.14813449     249.10533306    0.240D-06 0.118D-13
          Norm of current diis error: 0.59092E-04
          max. resid. norm for Fia-block=  4.492D-06 for orbital     19a         
          max. resid. fock norm         =  4.501D-06 for orbital     19a         
 mo-orthogonalization: Cholesky decomposition
          Delta Eig. =     0.0001020783 eV 

 DENSITY CONVERGED !

 
                                              current damping :  0.050
 ITERATION  ENERGY          1e-ENERGY        2e-ENERGY     RMS[dD(SAO)]   TOL
  11  -196.41787543219    -631.14809072     249.10528929    0.688D-07 0.115D-13
          Norm of current diis error: 0.13292E-04
          max. resid. norm for Fia-block=  9.712D-07 for orbital     19a         
          max. resid. fock norm         =  1.010D-06 for orbital     19a         
          Delta Eig. =     0.0000471847 eV 

 DENSITY CONVERGED !

 
                                              current damping :  0.100
 ITERATION  ENERGY          1e-ENERGY        2e-ENERGY     RMS[dD(SAO)]   TOL
  12  -196.41787543219    -631.14810165     249.10530022    0.155D-07 0.113D-13
          Norm of current diis error: 0.34109E-05
          max. resid. norm for Fia-block=  2.135D-07 for orbital     19a         
          max. resid. fock norm         =  2.493D-07 for orbital     19a         
          Delta Eig. =     0.0000174271 eV 

 ENERGY & DENSITY CONVERGED !

 
                                              current damping :  0.150
 ITERATION  ENERGY          1e-ENERGY        2e-ENERGY     RMS[dD(SAO)]   TOL
  13  -196.41787543219    -631.14809599     249.10529456    0.295D-08 0.122D-13
          max. resid. norm for Fia-block=  6.733D-08 for orbital     21a         
          max. resid. fock norm         =  7.591D-08 for orbital     21a         

 convergence criteria satisfied after    13 iterations


                  ------------------------------------------ 
                 |  total energy      =   -196.41787543219  |
                  ------------------------------------------ 
                 :  kinetic energy    =    196.30930330052  :
                 :  potential energy  =   -392.72717873271  :
                 :  virial theorem    =      1.99944723905  :
                 :  wavefunction norm =      1.00000000000  :
                  .......................................... 


 orbitals $scfmo  will be written to file mos

    irrep                 17a         18a         19a         20a         21a   
 eigenvalues H         -0.49483    -0.47586    -0.46248    -0.45903    -0.44669
            eV         -13.4651    -12.9490    -12.5848    -12.4910    -12.1552
 occupation              2.0000      2.0000      2.0000      2.0000      2.0000 

    irrep                 22a         23a         24a         25a         26a   
 eigenvalues H          0.11140     0.11554     0.12234     0.13011     0.14661
            eV           3.0313      3.1441      3.3292      3.5404      3.9896
 
 
 
 
 ==============================================================================
                           electrostatic moments
 ==============================================================================

 reference point for electrostatic moments:    0.00000   0.00000   0.00000

 
              nuc           elec       ->  total
 ------------------------------------------------------------------------------
                          charge      
 ------------------------------------------------------------------------------
          42.000000     -42.000000       0.000000
 
 ------------------------------------------------------------------------------
                       dipole moment  
 ------------------------------------------------------------------------------
   x      19.895120     -19.892696       0.002424
   y      -0.361445       0.394316       0.032870
   z      37.886586     -37.888889      -0.002303
 
   | dipole moment | =     0.0330 a.u. =     0.0840 debye 
 
 ------------------------------------------------------------------------------
                     quadrupole moment
 ------------------------------------------------------------------------------
  xx     541.681391    -568.814393     -27.133002
  yy      62.190820     -88.772035     -26.581215
  zz      71.840693     -97.593240     -25.752547
  xy     -37.376014      37.435159       0.059144
  xz     -53.904601      54.098260       0.193659
  yz       4.789475      -4.774544       0.014931
 
     1/3  trace=     -26.488921
     anisotropy=       1.253827
 
 ==============================================================================
 


    ------------------------------------------------------------------------
         total  cpu-time :  1 hours 28 minutes and 13 seconds
         total wall-time : 11 minutes and 12 seconds
    ------------------------------------------------------------------------

   ****  dscf : all done  ****


    2019-04-02 15:17:58.741 

