STARTING ridft ON 32 PROCESSORS!
RUNNING PROGRAM /sopt/TURBOMOLE/7.3-official/bin/em64t-unknown-linux-gnu_smp/ridft_mpi.
           SMPCPUS    set: Shared-memory Parallelization with  32 CPUs.

           SMP Parallelization Reference:
           C. van Wullen, J. Comput. Chem. 32 (2011) 1195--1201
 operating system is UNIX !

 ridft (c-15-42) : TURBOMOLE V7.3 ( 22118 ) 1 Jul 2018 at 20:38:15
 Copyright (C) 2018 TURBOMOLE GmbH, Karlsruhe


    2019-03-12 22:22:26.075 



                                  r i d f t

                        DFT program with RI approximation 
                                for coulomb part 




                                                 
                                 References:     
                                                 
          TURBOMOLE:                             
              R. Ahlrichs, M. Baer, M. Haeser, H. Horn, and
              C. Koelmel
              Electronic structure calculations on workstation
              computers: the program system TURBOMOLE
              Chem. Phys. Lett. 162: 165 (1989)
          Density Functional:                              
              O. Treutler and R. Ahlrichs                      
              Efficient Molecular Numerical Integration Schemes
              J. Chem. Phys. 102: 346 (1995)                   
          Parallel Version:                                
              Performance of parallel TURBOMOLE for Density    
              Functional Calculations                          
              M. v. Arnim and R. Ahlrichs                      
              J. Comp. Chem. 19: 1746 (1998)                   
          RI-J Method:                                     
              Auxiliary Basis Sets to approximate Coulomb      
              Potentials                                       
              Chem. Phys. Lett. 240: 283 (1995)                
              K. Eichkorn, O. Treutler, H. Oehm, M. Haeser     
              and R. Ahlrichs                                  
              Chem. Phys. Lett. 242: 652 (1995)                
                                                           
              Auxiliary Basis Sets for Main Row Atoms and their
              Use to approximate Coulomb Potentials            
              K. Eichkorn, F. Weigend, O. Treutler and         
              R. Ahlrichs                                      
              Theo. Chem. Acc. 97: 119 (1997)                   
                                                           
              Accurate Coulomb-fitting basis sets for H to Rn 
              F. Weigend                                        
              Phys. Chem. Chem. Phys. 8: 1057 (2006)            
                                                           
          Multipole accelerated RI-J (MARI-J):             
              Fast evaluation of the Coulomb potential for     
              electron densities using multipole accelerated   
              resolution of identity approximation             
              M. Sierka, A. Hogekamp and R. Ahlrichs           
              J. Chem. Phys. 118: 9136 (2003)                  
          RI-JK Method:                                     
              A fully direct RI-HF algorithm: Implementation,
              optimised auxiliary basis sets, demonstration of
              accuracy and efficiency                         
              F. Weigend                                      
              Phys. Chem. Chem. Phys. 4: 4285 (2002)           
          Two-component HF and DFT with spin-orbit coupling:  
              Self-consistent treatment of spin-orbit         
              interactions with efficient Hartree-Fock and    
              density functional methods                      
              M. K. Armbruster, F. Weigend, C. van Wüllen and 
              W. Klopper                                      
              Phys. Chem. Chem. Phys. 10: 1748 (2008)         
          Two-component difference density and DIIS algorithm 
              Efficient two-component self-consistent field   
              procedures and gradients: implementation in     
              TURBOMOLE and application to Au20-              
              A. Baldes, F. Weigend                           
              Mol. Phys. 111: 2617 (2013)                     
          Relativistic all-electron 2c calculations           
              An efficient implementation of two-component    
              relativistic exact-decoupling methods for large 
              molecules                                       
              D. Peng, N. Middendorf, F. Weigend, M. Reiher   
              J. Chem. Phys. 138: 184105 (2013)               
          Finite nucleus model and SNSO approximation         
              Efficient implementation of one- and two-       
              component analytical energy gradients in exact  
              two-component theory                            
              Y. J. Franzke, N. Middendorf, F. Weigend        
              J. Chem. Phys. 148: 104110 (2018)               
                                         




              +--------------------------------------------------+
              |      general information about current run       |
              +--------------------------------------------------+

 
 PBE functional
 exchange:    LDA + PBE
 correlation: LDA (PW) + PBE
 A DFT calculation using the RI-J approximation will be carried out.
 Allocatable memory for RI due to $ricore (MB):                  8000


              +--------------------------------------------------+
              | Atomic coordinate, charge and isotop information |
              +--------------------------------------------------+

                    atomic coordinates            atom    charge  isotop
          0.58950673    1.06018046    0.93862482    c      6.000     0
          1.40243394    2.93544219    0.91002730    h      1.000     0
          2.15841183   -1.05460817    1.01301008    c      6.000     0
          4.18859936   -0.82061384    1.04379050    h      1.000     0
          1.11078885   -3.47083551    1.04718106    c      6.000     0
          2.32797704   -5.11140972    1.10590890    h      1.000     0
         -1.50546492   -3.77260317    1.00715411    c      6.000     0
         -2.31826769   -5.64734124    1.03677384    h      1.000     0
         -3.07438216   -1.65818489    0.93384272    c      6.000     0
         -5.10438105   -1.89227720    0.90671891    h      1.000     0
         -2.02704355    0.75816928    0.89946045    c      6.000     0
         -3.24460982    2.39882056    0.84266658    h      1.000     0
 
       center of nuclear mass  :   -0.45803137   -1.35630718    0.97329754
       center of nuclear charge:   -0.45803208   -1.35630170    0.97336965

              +--------------------------------------------------+
              |               basis set information              |
              +--------------------------------------------------+

              we will work with the 1s 3p 5d 7f 9g ... basis set
              ...i.e. with spherical basis functions...

   type   atoms  prim   cont   basis
   ---------------------------------------------------------------------------
    c        6     68     48   def2-QZVP   [7s4p3d2f|15s8p3d2f]
    h        6     26     23   def2-QZVP   [4s3p2d|7s3p2d]
   ---------------------------------------------------------------------------
   total:   12    564    426
   ---------------------------------------------------------------------------

   total number of primitive shells          :   40
   total number of contracted shells         :  150
   total number of cartesian basis functions :  492
   total number of SCF-basis functions       :  426


 integral neglect threshold       :  0.68E-11
 integral storage threshold THIZE :  0.10E-04
 integral storage threshold THIME :         5

 RI-J AUXILIARY BASIS SET information:

              we will work with the 1s 3p 5d 7f 9g ... basis set
              ...i.e. with spherical basis functions...

   type   atoms  prim   cont   basis
   ---------------------------------------------------------------------------
    c        6     70     49   def2-QZVP   [6s4p3d1f1g|12s5p4d2f1g]
    h        6     16     11   def2-QZVP   [3s1p1d|5s2p1d]
   ---------------------------------------------------------------------------
   total:   12    516    360
   ---------------------------------------------------------------------------

   total number of primitive shells          :   32
   total number of contracted shells         :  120
   total number of cartesian basis functions :  438
   total number of SCF-basis functions       :  360


 symmetry group of the molecule :   c1 

 the group has the following generators :
   c1(z)

    1 symmetry operations found

 there are 1 real representations :   a   

 maximum number of shells which are related by symmetry :  1


    mo occupation :
   irrep   mo's   occupied
    a      426       21
 
 number of basis functions   :                    426
 number of occupied orbitals :                     21
 
  
           ------------------
           density functional
           ------------------
 PBE functional
 exchange:    LDA + PBE
 correlation: LDA (PW) + PBE

 iterations will be done with small grid
  
 spherical integration : Lebedev's spherical grid
 spherical gridsize    :                     4
    i.e. gridpoints    :                   434
 value for diffuse not defined
 radial integration    : Chebyshev 2nd kind (scaling 3)
 radial gridsize       :                     6
 integration cells     :                    12
 partition function    : becke
 partition sharpness   :                     3
  

 biggest AO integral is expected to be     5.262544080
  
           ------------------------
               RI-J - INFORMATION
           ------------------------
 Contributions to RI integral batches: 
  neglected integral batches:                  1211
  direct contribution:                            0
  memory contribution:                 10114
 Memory core needed for (P|Q) and Cholesky      1 MByte
 Memory core minimum needed except of (P|Q)     1 MByte
 Total minimum memory core needed (sum)         2 MByte
  
 ****************************************
 Memory allocated for RI-J   378 MByte
 ****************************************
                                            

          ------------------------
          nuclear repulsion energy  :   203.685388007    
          ------------------------

  _________________________________
 |                                 |
 |         DFTD3 V3.1 Rev 0        |
 | S.Grimme, University Bonn       |
 |            June  2014           |
 |   see standalone version        |
 |       dftd3 -h for options      |
 |_________________________________|
 
 Please cite DFT-D3 work done with this code as:
 S. Grimme, J. Antony, S. Ehrlich and H. Krieg,
 J. Chem. Phys, 132 (2010), 154104.
 If used with BJ-damping cite also
 S. Grimme, S. Ehrlich and L. Goerigk,
 J. Comput. Chem. 32 (2011), 1456-1465
 For DFT-D2 the reference is
 S. Grimme, J. Comput. Chem., 27 (2006), 1787-1799
 
C6 coefficients used:
                     2  C6 for element                      1
Z=  1 CN= 0.912     C6(AA)=    3.03
Z=  1 CN= 0.000     C6(AA)=    7.59
                     5  C6 for element                      6
Z=  6 CN= 0.000     C6(AA)=   49.11
Z=  6 CN= 0.987     C6(AA)=   43.25
Z=  6 CN= 1.998     C6(AA)=   29.36
Z=  6 CN= 2.999     C6(AA)=   25.78
Z=  6 CN= 3.984     C6(AA)=   18.21

#           XYZ [au]              R0(AA) [Ang.]  CN          C6(AA)     C8(AA)   C10(AA) [au]
  1   0.58951   1.06018   0.93862   c   0.610  3.133        25.3       732.7     25957.7
  2   1.40243   2.93544   0.91003   h   0.395  1.003         3.1        37.3       553.0
  3   2.15841  -1.05461   1.01301   c   0.610  3.133        25.3       732.7     25957.7
  4   4.18860  -0.82061   1.04379   h   0.395  1.003         3.1        37.3       553.0
  5   1.11079  -3.47084   1.04718   c   0.610  3.133        25.3       732.7     25957.6
  6   2.32798  -5.11141   1.10591   h   0.395  1.003         3.1        37.3       553.0
  7  -1.50546  -3.77260   1.00715   c   0.610  3.133        25.3       732.7     25957.2
  8  -2.31827  -5.64734   1.03677   h   0.395  1.003         3.1        37.3       553.0
  9  -3.07438  -1.65818   0.93384   c   0.610  3.133        25.3       732.7     25957.6
 10  -5.10438  -1.89228   0.90672   h   0.395  1.003         3.1        37.3       553.0
 11  -2.02704   0.75817   0.89946   c   0.610  3.133        25.3       732.7     25957.7
 12  -3.24461   2.39882   0.84267   h   0.395  1.003         3.1        37.3       553.0

molecular C6(AA) [au] =      1659.14

           DFT-D V3(BJ)
 DF pbe                                               
 parameters
 s6       :    1.0000
 s8       :    0.7875
 a1       :    0.4289
 a2       :    4.4407
 k1-k3    :   16.0000    1.3333   -4.0000
 
 Edisp /kcal,au:    -6.8853 -0.01097247

 E6    /kcal :    -4.7903
 E8    /kcal :    -2.0951
 % E8        : 30.43
 nuclear repulsion energy                  =     203.685388007
 empirical dispersive energy correction    =      -0.010972472
 nuclear repulsion + dispersion correction =     203.674415536


         -----------------
         -S,T+V- integrals
         -----------------

 1e-integrals will be neglected if expon. factor < 0.679260E-12
 Difference densities >>NOT<< switched on in parallel ridft!

 DIIS switched on: error vector is FDS-SDF
 Max. Iterations for DIIS is     :   4
 DIIS matrix (see manual) 
    Scaling factor of diagonals  :  1.200
    threshold for scaling factor :  0.000

 scf convergence criterion : increment of total energy < .1000000D-06
                  and increment of one-electron energy < .1000000D-03

  MOs are in ASCII format !


 automatic virtual orbital shift switched on 
      shift if e(lumo)-e(homo) < 0.10000000    


 reading orbital data $scfmo  from file mos
 orbital characterization : expanded
 mo provided and orthogonalized by Cholesky decomposition

 DSCF restart information will be dumped onto file mos


 Starting SCF iterations

          Overall gridpoints after grid construction =         32117

 ITERATION  ENERGY          1e-ENERGY        2e-ENERGY     NORM[dD(SAO)]  TOL
   1  -231.27119077162    -704.55952731     269.61392100    0.000D+00 0.678D-11
                            Exc = -33.4741094039     Coul =  303.088030406    
                              N = 41.999763769    
                            current damping = 0.700
 
          max. resid. norm for Fia-block=  4.972D-01 for orbital      7a         
          max. resid. fock norm         =  4.748D+01 for orbital    363a         

 ITERATION  ENERGY          1e-ENERGY        2e-ENERGY     NORM[dD(SAO)]  TOL
   2  -231.89066192120    -711.65337172     276.08829427    0.000D+00 0.678D-11
                            Exc = -34.1313589686     Coul =  310.219653234    
                              N = 41.999770281    
                            current damping = 0.650
 
          Norm of current diis error:  2.8192    
          max. resid. norm for Fia-block=  1.154D-01 for orbital      5a         
          max. resid. fock norm         =  1.449D-01 for orbital     61a         

 ITERATION  ENERGY          1e-ENERGY        2e-ENERGY     NORM[dD(SAO)]  TOL
   3  -232.00607333255    -712.94221821     277.26172934    0.000D+00 0.678D-11
                            Exc = -34.3004578281     Coul =  311.562187172    
                              N = 41.999782834    
                            current damping = 0.550
 
          Norm of current diis error:  1.3754    
          max. resid. norm for Fia-block=  5.347D-02 for orbital      7a         
          max. resid. fock norm         =  6.206D-02 for orbital      7a         

 ITERATION  ENERGY          1e-ENERGY        2e-ENERGY     NORM[dD(SAO)]  TOL
   4  -232.04027828195    -714.28458182     278.56988800    0.000D+00 0.678D-11
                            Exc = -34.4275738157     Coul =  312.997461820    
                              N = 41.999776241    
                            current damping = 0.450
 
          Norm of current diis error: 0.50090    
          max. resid. norm for Fia-block=  2.044D-02 for orbital      7a         
          max. resid. fock norm         =  2.300D-02 for orbital      7a         

 ITERATION  ENERGY          1e-ENERGY        2e-ENERGY     NORM[dD(SAO)]  TOL
   5  -232.04571635561    -714.47286353     278.75273164    0.000D+00 0.678D-11
                            Exc = -34.4617058135     Coul =  313.214437457    
                              N = 41.999777087    
                            current damping = 0.300
 
          Norm of current diis error: 0.18957    
          max. resid. norm for Fia-block=  7.346D-03 for orbital      7a         
          max. resid. fock norm         =  8.518D-03 for orbital      7a         
          mo-orthogonalization: Cholesky decomposition

 ITERATION  ENERGY          1e-ENERGY        2e-ENERGY     NORM[dD(SAO)]  TOL
   6  -232.04652490551    -714.80756390     279.08662346    0.000D+00 0.678D-11
                            Exc = -34.4893342411     Coul =  313.575957698    
                              N = 41.999774489    
                            current damping = 0.150
 
          Norm of current diis error: 0.50364E-01
          max. resid. norm for Fia-block=  1.770D-03 for orbital     20a         
          max. resid. fock norm         =  2.920D-03 for orbital     74a         

 ITERATION  ENERGY          1e-ENERGY        2e-ENERGY     NORM[dD(SAO)]  TOL
   7  -232.04657223695    -714.69024173     278.96925396    0.000D+00 0.678D-11
                            Exc = -34.4843043093     Coul =  313.453558268    
                              N = 41.999775650    
                            current damping = 0.200
 
          Norm of current diis error: 0.29238E-01
          max. resid. norm for Fia-block=  6.326D-04 for orbital     12a         
          max. resid. fock norm         =  8.108D-04 for orbital     12a         

 ITERATION  ENERGY          1e-ENERGY        2e-ENERGY     NORM[dD(SAO)]  TOL
   8  -232.04658841494    -714.74932594     279.02832199    0.000D+00 0.678D-11
                            Exc = -34.4880860957     Coul =  313.516408084    
                              N = 41.999775158    
                            current damping = 0.250
 
          Norm of current diis error: 0.13798E-02
          max. resid. norm for Fia-block=  4.108D-05 for orbital     12a         
          max. resid. fock norm         =  8.702D-05 for orbital      2a         

 ITERATION  ENERGY          1e-ENERGY        2e-ENERGY     NORM[dD(SAO)]  TOL
   9  -232.04658842767    -714.75095785     279.02995389    0.000D+00 0.678D-11
                            Exc = -34.4881920950     Coul =  313.518145984    
                              N = 41.999775136    
                            current damping = 0.100
 
          Norm of current diis error: 0.10942E-02
          max. resid. norm for Fia-block=  2.953D-05 for orbital     21a         
          max. resid. fock norm         =  7.350D-05 for orbital    424a         

 ITERATION  ENERGY          1e-ENERGY        2e-ENERGY     NORM[dD(SAO)]  TOL
  10  -232.04658844843    -714.75153739     279.03053340    0.000D+00 0.678D-11
                            Exc = -34.4882383092     Coul =  313.518771711    
                              N = 41.999775134    
                            current damping = 0.050
 
          Norm of current diis error: 0.57714E-03
          max. resid. norm for Fia-block=  1.156D-05 for orbital     21a         
          max. resid. fock norm         =  2.844D-05 for orbital    424a         
          mo-orthogonalization: Cholesky decomposition

 ENERGY CONVERGED !

          Overall gridpoints after grid construction =        116761

 ITERATION  ENERGY          1e-ENERGY        2e-ENERGY     NORM[dD(SAO)]  TOL
  11  -232.04655998637    -714.75138565     279.03041013    0.000D+00 0.678D-11
                            Exc = -34.4882055181     Coul =  313.518615650    
                              N = 41.999994562    
                            current damping = 0.100
 
          Norm of current diis error: 0.11022E-03
          max. resid. norm for Fia-block=  1.957D-06 for orbital     20a         
          max. resid. fock norm         =  3.915D-06 for orbital      4a         

 End of SCF iterations

   convergence criteria satisfied after    11 iterations


                  ------------------------------------------ 
                 |  total energy      =   -232.04655998637  |
                  ------------------------------------------ 
                 :  kinetic energy    =    231.02864650335  :
                 :  potential energy  =   -463.07520648971  :
                 :  virial theorem    =      1.99561332224  :
                 :  wavefunction norm =      1.00000000000  :
                  .......................................... 


 orbitals $scfmo  will be written to file mos

    irrep                 17a         18a         19a         20a         21a   
 eigenvalues H         -0.33327    -0.30202    -0.30201    -0.23260    -0.23257
            eV          -9.0687     -8.2185     -8.2182     -6.3295     -6.3287
 occupation              2.0000      2.0000      2.0000      2.0000      2.0000 

    irrep                 22a         23a         24a         25a         26a   
 eigenvalues H         -0.04397    -0.04392     0.00733     0.03340     0.03342
            eV          -1.1965     -1.1952      0.1995      0.9090      0.9095
 
 
 
 
 ==============================================================================
                           electrostatic moments
 ==============================================================================

 reference point for electrostatic moments:    0.00000   0.00000   0.00000

 
              nuc           elec       ->  total
 ------------------------------------------------------------------------------
                          charge      
 ------------------------------------------------------------------------------
          42.000000     -42.000000       0.000000
 
 ------------------------------------------------------------------------------
                       dipole moment  
 ------------------------------------------------------------------------------
   x     -19.237347      19.237249      -0.000099
   y     -56.964671      56.964503      -0.000169
   z      40.881526     -40.880670       0.000856
 
   | dipole moment | =     0.0009 a.u. =     0.0022 debye 
 
 ------------------------------------------------------------------------------
                     quadrupole moment
 ------------------------------------------------------------------------------
  xx     199.290832    -223.247372     -23.956541
  yy     267.683129    -291.642784     -23.959654
  zz      39.943278     -69.415123     -29.471845
  xy      26.151490     -26.149718       0.001773
  xz     -15.387805      15.480669       0.092864
  yz     -59.631005      59.504582      -0.126423
 
     1/3  trace=     -25.796013
     anisotropy=       5.520439
 
 ==============================================================================
 


    ------------------------------------------------------------------------
         total  cpu-time :  2 minutes and  8 seconds
         total wall-time :  25.19 seconds
    ------------------------------------------------------------------------

   ****  ridft : all done  ****


    2019-03-12 22:22:51.233 

