           Doing BLAS/Lapack in the master proc. with  8 CPUs.
           SMPCPUS    set: Shared-memory Parallelization with   8 CPUs.

           SMP Parallelization Reference:
           C. van Wullen, J. Comput. Chem. 32 (2011) 1195--1201
 operating system is UNIX !

 ridft (c-18-314.gp.local) : TURBOMOLE V7.2 ( 21454 ) 4 Oct 2017 at 12:48:15
 Copyright (C) 2017 TURBOMOLE GmbH, Karlsruhe


    2018-04-24 21:13:56.139 



                                  r i d f t

                        DFT program with RI approximation 
                                for coulomb part 




                                                 
                                 References:     
                                                 
          TURBOMOLE:                             
              R. Ahlrichs, M. Baer, M. Haeser, H. Horn, and
              C. Koelmel
              Electronic structure calculations on workstation
              computers: the program system TURBOMOLE
              Chem. Phys. Lett. 162: 165 (1989)
          Density Functional:                              
              O. Treutler and R. Ahlrichs                      
              Efficient Molecular Numerical Integration Schemes
              J. Chem. Phys. 102: 346 (1995)                   
          Parallel Version:                                
              Performance of parallel TURBOMOLE for Density    
              Functional Calculations                          
              M. v. Arnim and R. Ahlrichs                      
              J. Comp. Chem. 19: 1746 (1998)                   
          RI-J Method:                                     
              Auxiliary Basis Sets to approximate Coulomb      
              Potentials                                       
              Chem. Phys. Lett. 240: 283 (1995)                
              K. Eichkorn, O. Treutler, H. Oehm, M. Haeser     
              and R. Ahlrichs                                  
              Chem. Phys. Lett. 242: 652 (1995)                
                                                           
              Auxiliary Basis Sets for Main Row Atoms and their
              Use to approximate Coulomb Potentials            
              K. Eichkorn, F. Weigend, O. Treutler and         
              R. Ahlrichs                                      
              Theo. Chem. Acc. 97: 119 (1997)                   
                                                           
              Accurate Coulomb-fitting basis sets for H to Rn 
              F. Weigend                                        
              Phys. Chem. Chem. Phys. 8: 1057 (2006)            
                                                           
          Multipole accelerated RI-J (MARI-J):             
              Fast evaluation of the Coulomb potential for     
              electron densities using multipole accelerated   
              resolution of identity approximation             
              M. Sierka, A. Hogekamp and R. Ahlrichs           
              J. Chem. Phys. 118: 9136 (2003)                  
          RI-JK Method:                                     
              A fully direct RI-HF algorithm: Implementation,
              optimised auxiliary basis sets, demonstration of
              accuracy and efficiency                         
              F. Weigend                                      
              Phys. Chem. Chem. Phys. 4: 4285 (2002)           
          Two-component HF and DFT with spin-orbit coupling:  
              Self-consistent treatment of spin-orbit         
              interactions with efficient Hartree-Fock and    
              density functional methods                      
              M. K. Armbruster, F. Weigend, C. van Wüllen and 
              W. Klopper                                      
              Phys. Chem. Chem. Phys. 10: 1748 (2008)         
          Relativistic all-electron 2c calculations           
              An efficient implementation of two-component    
              relativistic exact-decoupling methods for large 
              molecules                                       
              D. Peng, N. Middendorf, F. Weigend, M. Reiher   
              J. Chem. Phys. 138, 184105 (2013)               
                                         




              +--------------------------------------------------+
              |      general information about current run       |
              +--------------------------------------------------+

 

 DENSITY CONVERGENCE CHECK SWITCHED ON !
 SCF CONVERGENCE IF RMS(delta[D]) <     0.1000000000E-06

 PBE functional
 exchange:    LDA + PBE
 correlation: LDA (PW) + PBE
 A DFT calculation using the RI-J approximation will be carried out.
 Allocatable memory for RI due to $ricore (MB):                   500


              +--------------------------------------------------+
              | Atomic coordinate, charge and isotop information |
              +--------------------------------------------------+

                    atomic coordinates            atom    charge  isotop
          1.61677549    0.67752813    1.98374806    c      6.000     0
          2.86071562    1.70581715    3.23665834    h      1.000     0
          2.53770780   -1.27628071    0.47461869    c      6.000     0
          4.52189513   -1.76376591    0.53283295    h      1.000     0
          0.90292364   -2.60158804   -1.11081081    c      6.000     0
          1.61776430   -4.11753849   -2.28056738    h      1.000     0
         -1.65318879   -1.97014559   -1.19138121    c      6.000     0
         -2.92039359   -2.99653899   -2.42341529    h      1.000     0
         -2.57455777   -0.01325437    0.31340436    c      6.000     0
         -4.55720878    0.47898365    0.24713621    h      1.000     0
         -0.94192273    1.30987680    1.90293907    c      6.000     0
         -1.63671240    2.81633424    3.09544125    h      1.000     0
          0.15482408    0.94019681    9.07962122    c      6.000     0
          0.62062144    2.91198665    7.96989980    o      8.000     0
         -0.41974196   -1.24244923    7.84909327    n      7.000     0
         -0.37212027   -1.25570628    5.94682577    h      1.000     0
         -0.71411685   -2.85909542    8.78583375    h      1.000     0
          0.19799430    0.76087724   11.93011714    c      6.000     0
          2.14765083    0.92001539   12.56331484    h      1.000     0
         -0.59928854   -0.99022425   12.65015131    h      1.000     0
         -0.84034344    2.35551566   12.69880200    h      1.000     0
 
       center of nuclear mass  :    0.04697117   -0.01940445    4.18268453
       center of nuclear charge:    0.04024265   -0.05600261    4.24391087

              +--------------------------------------------------+
              |               basis set information              |
              +--------------------------------------------------+

              we will work with the 1s 3p 5d 7f 9g ... basis set
              ...i.e. with spherical basis functions...

   type   atoms  prim   cont   basis
   ---------------------------------------------------------------------------
    c        8     77     55   cc-pVQZ   [5s4p3d2f1g|21s6p3d2f1g]
    h       11     32     30   cc-pVQZ   [4s3p2d1f|6s3p2d1f]
    o        1     77     55   cc-pVQZ   [5s4p3d2f1g|21s6p3d2f1g]
    n        1     77     55   cc-pVQZ   [5s4p3d2f1g|21s6p3d2f1g]
   ---------------------------------------------------------------------------
   total:   21   1122    880
   ---------------------------------------------------------------------------

   total number of primitive shells          :  111
   total number of contracted shells         :  260
   total number of cartesian basis functions : 1085
   total number of SCF-basis functions       :  880


 integral neglect threshold       :  0.31E-13
 integral storage threshold THIZE :  0.10E-04
 integral storage threshold THIME :         5

 RI-J AUXILIARY BASIS SET information:

              we will work with the 1s 3p 5d 7f 9g ... basis set
              ...i.e. with spherical basis functions...

   type   atoms  prim   cont   basis
   ---------------------------------------------------------------------------
    c        8     70     49   cc-pVQZ   [6s4p3d1f1g|12s5p4d2f1g]
    h       11     16     11   cc-pVQZ   [3s1p1d|5s2p1d]
    o        1     70     49   cc-pVQZ   [6s4p3d1f1g|12s5p4d2f1g]
    n        1     70     49   cc-pVQZ   [6s4p3d1f1g|12s5p4d2f1g]
   ---------------------------------------------------------------------------
   total:   21    876    611
   ---------------------------------------------------------------------------

   total number of primitive shells          :   80
   total number of contracted shells         :  205
   total number of cartesian basis functions :  742
   total number of SCF-basis functions       :  611


 symmetry group of the molecule :   c1 

 the group has the following generators :
   c1(z)

    1 symmetry operations found

 there are 1 real representations :   a   

 maximum number of shells which are related by symmetry :  1


    mo occupation :
   irrep   mo's   occupied
    a      880       37
 
 number of basis functions   :                    880
 number of occupied orbitals :                     37
 
  
           ------------------
           density functional
           ------------------
 PBE functional
 exchange:    LDA + PBE
 correlation: LDA (PW) + PBE

 iterations will be done with small grid
  
 spherical integration : Lebedev's spherical grid
 spherical gridsize    :                     5
    i.e. gridpoints    :                   590
 value for diffuse not defined
 radial integration    : Chebyshev 2nd kind (scaling 3)
 radial gridsize       :                     8
 integration cells     :                    21
 partition function    : becke
 partition sharpness   :                     3
  

 biggest AO integral is expected to be     4.785886462
  
           ------------------------
               RI-J - INFORMATION
           ------------------------
 Contributions to RI integral batches: 
  neglected integral batches:                 10174
  direct contribution:                        14778
  memory contribution:                  8978
 Memory core needed for (P|Q) and Cholesky      3 MByte
 Memory core minimum needed except of (P|Q)     1 MByte
 Total minimum memory core needed (sum)         4 MByte
  
 ****************************************
 Memory allocated for RI-J   416 MByte
 ****************************************
                                            

          ------------------------
          nuclear repulsion energy  :   475.548332746    
          ------------------------


         -----------------
         -S,T+V- integrals
         -----------------

 1e-integrals will be neglected if expon. factor < 0.308015E-14
 Difference densities >>NOT<< switched on in parallel ridft!

 DIIS switched on: error vector is FDS-SDF
 Max. Iterations for DIIS is     :   4
 DIIS matrix (see manual) 
    Scaling factor of diagonals  :  1.200
    threshold for scaling factor :  0.000

 scf convergence criterion : increment of total energy < .1000000D-08
                  and increment of one-electron energy < .1000000D-05

  MOs are in ASCII format !


 automatic virtual orbital shift switched on 
      shift if e(lumo)-e(homo) < 0.10000000    


 reading orbital data $scfmo  from file mos
 orbital characterization : expanded
 mo provided and orthogonalized by Cholesky decomposition

 DSCF restart information will be dumped onto file mos


 Starting SCF iterations

          Overall gridpoints after grid construction =        100227

 ITERATION  ENERGY          1e-ENERGY        2e-ENERGY     RMS[dD(SAO)]   TOL
   1  -439.36598754357    -1526.1780403     611.26371997    0.000D+00 0.307D-13
                            Exc = -61.2685472119     Coul =  672.532267186    
                              N = 73.999983802    
                            current damping = 0.700
 
          max. resid. norm for Fia-block=  4.002D-01 for orbital     25a         
          max. resid. fock norm         =  8.948D+00 for orbital    842a         

 ITERATION  ENERGY          1e-ENERGY        2e-ENERGY     RMS[dD(SAO)]   TOL
   2  -440.79503180294    -1535.6278501     619.28448553    0.367D-02 0.307D-13
                            Exc = -61.9769265288     Coul =  681.261412060    
                              N = 73.999982978    
                            current damping = 0.650
 
          Norm of current diis error:  3.5407    
          max. resid. norm for Fia-block=  1.648D-01 for orbital      1a         
          max. resid. fock norm         =  3.256D-01 for orbital    869a         

 ITERATION  ENERGY          1e-ENERGY        2e-ENERGY     RMS[dD(SAO)]   TOL
   3  -441.01689359892    -1538.3517257     621.78649940    0.198D-02 0.307D-13
                            Exc = -62.3397072840     Coul =  684.126206684    
                              N = 73.999982916    
                            current damping = 0.550
 
          Norm of current diis error:  1.7441    
          max. resid. norm for Fia-block=  6.465D-02 for orbital      1a         
          max. resid. fock norm         =  6.917D-02 for orbital      1a         

 ITERATION  ENERGY          1e-ENERGY        2e-ENERGY     RMS[dD(SAO)]   TOL
   4  -441.08718271031    -1538.9239394     622.28842390    0.151D-02 0.307D-13
                            Exc = -62.3727196865     Coul =  684.661143583    
                              N = 73.999984287    
                            current damping = 0.450
 
          Norm of current diis error: 0.76714    
          max. resid. norm for Fia-block=  4.059D-02 for orbital     11a         
          max. resid. fock norm         =  9.048D-02 for orbital    831a         

 ITERATION  ENERGY          1e-ENERGY        2e-ENERGY     RMS[dD(SAO)]   TOL
   5  -441.09623645024    -1540.2011218     623.55655264    0.622D-03 0.307D-13
                            Exc = -62.5303211360     Coul =  686.086873778    
                              N = 73.999982040    
                            current damping = 0.350
 
          Norm of current diis error: 0.52439    
          max. resid. norm for Fia-block=  1.627D-02 for orbital     37a         
          max. resid. fock norm         =  2.034D-02 for orbital     36a         
          mo-orthogonalization: Cholesky decomposition

 ITERATION  ENERGY          1e-ENERGY        2e-ENERGY     RMS[dD(SAO)]   TOL
   6  -441.10394862418    -1540.0089384     623.35665705    0.524D-03 0.307D-13
                            Exc = -62.5110097753     Coul =  685.867666825    
                              N = 73.999982734    
                            current damping = 0.400
 
          Norm of current diis error: 0.12368    
          max. resid. norm for Fia-block=  4.841D-03 for orbital     19a         
          max. resid. fock norm         =  8.138D-03 for orbital    856a         

 ITERATION  ENERGY          1e-ENERGY        2e-ENERGY     RMS[dD(SAO)]   TOL
   7  -441.10421426215    -1539.9421421     623.28959509    0.161D-03 0.307D-13
                            Exc = -62.5010603516     Coul =  685.790655439    
                              N = 73.999982569    
                            current damping = 0.250
 
          Norm of current diis error: 0.72470E-01
          max. resid. norm for Fia-block=  1.924D-03 for orbital     19a         
          max. resid. fock norm         =  2.824D-03 for orbital    842a         

 ITERATION  ENERGY          1e-ENERGY        2e-ENERGY     RMS[dD(SAO)]   TOL
   8  -441.10432557583    -1540.0272536     623.37459529    0.183D-04 0.307D-13
                            Exc = -62.5114909415     Coul =  685.886086227    
                              N = 73.999982495    
                            current damping = 0.300
 
          Norm of current diis error: 0.12283E-01
          max. resid. norm for Fia-block=  4.826D-04 for orbital     35a         
          max. resid. fock norm         =  9.926D-04 for orbital    872a         

 ITERATION  ENERGY          1e-ENERGY        2e-ENERGY     RMS[dD(SAO)]   TOL
   9  -441.10432442133    -1540.0306254     623.37796822    0.571D-05 0.307D-13
                            Exc = -62.5119629816     Coul =  685.889931206    
                              N = 73.999982501    
                            current damping = 0.350
 
          Norm of current diis error: 0.14129E-01
          max. resid. norm for Fia-block=  2.705D-04 for orbital     37a         
          max. resid. fock norm         =  5.322D-04 for orbital    872a         

 ITERATION  ENERGY          1e-ENERGY        2e-ENERGY     RMS[dD(SAO)]   TOL
  10  -441.10432805348    -1540.0222283     623.36956755    0.749D-05 0.307D-13
                            Exc = -62.5111912297     Coul =  685.880758776    
                              N = 73.999982522    
                            current damping = 0.400
 
          Norm of current diis error: 0.66406E-02
          max. resid. norm for Fia-block=  1.611D-04 for orbital     34a         
          max. resid. fock norm         =  2.951D-04 for orbital    856a         
          mo-orthogonalization: Cholesky decomposition

 ITERATION  ENERGY          1e-ENERGY        2e-ENERGY     RMS[dD(SAO)]   TOL
  11  -441.10432910997    -1540.0235231     623.37086124    0.205D-05 0.307D-13
                            Exc = -62.5114335217     Coul =  685.882294761    
                              N = 73.999982508    
                            current damping = 0.450
 
          Norm of current diis error: 0.12028E-02
          max. resid. norm for Fia-block=  3.992D-05 for orbital     34a         
          max. resid. fock norm         =  6.258D-05 for orbital    856a         

 ITERATION  ENERGY          1e-ENERGY        2e-ENERGY     RMS[dD(SAO)]   TOL
  12  -441.10432912671    -1540.0254391     623.37277726    0.694D-06 0.307D-13
                            Exc = -62.5115028204     Coul =  685.884280081    
                              N = 73.999982506    
                            current damping = 0.300
 
          Norm of current diis error: 0.72622E-03
          max. resid. norm for Fia-block=  1.782D-05 for orbital     34a         
          max. resid. fock norm         =  3.045D-05 for orbital    856a         

 ITERATION  ENERGY          1e-ENERGY        2e-ENERGY     RMS[dD(SAO)]   TOL
  13  -441.10432913870    -1540.0247946     623.37213268    0.269D-06 0.307D-13
                            Exc = -62.5114598722     Coul =  685.883592554    
                              N = 73.999982507    
                            current damping = 0.350
 
          Norm of current diis error: 0.13255E-03
          max. resid. norm for Fia-block=  4.785D-06 for orbital     19a         
          max. resid. fock norm         =  7.197D-06 for orbital     19a         

 DENSITY CONVERGED !


 ITERATION  ENERGY          1e-ENERGY        2e-ENERGY     RMS[dD(SAO)]   TOL
  14  -441.10432913894    -1540.0245370     623.37187508    0.784D-07 0.307D-13
                            Exc = -62.5114495743     Coul =  685.883324659    
                              N = 73.999982507    
                            current damping = 0.200
 
          Norm of current diis error: 0.76776E-04
          max. resid. norm for Fia-block=  1.711D-06 for orbital     35a         
          max. resid. fock norm         =  3.724D-06 for orbital    872a         

 DENSITY CONVERGED !


 ITERATION  ENERGY          1e-ENERGY        2e-ENERGY     RMS[dD(SAO)]   TOL
  15  -441.10432913903    -1540.0246877     623.37202586    0.397D-07 0.307D-13
                            Exc = -62.5114581366     Coul =  685.883483993    
                              N = 73.999982507    
                            current damping = 0.250
 
          Norm of current diis error: 0.39433E-04
          max. resid. norm for Fia-block=  8.142D-07 for orbital     35a         
          max. resid. fock norm         =  1.837D-06 for orbital    872a         
          mo-orthogonalization: Cholesky decomposition

 ENERGY & DENSITY CONVERGED !

          Overall gridpoints after grid construction =        325303

 ITERATION  ENERGY          1e-ENERGY        2e-ENERGY     RMS[dD(SAO)]   TOL
  16  -441.10432293083    -1540.0246741     623.37201841    0.106D-07 0.307D-13
                            Exc = -62.5114516583     Coul =  685.883470069    
                              N = 74.000005224    
                            current damping = 0.300
 
          Norm of current diis error: 0.14198E-04
          max. resid. norm for Fia-block=  3.963D-07 for orbital     29a         
          max. resid. fock norm         =  6.418D-07 for orbital    856a         

 End of SCF iterations

   convergence criteria satisfied after    16 iterations


                  ------------------------------------------ 
                 |  total energy      =   -441.10432293083  |
                  ------------------------------------------ 
                 :  kinetic energy    =    439.26498151873  :
                 :  potential energy  =   -880.36930444956  :
                 :  virial theorem    =      1.99583014422  :
                 :  wavefunction norm =      1.00000000000  :
                  .......................................... 


 <geterg> : there is no data group $energy 


 <skperg> : $end is missing 


 orbitals $scfmo  will be written to file mos

    irrep                 33a         34a         35a         36a         37a   
 eigenvalues H         -0.29959    -0.23642    -0.23384    -0.23203    -0.20627
            eV          -8.1522     -6.4334     -6.3631     -6.3140     -5.6129
 occupation              2.0000      2.0000      2.0000      2.0000      2.0000 

    irrep                 38a         39a         40a         41a         42a   
 eigenvalues H         -0.04414    -0.04399    -0.01347    -0.00419     0.01592
            eV          -1.2012     -1.1970     -0.3666     -0.1139      0.4332
 
 
 
 
 ==============================================================================
                           electrostatic moments
 ==============================================================================

 reference point for electrostatic moments:    0.00000   0.00000   0.00000

 
              nuc           elec       ->  total
 ------------------------------------------------------------------------------
                          charge      
 ------------------------------------------------------------------------------
          74.000000     -74.000000       0.000000
 
 ------------------------------------------------------------------------------
                       dipole moment  
 ------------------------------------------------------------------------------
   x       2.977956      -3.228577      -0.250621
   y      -4.144193       2.854850      -1.289343
   z     314.049404    -313.673272       0.376132
 
   | dipole moment | =     1.3663 a.u. =     3.4727 debye 
 
 ------------------------------------------------------------------------------
                     quadrupole moment
 ------------------------------------------------------------------------------
  xx     194.950683    -237.736920     -42.786237
  yy     231.384125    -277.938730     -46.554605
  zz    2974.369852   -3010.703504     -36.333652
  xy       0.575790      -1.611021      -1.035231
  xz      64.895329     -66.105395      -1.210066
  yz     300.294998    -307.967212      -7.672214
 
     1/3  trace=     -41.891498
     anisotropy=      16.258803
 
 ==============================================================================
 


    ------------------------------------------------------------------------
         total  cpu-time : 10 minutes and 35 seconds
         total wall-time :  1 minutes and 36 seconds
    ------------------------------------------------------------------------

   ****  ridft : all done  ****


    2018-04-24 21:15:32.493 

