
   OpenMP run-time library returned nthreads = 28

 ricc2 (c-15-42) : TURBOMOLE V7.3 ( 22142 ) 4 Jul 2018 at 18:12:42
 Copyright (C) 2018 TURBOMOLE GmbH, Karlsruhe


    2019-04-01 23:49:25.758 



                              R I C C 2 - PROGRAM

                          the quantum chemistry groups
                             at the universities in
                           Karlsruhe, Bochum & Mainz
                                   Germany



   *-----------------------------------------------------------------------*
   |                     program will use 28 thread(s)                     |
   *-----------------------------------------------------------------------*


              +--------------------------------------------------+
              | Atomic coordinate, charge and isotop information |
              +--------------------------------------------------+

                    atomic coordinates            atom    charge  isotop
         -1.15379604    0.42991855   -0.32239119    c      6.000     0
          0.20292835    1.62787817   -1.19848177    h      1.000     0
         -2.61968147   -0.99272133    0.71804590    c      6.000     0
         -3.93195928   -2.21866583    1.61454302    h      1.000     0
          5.35633348   -1.21212963    0.88049149    c      0.000     0
          4.87600467    0.59464177   -0.44012046    o      0.000     0
          3.56505335   -2.67542059    1.95326370    o      0.000     0
          1.93800031   -1.98132610    1.44724958    h      0.000     0
          7.95590718   -2.12193796    1.54218081    c      0.000     0
          9.35125414   -0.91714289    0.65240265    h      0.000     0
          8.19441049   -2.09953577    3.58315179    h      0.000     0
          8.18697749   -4.06428265    0.91245919    h      0.000     0
 
       center of nuclear mass  :    3.17983419   -1.04339464    0.75649918
       center of nuclear charge:   -1.88356400   -0.28340031    0.19928497

              +--------------------------------------------------+
              |               basis set information              |
              +--------------------------------------------------+

              we will work with the 1s 3p 5d 7f 9g ... basis set
              ...i.e. with spherical basis functions...

   type   atoms  prim   cont   basis
   ---------------------------------------------------------------------------
    c        4     50     30   cc-pVTZ   [4s3p2d1f|18s5p2d1f]
    h        6     16     14   cc-pVTZ   [3s2p1d|5s2p1d]
    o        2     50     30   cc-pVTZ   [4s3p2d1f|18s5p2d1f]
   ---------------------------------------------------------------------------
   total:   12    396    264
   ---------------------------------------------------------------------------

   total number of primitive shells          :   60
   total number of contracted shells         :   96
   total number of cartesian basis functions :  300
   total number of SCF-basis functions       :  264


 symmetry group of the molecule :   c1 

 the group has the following generators :
   c1(z)

    1 symmetry operations found

 there are 1 real representations :   a   


   =========================================================================


     restricted closed shell calculation for the wavefunction models:
               MP2        - Second Order Moeller Plesset PT


     global parameters for ricc2 program:

        hard restart (reuse of interm.) :  disabled
        soft restart (reuse of vectors) :  disabled
        threshold for vector function   :    0.100000E-05
        convergence threshold energy    :    0.100000E-06
        linear dependence threshold     :    0.100000E-13
        global print level              :      1
        maximum number of iterations    :   300
        maximum number DIIS vectors     :    10
        max. dim. of reduced space      :   100
        core memory limit (MB)          : *****


     MP2 energy only: Energy will be calculated directly from T2 amplitudes!

     Scratch Directory : 


   =========================================================================

    der. integral neglect threshold  :  0.10E-07
    integral neglect threshold       :  0.11E-10
    integral storage threshold THIZE :  0.10E-04
    integral storage threshold THIME :         5


                  +------------------------------------------+
                  |     Auxiliary basis set information      |
                  +------------------------------------------+

              we will work with the 1s 3p 5d 7f 9g ... basis set
              ...i.e. with spherical basis functions...

   type   atoms  prim   cont   basis
   ---------------------------------------------------------------------------
    c        4     81     81   cc-pVTZ   [8s6p5d3f1g|8s6p5d3f1g]
    h        6     30     30   cc-pVTZ   [4s3p2d1f|4s3p2d1f]
    o        2     81     81   cc-pVTZ   [8s6p5d3f1g|8s6p5d3f1g]
   ---------------------------------------------------------------------------
   total:   12    666    666
   ---------------------------------------------------------------------------

   total number of primitive shells          :   56
   total number of contracted shells         :  198
   total number of cartesian basis functions :  816
   total number of SCF-basis functions       :  666


 maximum number of shells which are related by symmetry :  1


 The symmetry information takes   1 MB

*---------------------------------------------------------------------*
|               simplified C1 algorithm will be applied               |
*---------------------------------------------------------------------*
  MOs are in ASCII format !


 reading orbital data $scfmo  from file mos
 orbital characterization : scfconv=9



              +--------------------------------------------+
              | list of orbitals that will be kept frozen: |
              +--------------------------------------------+
              |   irrep   index      energy     occ/vir    |
              +--------------------------------------------+
              |   a         1      -11.2453     occupied   |
              |   a         2      -11.2418     occupied   |
              +--------------------------------------------+



   Molecular Orbital Statistic:
   ============================

   -----------------------------
   orbitals in total:
   -----------------------------
    frozen occupied :      2
    active occupied :      5
    active virtual  :    257
    frozen virtual  :      0
    all together    :    264
   -----------------------------


     time in riccmos       cpu:  2.26 sec    wall:  0.11 sec    ratio: 21.4

     total memory allocated for calculation of (Q|P)**(-1/2) : 6 MiB


     calculation of (P|Q) ...
     time in lp2sym        cpu:  1.93 sec    wall:  0.07 sec    ratio: 25.7


     calculation of the Cholesky decomposition of (P|Q)**(-1) ...
     time in invmetri      cpu:  1.90 sec    wall:  0.07 sec    ratio: 27.1

   threshold for RMS(d[D]) in SCF was     :  0.10E-06
   integral neglect threshold             :  0.11E-10
   derivative integral neglect threshold  :  0.10E-07


   =========================================================================

     Energy of reference wave function is   -76.8481898610000
     Maximum orbital residual is           0.1885150251183E-06


     Number of symmetry-nonredundant auxiliary basis functions:      666

     Block lengths for integral files:
        frozen occupied (BOI):        1 MiB
        active occupied (BJI):        1 MiB
        active virtual  (BAI):        2 MiB
        frozen virtual  (BGI):        0 MiB
               general  (BTI):        2 MiB

   =========================================================================




   **************************************************************************
   *                                                                        *
   *          OPTIMIZATION OF THE GROUND STATE CLUSTER AMPLITUDES           *
   *                                                                        *
   **************************************************************************


   Iter.   MP2 energy       Norm(Omega)   Norm(t1)  Norm(t2)     cpu    wall
   ...........................................................................
    1    -77.1595597306     ------          0.00000   0.20345    0.02    0.00
   ...........................................................................


     time in total         cpu:  1.54 sec    wall:  0.06 sec    ratio: 25.2


     **********************************************************************
     *                                                                    *
     *   RHF  energy                             :    -76.8481898610      *
     *   MP2 correlation energy (doubles)        :     -0.3113698696      *
     *                                                                    *
     *   Final MP2 energy                        :    -77.1595597306      *
     *                                                                    *
     *    E(S)   =     -0.2032123279      E(T)   =     -0.1081575417      *
     *    E(OS)  =     -0.2392648418      E(SS)  =     -0.0721050278      *
     *                                                                    *
     *   SCS-MP2 energy                          :    -77.1593426805      *
     *   (computed with  C(OS) =   1.2000  and  C(SS) =   0.3333)         *
     *                                                                    *
     *   SOS-MP2 energy                          :    -77.1592341554      *
     *   (computed with  C(OS) =   1.3000)                                *
     *                                                                    *
     *   Norm of MP1 T2 amplitudes               :      0.2034462034      *
     *                                                                    *
     **********************************************************************



    ------------------------------------------------------------------------
         total  cpu-time :  22.77 seconds
         total wall-time :   0.95 seconds
    ------------------------------------------------------------------------

   ****  ricc2 : all done  ****


    2019-04-01 23:49:26.635 

