
   OpenMP run-time library returned nthreads = 28
 operating system is UNIX !

 dscf (c-15-41) : TURBOMOLE V7.3 ( 22142 ) 4 Jul 2018 at 18:12:42
 Copyright (C) 2018 TURBOMOLE GmbH, Karlsruhe


    2019-04-01 23:54:03.547 



                             d s c f - program

                   idea & directorship : reinhart ahlrichs
                   program development : marco haeser
                                         michael baer
                           dft version : oliver treutler


                          quantum chemistry group
                          universitaet  karlsruhe
                                  germany




                          References             
                                                 
          TURBOMOLE:                             
              R. Ahlrichs, M. Baer, M. Haeser, H. Horn, and
              C. Koelmel
              Electronic structure calculations on workstation
              computers: the program system TURBOMOLE
              Chem. Phys. Lett. 162: 165 (1989)
          Density Functional:                              
              O. Treutler and R. Ahlrichs                      
              Efficient Molecular Numerical Integration Schemes
              J. Chem. Phys. 102: 346 (1995)                   
          Parallel Version:                                
              Performance of parallel TURBOMOLE for Density    
              Functional Calculations                          
              M. v. Arnim and R. Ahlrichs                      
              J. Comp. Chem. 19: 1746 (1998)                   
                                         




              +--------------------------------------------------+
              | Atomic coordinate, charge and isotop information |
              +--------------------------------------------------+

                    atomic coordinates            atom    charge  isotop
          1.14665739    2.51413293    0.59797456    c      6.000     0
          2.35554071    4.16167648    0.62427540    h      1.000     0
          2.11287380    0.16487645    1.29468260    c      6.000     0
          4.06301990   -0.00734496    1.87793091    h      1.000     0
          0.55350511   -1.95792138    1.26442949    c      6.000     0
          1.30107051   -3.78126921    1.80540272    h      1.000     0
         -1.97066638   -1.73233297    0.54459949    c      6.000     0
         -3.17986023   -3.37975298    0.52789316    h      1.000     0
         -2.93585656    0.61859994   -0.15107070    c      6.000     0
         -4.89294495    0.79423126   -0.71308097    h      1.000     0
         -1.37579931    2.74169623   -0.12632505    c      6.000     0
         -2.12334124    4.56493328   -0.66870120    h      1.000     0
 
       center of nuclear mass  :   -0.41164094    0.39155270    0.57109482
       center of nuclear charge:   -0.41171979    0.39159003    0.57141577

              +--------------------------------------------------+
              |               basis set information              |
              +--------------------------------------------------+

              we will work with the 1s 3p 5d 7f 9g ... basis set
              ...i.e. with spherical basis functions...

   type   atoms  prim   cont   basis
   ---------------------------------------------------------------------------
    c        6     77     55   cc-pVQZ   [5s4p3d2f1g|21s6p3d2f1g]
    h        6     32     30   cc-pVQZ   [4s3p2d1f|6s3p2d1f]
   ---------------------------------------------------------------------------
   total:   12    654    510
   ---------------------------------------------------------------------------

   total number of primitive shells          :   45
   total number of contracted shells         :  150
   total number of cartesian basis functions :  630
   total number of SCF-basis functions       :  510


 integral neglect threshold       :  0.53E-13
 integral storage threshold THIZE :  0.10E-04
 integral storage threshold THIME :         5


 DENSITY CONVERGENCE CHECK SWITCHED ON !
 SCF CONVERGENCE IF RMS(delta[D]) <     0.1000000000E-06


 symmetry group of the molecule :   c1 

 the group has the following generators :
   c1(z)

    1 symmetry operations found

 there are 1 real representations :   a   

 maximum number of shells which are related by symmetry :  1


    mo occupation :
   irrep   mo's   occupied
    a      510       21
 
 number of basis functions   :                    510
 number of occupied orbitals :                     21
 

 automatic virtual orbital shift switched on 
      shift if e(lumo)-e(homo) < 0.10000000    


          ------------------------
          nuclear repulsion energy  :   203.660956826    
          ------------------------


         -----------------
         -S,T+V- integrals
         -----------------

 1e-integrals will be neglected if expon. factor < 0.530470E-14
 
   Difference densities algorithm switched on.
   The maximal number of linear combinations of
   difference densities is                    20 .

 DIIS switched on: error vector is FDS-SDF
 Max. Iterations for DIIS is     :   5
 DIIS matrix (see manual) 
    Scaling factor of diagonals  :  1.200
    threshold for scaling factor :  0.000

 scf convergence criterion : increment of total energy < .1000000D-08
                  and increment of one-electron energy < .1000000D-05

  MOs are in ASCII format !


 reading orbital data $scfmo  from file mos
 orbital characterization : scfconv=9

 DSCF restart information will be dumped onto file mos

 
                                              current damping :  0.700
 ITERATION  ENERGY          1e-ENERGY        2e-ENERGY     RMS[dD(SAO)]   TOL
   1  -230.74230313838    -714.75419492     280.35093495    0.000D+00 0.529D-13
          max. resid. norm for Fia-block=  1.029D-01 for orbital      6a         
          max. resid. fock norm         =  2.304D-01 for orbital    510a         
          Delta Eig. =    21.9589338610 eV 
 
                                              current damping :  0.650
 ITERATION  ENERGY          1e-ENERGY        2e-ENERGY     RMS[dD(SAO)]   TOL
   2  -230.78339895707    -713.86290948     279.41855370    0.151D-02 0.346D-13
          Norm of current diis error: 0.59300    
          max. resid. norm for Fia-block=  4.927D-02 for orbital      6a         
          max. resid. fock norm         =  8.316D-02 for orbital    510a         
          Delta Eig. =     9.7977151251 eV 
 
                                              current damping :  0.600
 ITERATION  ENERGY          1e-ENERGY        2e-ENERGY     RMS[dD(SAO)]   TOL
   3  -230.79164503336    -713.96778896     279.51518710    0.652D-03 0.262D-13
          Norm of current diis error: 0.26255    
          max. resid. norm for Fia-block=  2.039D-02 for orbital      6a         
          max. resid. fock norm         =  3.424D-02 for orbital    510a         
          Delta Eig. =     3.7493511680 eV 
 
                                              current damping :  0.650
 ITERATION  ENERGY          1e-ENERGY        2e-ENERGY     RMS[dD(SAO)]   TOL
   4  -230.79335925280    -713.87767288     279.42335680    0.268D-03 0.225D-13
          Norm of current diis error: 0.10555    
          max. resid. norm for Fia-block=  7.705D-03 for orbital      6a         
          max. resid. fock norm         =  1.261D-02 for orbital    510a         
          Delta Eig. =     1.3831821445 eV 
 
                                              current damping :  0.500
 ITERATION  ENERGY          1e-ENERGY        2e-ENERGY     RMS[dD(SAO)]   TOL
   5  -230.79364047956    -713.86382649     279.40922918    0.990D-04 0.206D-13
          Norm of current diis error: 0.44518E-01
          max. resid. norm for Fia-block=  3.009D-03 for orbital      6a         
          max. resid. fock norm         =  5.009D-03 for orbital    510a         
 mo-orthogonalization: Cholesky decomposition
          Delta Eig. =     0.5924182090 eV 
 
                                              current damping :  0.350
 ITERATION  ENERGY          1e-ENERGY        2e-ENERGY     RMS[dD(SAO)]   TOL
   6  -230.79369509653    -713.85525268     279.40060075    0.436D-04 0.191D-13
          Norm of current diis error: 0.16230E-01
          max. resid. norm for Fia-block=  1.081D-03 for orbital     14a         
          max. resid. fock norm         =  1.677D-03 for orbital    510a         
          Delta Eig. =     0.2179196171 eV 
 
                                              current damping :  0.200
 ITERATION  ENERGY          1e-ENERGY        2e-ENERGY     RMS[dD(SAO)]   TOL
   7  -230.79370316296    -713.85168859     279.39702860    0.168D-04 0.176D-13
          Norm of current diis error: 0.48247E-02
          max. resid. norm for Fia-block=  3.338D-04 for orbital     14a         
          max. resid. fock norm         =  4.311D-04 for orbital    510a         
          Delta Eig. =     0.0640241623 eV 
 
                                              current damping :  0.050
 ITERATION  ENERGY          1e-ENERGY        2e-ENERGY     RMS[dD(SAO)]   TOL
   8  -230.79370398240    -713.85083330     279.39617250    0.540D-05 0.163D-13
          Norm of current diis error: 0.10700E-02
          max. resid. norm for Fia-block=  7.491D-05 for orbital     14a         
          max. resid. fock norm         =  7.491D-05 for orbital     14a         
          Delta Eig. =     0.0122658123 eV 
 
                                              current damping :  0.050
 ITERATION  ENERGY          1e-ENERGY        2e-ENERGY     RMS[dD(SAO)]   TOL
   9  -230.79370403357    -713.85044338     279.39578252    0.142D-05 0.152D-13
          Norm of current diis error: 0.17300E-03
          max. resid. norm for Fia-block=  1.255D-05 for orbital     17a         
          max. resid. fock norm         =  1.256D-05 for orbital     17a         
          Delta Eig. =     0.0006732754 eV 
 
                                              current damping :  0.100
 ITERATION  ENERGY          1e-ENERGY        2e-ENERGY     RMS[dD(SAO)]   TOL
  10  -230.79370403538    -713.85048354     279.39582268    0.285D-06 0.146D-13
          Norm of current diis error: 0.44517E-04
          max. resid. norm for Fia-block=  4.309D-06 for orbital     17a         
          max. resid. fock norm         =  4.311D-06 for orbital     17a         
 mo-orthogonalization: Cholesky decomposition
          Delta Eig. =     0.0000954615 eV 

 DENSITY CONVERGED !

 
                                              current damping :  0.150
 ITERATION  ENERGY          1e-ENERGY        2e-ENERGY     RMS[dD(SAO)]   TOL
  11  -230.79370403552    -713.85043544     279.39577458    0.711D-07 0.143D-13
          Norm of current diis error: 0.16503E-04
          max. resid. norm for Fia-block=  9.936D-07 for orbital     17a         
          max. resid. fock norm         =  9.940D-07 for orbital     17a         
          Delta Eig. =     0.0000368194 eV 

 DENSITY CONVERGED !

 
                                              current damping :  0.200
 ITERATION  ENERGY          1e-ENERGY        2e-ENERGY     RMS[dD(SAO)]   TOL
  12  -230.79370403553    -713.85045331     279.39579245    0.179D-07 0.140D-13
          Norm of current diis error: 0.50805E-05
          max. resid. norm for Fia-block=  4.489D-07 for orbital     21a         
          max. resid. fock norm         =  4.489D-07 for orbital     21a         
          Delta Eig. =     0.0000072756 eV 

 ENERGY & DENSITY CONVERGED !

 
                                              current damping :  0.250
 ITERATION  ENERGY          1e-ENERGY        2e-ENERGY     RMS[dD(SAO)]   TOL
  13  -230.79370403552    -713.85044954     279.39578868    0.443D-08 0.151D-13
          max. resid. norm for Fia-block=  1.360D-07 for orbital     20a         
          max. resid. fock norm         =  1.360D-07 for orbital     20a         

 convergence criteria satisfied after    13 iterations


                  ------------------------------------------ 
                 |  total energy      =   -230.79370403552  |
                  ------------------------------------------ 
                 :  kinetic energy    =    230.50878107103  :
                 :  potential energy  =   -461.30248510655  :
                 :  virial theorem    =      1.99876546474  :
                 :  wavefunction norm =      1.00000000000  :
                  .......................................... 


 orbitals $scfmo  will be written to file mos

    irrep                 17a         18a         19a         20a         21a   
 eigenvalues H         -0.50175    -0.49446    -0.49410    -0.33624    -0.33617
            eV         -13.6534    -13.4550    -13.4452     -9.1496     -9.1478
 occupation              2.0000      2.0000      2.0000      2.0000      2.0000 

    irrep                 22a         23a         24a         25a         26a   
 eigenvalues H          0.12059     0.12300     0.12310     0.13813     0.13816
            eV           3.2816      3.3471      3.3496      3.7587      3.7596
 
 
 
 
 ==============================================================================
                           electrostatic moments
 ==============================================================================

 reference point for electrostatic moments:    0.00000   0.00000   0.00000

 
              nuc           elec       ->  total
 ------------------------------------------------------------------------------
                          charge      
 ------------------------------------------------------------------------------
          42.000000     -42.000000       0.000000
 
 ------------------------------------------------------------------------------
                       dipole moment  
 ------------------------------------------------------------------------------
   x     -17.292231      17.291255      -0.000976
   y      16.446781     -16.446207       0.000575
   z      23.999462     -23.995192       0.004270
 
   | dipole moment | =     0.0044 a.u. =     0.0112 debye 
 
 ------------------------------------------------------------------------------
                     quadrupole moment
 ------------------------------------------------------------------------------
  xx     185.196668    -209.336645     -24.139977
  yy     191.002029    -214.917275     -23.915245
  zz      32.217705     -61.870513     -29.652807
  xy       1.860751      -1.557630       0.303121
  xz      36.670675     -35.040419       1.630257
  yz     -22.497720      21.392118      -1.105602
 
     1/3  trace=     -25.902677
     anisotropy=       6.602775
 
 ==============================================================================
 


    ------------------------------------------------------------------------
         total  cpu-time :  1 hours 20 minutes and 25 seconds
         total wall-time :  6 minutes and 38 seconds
    ------------------------------------------------------------------------

   ****  dscf : all done  ****


    2019-04-02 00:00:41.521 

