
   OpenMP run-time library returned nthreads = 28

 ricc2 (c-15-41) : TURBOMOLE V7.3 ( 22142 ) 4 Jul 2018 at 18:12:42
 Copyright (C) 2018 TURBOMOLE GmbH, Karlsruhe


    2019-04-02 00:00:42.065 



                              R I C C 2 - PROGRAM

                          the quantum chemistry groups
                             at the universities in
                           Karlsruhe, Bochum & Mainz
                                   Germany



   *-----------------------------------------------------------------------*
   |                     program will use 28 thread(s)                     |
   *-----------------------------------------------------------------------*


              +--------------------------------------------------+
              | Atomic coordinate, charge and isotop information |
              +--------------------------------------------------+

                    atomic coordinates            atom    charge  isotop
          1.14665739    2.51413293    0.59797456    c      6.000     0
          2.35554071    4.16167648    0.62427540    h      1.000     0
          2.11287380    0.16487645    1.29468260    c      6.000     0
          4.06301990   -0.00734496    1.87793091    h      1.000     0
          0.55350511   -1.95792138    1.26442949    c      6.000     0
          1.30107051   -3.78126921    1.80540272    h      1.000     0
         -1.97066638   -1.73233297    0.54459949    c      6.000     0
         -3.17986023   -3.37975298    0.52789316    h      1.000     0
         -2.93585656    0.61859994   -0.15107070    c      6.000     0
         -4.89294495    0.79423126   -0.71308097    h      1.000     0
         -1.37579931    2.74169623   -0.12632505    c      6.000     0
         -2.12334124    4.56493328   -0.66870120    h      1.000     0
 
       center of nuclear mass  :   -0.41164094    0.39155270    0.57109482
       center of nuclear charge:   -0.41171979    0.39159003    0.57141577

              +--------------------------------------------------+
              |               basis set information              |
              +--------------------------------------------------+

              we will work with the 1s 3p 5d 7f 9g ... basis set
              ...i.e. with spherical basis functions...

   type   atoms  prim   cont   basis
   ---------------------------------------------------------------------------
    c        6     77     55   cc-pVQZ   [5s4p3d2f1g|21s6p3d2f1g]
    h        6     32     30   cc-pVQZ   [4s3p2d1f|6s3p2d1f]
   ---------------------------------------------------------------------------
   total:   12    654    510
   ---------------------------------------------------------------------------

   total number of primitive shells          :   45
   total number of contracted shells         :  150
   total number of cartesian basis functions :  630
   total number of SCF-basis functions       :  510


 symmetry group of the molecule :   c1 

 the group has the following generators :
   c1(z)

    1 symmetry operations found

 there are 1 real representations :   a   


   =========================================================================


     restricted closed shell calculation for the wavefunction models:
               MP2        - Second Order Moeller Plesset PT


     global parameters for ricc2 program:

        hard restart (reuse of interm.) :  disabled
        soft restart (reuse of vectors) :  disabled
        threshold for vector function   :    0.100000E-05
        convergence threshold energy    :    0.100000E-06
        linear dependence threshold     :    0.100000E-13
        global print level              :      1
        maximum number of iterations    :   300
        maximum number DIIS vectors     :    10
        max. dim. of reduced space      :   100
        core memory limit (MB)          : *****


     MP2 energy only: Energy will be calculated directly from T2 amplitudes!

     Scratch Directory : 


   =========================================================================

    der. integral neglect threshold  :  0.10E-07
    integral neglect threshold       :  0.53E-11
    integral storage threshold THIZE :  0.10E-04
    integral storage threshold THIME :         5


                  +------------------------------------------+
                  |     Auxiliary basis set information      |
                  +------------------------------------------+

              we will work with the 1s 3p 5d 7f 9g ... basis set
              ...i.e. with spherical basis functions...

   type   atoms  prim   cont   basis
   ---------------------------------------------------------------------------
    c        6    132    132   cc-pVQZ   [8s7p6d5f3g1h|8s7p6d5f3g1h]
    h        6     55     55   cc-pVQZ   [5s4p3d2f1g|5s4p3d2f1g]
   ---------------------------------------------------------------------------
   total:   12   1122   1122
   ---------------------------------------------------------------------------

   total number of primitive shells          :   45
   total number of contracted shells         :  270
   total number of cartesian basis functions : 1506
   total number of SCF-basis functions       : 1122


 maximum number of shells which are related by symmetry :  1


 The symmetry information takes   1 MB

*---------------------------------------------------------------------*
|               simplified C1 algorithm will be applied               |
*---------------------------------------------------------------------*
  MOs are in ASCII format !


 reading orbital data $scfmo  from file mos
 orbital characterization : scfconv=9



              +--------------------------------------------+
              | list of orbitals that will be kept frozen: |
              +--------------------------------------------+
              |   irrep   index      energy     occ/vir    |
              +--------------------------------------------+
              |   a         1      -11.2343     occupied   |
              |   a         2      -11.2337     occupied   |
              |   a         3      -11.2337     occupied   |
              |   a         4      -11.2325     occupied   |
              |   a         5      -11.2325     occupied   |
              |   a         6      -11.2318     occupied   |
              +--------------------------------------------+



   Molecular Orbital Statistic:
   ============================

   -----------------------------
   orbitals in total:
   -----------------------------
    frozen occupied :      6
    active occupied :     15
    active virtual  :    489
    frozen virtual  :      0
    all together    :    510
   -----------------------------


     time in riccmos       cpu:  5.59 sec    wall:  0.37 sec    ratio: 15.0

     total memory allocated for calculation of (Q|P)**(-1/2) : 15 MiB


     calculation of (P|Q) ...
     time in lp2sym        cpu:  1.38 sec    wall:  0.05 sec    ratio: 27.6


     calculation of the Cholesky decomposition of (P|Q)**(-1) ...
     time in invmetri      cpu:  5.11 sec    wall:  0.18 sec    ratio: 27.8

   threshold for RMS(d[D]) in SCF was     :  0.10E-06
   integral neglect threshold             :  0.53E-11
   derivative integral neglect threshold  :  0.10E-07


   =========================================================================

     Energy of reference wave function is  -230.7937040355000
     Maximum orbital residual is           0.1360125395839E-06


     Number of symmetry-nonredundant auxiliary basis functions:     1122

     Block lengths for integral files:
        frozen occupied (BOI):        1 MiB
        active occupied (BJI):        1 MiB
        active virtual  (BAI):        5 MiB
        frozen virtual  (BGI):        0 MiB
               general  (BTI):        5 MiB

   =========================================================================




   **************************************************************************
   *                                                                        *
   *          OPTIMIZATION OF THE GROUND STATE CLUSTER AMPLITUDES           *
   *                                                                        *
   **************************************************************************


   Iter.   MP2 energy       Norm(Omega)   Norm(t1)  Norm(t2)     cpu    wall
   ...........................................................................
    1   -231.8026189823     ------          0.00000   0.34175    0.50    0.02
   ...........................................................................


     time in total         cpu: 30.40 sec    wall:  1.14 sec    ratio: 26.6


     **********************************************************************
     *                                                                    *
     *   RHF  energy                             :   -230.7937040355      *
     *   MP2 correlation energy (doubles)        :     -1.0089149468      *
     *                                                                    *
     *   Final MP2 energy                        :   -231.8026189823      *
     *                                                                    *
     *    E(S)   =     -0.6411109751      E(T)   =     -0.3678039718      *
     *    E(OS)  =     -0.7637122990      E(SS)  =     -0.2452026479      *
     *                                                                    *
     *   SCS-MP2 energy                          :   -231.7918930102      *
     *   (computed with  C(OS) =   1.2000  and  C(SS) =   0.3333)         *
     *                                                                    *
     *   SOS-MP2 energy                          :   -231.7865300242      *
     *   (computed with  C(OS) =   1.3000)                                *
     *                                                                    *
     *   Norm of MP1 T2 amplitudes               :      0.3417488512      *
     *                                                                    *
     **********************************************************************



    ------------------------------------------------------------------------
         total  cpu-time :  1 minutes and 26 seconds
         total wall-time :   3.62 seconds
    ------------------------------------------------------------------------

   ****  ricc2 : all done  ****


    2019-04-02 00:00:45.625 

