 operating system is UNIX !

 ridft (c-9-414.gp.local) : TURBOMOLE V7.2 ( 21454 ) 4 Oct 2017 at 12:48:15
 Copyright (C) 2017 TURBOMOLE GmbH, Karlsruhe


    2018-05-18 15:36:23.698 



                                  r i d f t

                        DFT program with RI approximation 
                                for coulomb part 




                                                 
                                 References:     
                                                 
          TURBOMOLE:                             
              R. Ahlrichs, M. Baer, M. Haeser, H. Horn, and
              C. Koelmel
              Electronic structure calculations on workstation
              computers: the program system TURBOMOLE
              Chem. Phys. Lett. 162: 165 (1989)
          Density Functional:                              
              O. Treutler and R. Ahlrichs                      
              Efficient Molecular Numerical Integration Schemes
              J. Chem. Phys. 102: 346 (1995)                   
          Parallel Version:                                
              Performance of parallel TURBOMOLE for Density    
              Functional Calculations                          
              M. v. Arnim and R. Ahlrichs                      
              J. Comp. Chem. 19: 1746 (1998)                   
          RI-J Method:                                     
              Auxiliary Basis Sets to approximate Coulomb      
              Potentials                                       
              Chem. Phys. Lett. 240: 283 (1995)                
              K. Eichkorn, O. Treutler, H. Oehm, M. Haeser     
              and R. Ahlrichs                                  
              Chem. Phys. Lett. 242: 652 (1995)                
                                                           
              Auxiliary Basis Sets for Main Row Atoms and their
              Use to approximate Coulomb Potentials            
              K. Eichkorn, F. Weigend, O. Treutler and         
              R. Ahlrichs                                      
              Theo. Chem. Acc. 97: 119 (1997)                   
                                                           
              Accurate Coulomb-fitting basis sets for H to Rn 
              F. Weigend                                        
              Phys. Chem. Chem. Phys. 8: 1057 (2006)            
                                                           
          Multipole accelerated RI-J (MARI-J):             
              Fast evaluation of the Coulomb potential for     
              electron densities using multipole accelerated   
              resolution of identity approximation             
              M. Sierka, A. Hogekamp and R. Ahlrichs           
              J. Chem. Phys. 118: 9136 (2003)                  
          RI-JK Method:                                     
              A fully direct RI-HF algorithm: Implementation,
              optimised auxiliary basis sets, demonstration of
              accuracy and efficiency                         
              F. Weigend                                      
              Phys. Chem. Chem. Phys. 4: 4285 (2002)           
          Two-component HF and DFT with spin-orbit coupling:  
              Self-consistent treatment of spin-orbit         
              interactions with efficient Hartree-Fock and    
              density functional methods                      
              M. K. Armbruster, F. Weigend, C. van Wüllen and 
              W. Klopper                                      
              Phys. Chem. Chem. Phys. 10: 1748 (2008)         
          Relativistic all-electron 2c calculations           
              An efficient implementation of two-component    
              relativistic exact-decoupling methods for large 
              molecules                                       
              D. Peng, N. Middendorf, F. Weigend, M. Reiher   
              J. Chem. Phys. 138, 184105 (2013)               
                                         




              +--------------------------------------------------+
              |      general information about current run       |
              +--------------------------------------------------+

 
 PBE functional
 exchange:    LDA + PBE
 correlation: LDA (PW) + PBE
 A DFT calculation using the RI-J approximation will be carried out.
 Allocatable memory for RI due to $ricore (MB):                   500


              +--------------------------------------------------+
              | Atomic coordinate, charge and isotop information |
              +--------------------------------------------------+

                    atomic coordinates            atom    charge  isotop
         -2.32951643    2.28966581   -0.26763069    c      6.000     0
         -1.07955646    4.23679572    0.04840871    o      8.000     0
         -1.26721351    0.00734873   -0.59390591    n      7.000     0
          0.64977656   -0.17113380   -0.58265296    h      1.000     0
         -2.35122321   -1.52373097   -0.84410799    h      1.000     0
         -5.17453305    2.39382506   -0.29458293    c      6.000     0
         -5.81653043    3.11163270    1.52028768    h      1.000     0
         -6.05112046    0.57233283   -0.65424419    h      1.000     0
         -5.76364103    3.73313601   -1.73589745    h      1.000     0
 
       center of nuclear mass  :   -2.44870670    2.19933848   -0.28123235
       center of nuclear charge:   -2.55824943    2.11778090   -0.29499901

              +--------------------------------------------------+
              |               basis set information              |
              +--------------------------------------------------+

              we will work with the 1s 3p 5d 7f 9g ... basis set
              ...i.e. with spherical basis functions...

   type   atoms  prim   cont   basis
   ---------------------------------------------------------------------------
    c        2     77     57   def2-QZVP   [7s4p3d2f1g|15s8p3d2f1g]
    o        1     77     57   def2-QZVP   [7s4p3d2f1g|15s8p3d2f1g]
    n        1     77     57   def2-QZVP   [7s4p3d2f1g|15s8p3d2f1g]
    h        5     33     30   def2-QZVP   [4s3p2d1f|7s3p2d1f]
   ---------------------------------------------------------------------------
   total:    9    473    378
   ---------------------------------------------------------------------------

   total number of primitive shells          :  100
   total number of contracted shells         :  118
   total number of cartesian basis functions :  463
   total number of SCF-basis functions       :  378


 integral neglect threshold       :  0.72E-13
 integral storage threshold THIZE :  0.10E-04
 integral storage threshold THIME :         5

 RI-J AUXILIARY BASIS SET information:

              we will work with the 1s 3p 5d 7f 9g ... basis set
              ...i.e. with spherical basis functions...

   type   atoms  prim   cont   basis
   ---------------------------------------------------------------------------
    c        2     70     49   def2-QZVP   [6s4p3d1f1g|12s5p4d2f1g]
    o        1     70     49   def2-QZVP   [6s4p3d1f1g|12s5p4d2f1g]
    n        1     70     49   def2-QZVP   [6s4p3d1f1g|12s5p4d2f1g]
    h        5     16     11   def2-QZVP   [3s1p1d|5s2p1d]
   ---------------------------------------------------------------------------
   total:    9    360    251
   ---------------------------------------------------------------------------

   total number of primitive shells          :   80
   total number of contracted shells         :   85
   total number of cartesian basis functions :  304
   total number of SCF-basis functions       :  251


 symmetry group of the molecule :   c1 

 the group has the following generators :
   c1(z)

    1 symmetry operations found

 there are 1 real representations :   a   

 maximum number of shells which are related by symmetry :  1


    mo occupation :
   irrep   mo's   occupied
    a      378       16
 
 number of basis functions   :                    378
 number of occupied orbitals :                     16
 
  
           ------------------
           density functional
           ------------------
 PBE functional
 exchange:    LDA + PBE
 correlation: LDA (PW) + PBE

 iterations will be done with small grid
  
 spherical integration : Lebedev's spherical grid
 spherical gridsize    :                     5
    i.e. gridpoints    :                   590
 value for diffuse not defined
 radial integration    : Chebyshev 2nd kind (scaling 3)
 radial gridsize       :                     8
 integration cells     :                     9
 partition function    : becke
 partition sharpness   :                     3
  

 biggest AO integral is expected to be     6.990327543
  
           ------------------------
               RI-J - INFORMATION
           ------------------------
 Contributions to RI integral batches: 
  neglected integral batches:                   537
  direct contribution:                            0
  memory contribution:                  6484
 Memory core needed for (P|Q) and Cholesky      1 MByte
 Memory core minimum needed except of (P|Q)     1 MByte
 Total minimum memory core needed (sum)         2 MByte
  
 ****************************************
 Memory allocated for RI-J   238 MByte
 ****************************************
                                            

          ------------------------
          nuclear repulsion energy  :   121.912064313    
          ------------------------


         -----------------
         -S,T+V- integrals
         -----------------

 1e-integrals will be neglected if expon. factor < 0.721806E-14
 
   Difference densities algorithm switched on.
   The maximal number of linear combinations of
   difference densities is                    20 .

 DIIS switched on: error vector is FDS-SDF
 Max. Iterations for DIIS is     :   4
 DIIS matrix (see manual) 
    Scaling factor of diagonals  :  1.200
    threshold for scaling factor :  0.000

 scf convergence criterion : increment of total energy < .1000000D-08
                  and increment of one-electron energy < .1000000D-05

  MOs are in ASCII format !


 automatic virtual orbital shift switched on 
      shift if e(lumo)-e(homo) < 0.10000000    


 reading orbital data $scfmo  from file mos
 orbital characterization : expanded
 mo provided and orthogonalized by Cholesky decomposition

 DSCF restart information will be dumped onto file mos


 Starting SCF iterations

          Overall gridpoints after grid construction =         42921

 ITERATION  ENERGY          1e-ENERGY        2e-ENERGY     NORM[dD(SAO)]  TOL
   1  -208.07717776878    -521.56698097     191.57773889    0.000D+00 0.720D-13
                            Exc = -27.7947243045     Coul =  219.372463197    
                              N = 32.000037672    
                            current damping = 0.700
 
          max. resid. norm for Fia-block=  8.053D-01 for orbital      5a         
          max. resid. fock norm         =  8.334D+01 for orbital    342a         

 ITERATION  ENERGY          1e-ENERGY        2e-ENERGY     NORM[dD(SAO)]  TOL
   2  -208.91417828461    -523.97691506     193.15067246    0.106D+01 0.533D-13
                            Exc = -27.8149708798     Coul =  220.965643339    
                              N = 32.000032084    
                            current damping = 0.650
 
          Norm of current diis error:  2.4026    
          max. resid. norm for Fia-block=  1.582D-01 for orbital      1a         
          max. resid. fock norm         =  3.407D-01 for orbital    206a         

 ITERATION  ENERGY          1e-ENERGY        2e-ENERGY     NORM[dD(SAO)]  TOL
   3  -209.02868700000    -525.06047342     194.11972211    0.481D+00 0.392D-13
                            Exc = -27.9676958456     Coul =  222.087417955    
                              N = 32.000027945    
                            current damping = 0.550
 
          Norm of current diis error:  1.1324    
          max. resid. norm for Fia-block=  6.402D-02 for orbital      1a         
          max. resid. fock norm         =  7.606D-02 for orbital    178a         

 ITERATION  ENERGY          1e-ENERGY        2e-ENERGY     NORM[dD(SAO)]  TOL
   4  -209.06396272454    -524.80264828     193.82662124    0.282D+00 0.313D-13
                            Exc = -27.9261214650     Coul =  221.752742707    
                              N = 32.000026609    
                            current damping = 0.600
 
          Norm of current diis error: 0.49423    
          max. resid. norm for Fia-block=  3.186D-02 for orbital      5a         
          max. resid. fock norm         =  7.158D-02 for orbital    360a         

 ITERATION  ENERGY          1e-ENERGY        2e-ENERGY     NORM[dD(SAO)]  TOL
   5  -209.06933343102    -525.24585547     194.26445772    0.107D+00 0.287D-13
                            Exc = -27.9901402236     Coul =  222.254597946    
                              N = 32.000026032    
                            current damping = 0.650
 
          Norm of current diis error: 0.28398    
          max. resid. norm for Fia-block=  1.000D-02 for orbital     16a         
          max. resid. fock norm         =  1.102D-02 for orbital     17a         
          mo-orthogonalization: Cholesky decomposition

 ITERATION  ENERGY          1e-ENERGY        2e-ENERGY     NORM[dD(SAO)]  TOL
   6  -209.07190715377    -525.21218318     194.22821171    0.386D-01 0.268D-13
                            Exc = -27.9854260152     Coul =  222.213637727    
                              N = 32.000025803    
                            current damping = 0.700
 
          Norm of current diis error: 0.72817E-01
          max. resid. norm for Fia-block=  3.739D-03 for orbital     14a         
          max. resid. fock norm         =  5.987D-03 for orbital    350a         

 ITERATION  ENERGY          1e-ENERGY        2e-ENERGY     NORM[dD(SAO)]  TOL
   7  -209.07209130115    -525.14722975     194.16307414    0.105D-01 0.257D-13
                            Exc = -27.9775815684     Coul =  222.140655708    
                              N = 32.000025881    
                            current damping = 0.550
 
          Norm of current diis error: 0.32645E-01
          max. resid. norm for Fia-block=  1.864D-03 for orbital      5a         
          max. resid. fock norm         =  3.108D-03 for orbital    366a         

 ITERATION  ENERGY          1e-ENERGY        2e-ENERGY     NORM[dD(SAO)]  TOL
   8  -209.07212316675    -525.17254985     194.18836237    0.208D-02 0.252D-13
                            Exc = -27.9813877395     Coul =  222.169750111    
                              N = 32.000025820    
                            current damping = 0.600
 
          Norm of current diis error: 0.90492E-02
          max. resid. norm for Fia-block=  5.840D-04 for orbital      5a         
          max. resid. fock norm         =  9.749D-04 for orbital    361a         

 ITERATION  ENERGY          1e-ENERGY        2e-ENERGY     NORM[dD(SAO)]  TOL
   9  -209.07212631950    -525.17998841     194.19579778    0.524D-03 0.247D-13
                            Exc = -27.9822007114     Coul =  222.177998487    
                              N = 32.000025814    
                            current damping = 0.450
 
          Norm of current diis error: 0.35183E-02
          max. resid. norm for Fia-block=  2.264D-04 for orbital     16a         
          max. resid. fock norm         =  2.786D-04 for orbital    178a         

 ITERATION  ENERGY          1e-ENERGY        2e-ENERGY     NORM[dD(SAO)]  TOL
  10  -209.07212661402    -525.17508830     194.19089738    0.195D-03 0.245D-13
                            Exc = -27.9817617162     Coul =  222.172659093    
                              N = 32.000025811    
                            current damping = 0.500
 
          Norm of current diis error: 0.30982E-02
          max. resid. norm for Fia-block=  1.409D-04 for orbital     15a         
          max. resid. fock norm         =  2.771D-04 for orbital    350a         
          mo-orthogonalization: Cholesky decomposition

 ITERATION  ENERGY          1e-ENERGY        2e-ENERGY     NORM[dD(SAO)]  TOL
  11  -209.07212687186    -525.17587538     194.19168419    0.655D-04 0.243D-13
                            Exc = -27.9819225293     Coul =  222.173606722    
                              N = 32.000025812    
                            current damping = 0.550
 
          Norm of current diis error: 0.12302E-02
          max. resid. norm for Fia-block=  5.666D-05 for orbital      9a         
          max. resid. fock norm         =  6.627D-05 for orbital    359a         

 ITERATION  ENERGY          1e-ENERGY        2e-ENERGY     NORM[dD(SAO)]  TOL
  12  -209.07212690141    -525.17811696     194.19392575    0.316D-04 0.242D-13
                            Exc = -27.9821384085     Coul =  222.176064156    
                              N = 32.000025810    
                            current damping = 0.400
 
          Norm of current diis error: 0.38861E-03
          max. resid. norm for Fia-block=  1.911D-05 for orbital     16a         
          max. resid. fock norm         =  2.159D-05 for orbital     17a         

 ITERATION  ENERGY          1e-ENERGY        2e-ENERGY     NORM[dD(SAO)]  TOL
  13  -209.07212690383    -525.17769138     194.19350016    0.451D-05 0.240D-13
                            Exc = -27.9820646889     Coul =  222.175564848    
                              N = 32.000025811    
                            current damping = 0.450
 
          Norm of current diis error: 0.33567E-03
          max. resid. norm for Fia-block=  8.209D-06 for orbital      8a         
          max. resid. fock norm         =  1.312D-05 for orbital    178a         

 ITERATION  ENERGY          1e-ENERGY        2e-ENERGY     NORM[dD(SAO)]  TOL
  14  -209.07212690604    -525.17752692     194.19333570    0.334D-05 0.239D-13
                            Exc = -27.9820653735     Coul =  222.175401071    
                              N = 32.000025811    
                            current damping = 0.300
 
          Norm of current diis error: 0.10227E-03
          max. resid. norm for Fia-block=  4.320D-06 for orbital     15a         
          max. resid. fock norm         =  7.181D-06 for orbital    350a         

 ITERATION  ENERGY          1e-ENERGY        2e-ENERGY     NORM[dD(SAO)]  TOL
  15  -209.07212690630    -525.17764932     194.19345810    0.890D-06 0.238D-13
                            Exc = -27.9820806295     Coul =  222.175538732    
                              N = 32.000025811    
                            current damping = 0.350
 
          Norm of current diis error: 0.49128E-04
          max. resid. norm for Fia-block=  1.858D-06 for orbital     15a         
          max. resid. fock norm         =  2.568D-06 for orbital    352a         
          mo-orthogonalization: Cholesky decomposition

 ENERGY CONVERGED !

          Overall gridpoints after grid construction =        140591

 ITERATION  ENERGY          1e-ENERGY        2e-ENERGY     NORM[dD(SAO)]  TOL
  16  -209.07212972978    -525.17764704     194.19345300    0.224D-06 0.236D-13
                            Exc = -27.9820829653     Coul =  222.175535964    
                              N = 31.999998762    
                            current damping = 0.400
 
          Norm of current diis error: 0.13182E-04
          max. resid. norm for Fia-block=  4.684D-07 for orbital      9a         
          max. resid. fock norm         =  6.021D-07 for orbital    190a         

 End of SCF iterations

   convergence criteria satisfied after    16 iterations


                  ------------------------------------------ 
                 |  total energy      =   -209.07212972978  |
                  ------------------------------------------ 
                 :  kinetic energy    =    208.27476252196  :
                 :  potential energy  =   -417.34689225174  :
                 :  virial theorem    =      1.99618616212  :
                 :  wavefunction norm =      1.00000000000  :
                  .......................................... 


 <geterg> : there is no data group $energy 


 <skperg> : $end is missing 


 orbitals $scfmo  will be written to file mos

    irrep                 12a         13a         14a         15a         16a   
 eigenvalues H         -0.36189    -0.34840    -0.32714    -0.23889    -0.20564
            eV          -9.8476     -9.4805     -8.9019     -6.5006     -5.5957
 occupation              2.0000      2.0000      2.0000      2.0000      2.0000 

    irrep                 17a         18a         19a         20a         21a   
 eigenvalues H         -0.01760    -0.01504     0.02638     0.03498     0.07100
            eV          -0.4789     -0.4093      0.7178      0.9518      1.9321
 
 
 
 
 ==============================================================================
                           electrostatic moments
 ==============================================================================

 reference point for electrostatic moments:    0.00000   0.00000   0.00000

 
              nuc           elec       ->  total
 ------------------------------------------------------------------------------
                          charge      
 ------------------------------------------------------------------------------
          32.000000     -32.000000      -0.000000
 
 ------------------------------------------------------------------------------
                       dipole moment  
 ------------------------------------------------------------------------------
   x     -81.863982      81.334801      -0.529181
   y      67.768989     -69.214557      -1.445568
   z      -9.439968       9.216426      -0.223542
 
   | dipole moment | =     1.5555 a.u. =     3.9538 debye 
 
 ------------------------------------------------------------------------------
                     quadrupole moment
 ------------------------------------------------------------------------------
  xx     323.397086    -337.702986     -14.305900
  yy     235.738860    -259.943670     -24.204810
  zz      10.242901     -28.865162     -18.622260
  xy    -182.587699     182.335879      -0.251820
  xz      24.464128     -24.131924       0.332203
  yz      -7.035862       7.039198       0.003336
 
     1/3  trace=     -19.044324
     anisotropy=       8.626324
 
 ==============================================================================
 


    ------------------------------------------------------------------------
         total  cpu-time :  42.51 seconds
         total wall-time :  2 minutes and 21 seconds
    ------------------------------------------------------------------------

   ****  ridft : all done  ****


    2018-05-18 15:38:44.830 

