
   OpenMP run-time library returned nthreads = 28
 operating system is UNIX !

 dscf (c-13-38) : TURBOMOLE V7.3 ( 22142 ) 4 Jul 2018 at 18:12:42
 Copyright (C) 2018 TURBOMOLE GmbH, Karlsruhe


    2019-03-25 23:41:15.614 



                             d s c f - program

                   idea & directorship : reinhart ahlrichs
                   program development : marco haeser
                                         michael baer
                           dft version : oliver treutler


                          quantum chemistry group
                          universitaet  karlsruhe
                                  germany




                          References             
                                                 
          TURBOMOLE:                             
              R. Ahlrichs, M. Baer, M. Haeser, H. Horn, and
              C. Koelmel
              Electronic structure calculations on workstation
              computers: the program system TURBOMOLE
              Chem. Phys. Lett. 162: 165 (1989)
          Density Functional:                              
              O. Treutler and R. Ahlrichs                      
              Efficient Molecular Numerical Integration Schemes
              J. Chem. Phys. 102: 346 (1995)                   
          Parallel Version:                                
              Performance of parallel TURBOMOLE for Density    
              Functional Calculations                          
              M. v. Arnim and R. Ahlrichs                      
              J. Comp. Chem. 19: 1746 (1998)                   
                                         




              +--------------------------------------------------+
              | Atomic coordinate, charge and isotop information |
              +--------------------------------------------------+

                    atomic coordinates            atom    charge  isotop
         -4.21408928   -0.28723837    4.89628041    c      6.000     0
         -1.79523983   -1.39650761    4.99454617    c      6.000     0
          0.24755412    0.28912810    5.03989960    c      6.000     0
         -2.26011245    3.62260500    4.98698726    c      6.000     0
          1.49477337   -3.70764267    4.95864137    c      6.000     0
         -4.39928244    2.25255355    4.90194959    n      7.000     0
          0.14172946    2.81947139    5.05312768    n      7.000     0
         -0.98265759   -3.88905638    4.94352356    n      7.000     0
          2.35837821   -1.24532952    5.04178932    n      7.000     0
         -6.38349488   -1.67240763    4.84336808    n      7.000     0
         -2.52278439    5.65972977    4.97375918    h      1.000     0
          2.79301522   -5.28367427    4.88305233    h      1.000     0
          4.17440503   -0.66140415    4.90761877    h      1.000     0
         -7.96519565   -0.73321374    4.31802421    h      1.000     0
         -6.25499350   -3.50544198    4.31424476    h      1.000     0
         11.75409655   -2.40373164   -0.19464179    c      0.000     0
         12.01109930    0.16251645   -0.12661165    c      0.000     0
          9.86437041    1.80657818   -0.31180481    c      0.000     0
          7.41339562    0.69163976   -0.57447674    c      0.000     0
          7.14694423   -1.98232271   -0.66329387    c      0.000     0
          9.32390874   -3.57536184   -0.45353427    c      0.000     0
          4.71108725   -3.08214332   -0.90706854    c      0.000     0
          9.01399365   -6.20397089   -0.50077743    c      0.000     0
          6.62537982   -7.32646822   -0.72754456    c      0.000     0
          4.43707696   -5.75043662   -0.94486307    c      0.000     0
          6.28333939  -10.01365878   -0.73699319    c      0.000     0
          3.93440981  -11.06812596   -0.89950964    c      0.000     0
          1.70453297   -9.53744779   -1.06580554    c      0.000     0
          1.98988162   -6.85025723   -1.09415143    c      0.000     0
         -0.17763426   -5.27989482   -1.26233706    c      0.000     0
          0.09637603   -2.60026316   -1.26422678    c      0.000     0
          2.53601247   -1.50233228   -1.12627678    c      0.000     0
          5.24776947    2.26389191   -0.77667744    c      0.000     0
          2.80246386    1.16407130   -1.01856239    c      0.000     0
          0.63305825    2.73443371   -1.15651239    c      0.000     0
         -1.80279873    1.63650283   -1.33414665    c      0.000     0
         -2.07491929   -1.02990074   -1.34926446    c      0.000     0
         -2.62293987   -6.37593597   -1.31902884    c      0.000     0
         -4.79990438   -4.80179410   -1.37005145    c      0.000     0
         -4.52967354   -2.13350080   -1.44375077    c      0.000     0
         -0.72565484  -10.58246634   -1.15840212    c      0.000     0
         -2.89317071   -9.06312653   -1.26044733    c      0.000     0
         -7.27166616   -5.89972499   -1.38894871    c      0.000     0
         -9.39193888   -4.31424476   -1.43241241    c      0.000     0
         -9.16517174   -1.67618708   -1.46642748    c      0.000     0
         -6.70285859   -0.56124866   -1.45130967    c      0.000     0
         -3.98732214    3.21064470   -1.35115419    c      0.000     0
         -6.43073803    2.11082409   -1.44186104    c      0.000     0
         -5.39138866  -10.11003481   -1.29257267    c      0.000     0
         -7.48142576   -8.60014363   -1.34737473    c      0.000     0
         -8.61904089    3.69819404   -1.42863296    c      0.000     0
        -11.06056706    2.52845357   -1.46453775    c      0.000     0
        -11.32323899   -0.03779452   -1.47776584    c      0.000     0
         -8.31101553    6.32680309   -1.36627199    c      0.000     0
         -5.91673252    7.44930042   -1.28123432    c      0.000     0
         -3.71709130    5.87704827   -1.27745487    c      0.000     0
         -1.27367541    6.97686888   -1.09415143    c      0.000     0
          0.90328909    5.41028592   -1.04879800    c      0.000     0
          3.34103580    6.50632708   -0.82203087    c      0.000     0
          5.51044140    4.93218521   -0.65195552    c      0.000     0
          7.97086483    6.02822636   -0.40629112    c      0.000     0
         10.08546837    4.44274614   -0.23810549    c      0.000     0
          8.17306552    8.72864501   -0.31936372    c      0.000     0
          3.59803856    9.19351764   -0.69541922    c      0.000     0
          6.08680787   10.23853619   -0.45920345    c      0.000     0
         -0.99588567    9.66405944   -0.98454732    c      0.000     0
          1.42863296   10.70907800   -0.79557470    c      0.000     0
         -5.58036127   10.13649098   -1.18107883    c      0.000     0
         -3.23143169   11.19284789   -1.04312883    c      0.000     0
         13.40760691   -3.61315637   -0.04535343    h      0.000     0
         13.87058982    1.01100348    0.06991987    h      0.000     0
         10.67317320   -7.40772644   -0.34204043    h      0.000     0
          7.94629839  -11.20985542   -0.59526373    h      0.000     0
          3.71331185  -13.11280964   -0.88817128    h      0.000     0
         -0.93919389  -12.62715002   -1.12249732    h      0.000     0
        -11.26843693   -5.15706262   -1.44186104    h      0.000     0
         -5.59169963  -12.15471849   -1.25855760    h      0.000     0
         -9.35981354   -9.43351286   -1.36060282    h      0.000     0
        -12.72163633    3.73976802   -1.47020693    h      0.000     0
        -13.19406786   -0.88817128   -1.49288364    h      0.000     0
         -9.97964371    7.52866891   -1.35871309    h      0.000     0
         11.95062806    5.28556399   -0.04346370    h      0.000     0
         10.04200467    9.56012451   -0.13228083    h      0.000     0
          6.28144967   12.28321986   -0.37983495    h      0.000     0
          1.63461310   12.75376167   -0.70864730    h      0.000     0
         -7.25276890   11.32890817   -1.20753500    h      0.000     0
         -3.01600291   13.23564183   -0.96187060    h      0.000     0
 
       center of nuclear mass  :    0.02271449   -0.00494145    0.00383207
       center of nuclear charge:   -1.62565040   -0.36493311    4.94487337

              +--------------------------------------------------+
              |               basis set information              |
              +--------------------------------------------------+

              we will work with the 1s 3p 5d 7f 9g ... basis set
              ...i.e. with spherical basis functions...

   type   atoms  prim   cont   basis
   ---------------------------------------------------------------------------
    c       59     50     30   cc-pVTZ   [4s3p2d1f|18s5p2d1f]
    n        5     50     30   cc-pVTZ   [4s3p2d1f|18s5p2d1f]
    h       23     16     14   cc-pVTZ   [3s2p1d|5s2p1d]
   ---------------------------------------------------------------------------
   total:   87   3568   2242
   ---------------------------------------------------------------------------

   total number of primitive shells          :   60
   total number of contracted shells         :  778
   total number of cartesian basis functions : 2585
   total number of SCF-basis functions       : 2242


 integral neglect threshold       :  0.13E-13
 integral storage threshold THIZE :  0.10E-04
 integral storage threshold THIME :         5


 DENSITY CONVERGENCE CHECK SWITCHED ON !
 SCF CONVERGENCE IF RMS(delta[D]) <     0.1000000000E-06


 symmetry group of the molecule :   c1 

 the group has the following generators :
   c1(z)

    1 symmetry operations found

 there are 1 real representations :   a   

 maximum number of shells which are related by symmetry :  1


    mo occupation :
   irrep   mo's   occupied
    a     2242       35
 
 number of basis functions   :                   2242
 number of occupied orbitals :                     35
 

 automatic virtual orbital shift switched on 
      shift if e(lumo)-e(homo) < 0.10000000    


          ------------------------
          nuclear repulsion energy  :   501.223591933    
          ------------------------


         -----------------
         -S,T+V- integrals
         -----------------

 1e-integrals will be neglected if expon. factor < 0.129283E-14
 
   Difference densities algorithm switched on.
   The maximal number of linear combinations of
   difference densities is                    20 .

 DIIS switched on: error vector is FDS-SDF
 Max. Iterations for DIIS is     :   5
 DIIS matrix (see manual) 
    Scaling factor of diagonals  :  1.200
    threshold for scaling factor :  0.000

 scf convergence criterion : increment of total energy < .1000000D-08
                  and increment of one-electron energy < .1000000D-05

  MOs are in ASCII format !


 reading orbital data $scfmo  from file mos
 orbital characterization : expanded
 mo provided and orthogonalized by Cholesky decomposition

 DSCF restart information will be dumped onto file mos

 
                                              current damping :  0.700
 ITERATION  ENERGY          1e-ENERGY        2e-ENERGY     RMS[dD(SAO)]   TOL
   1  -462.70368208938    -1614.8678018     650.94052773    0.000D+00 0.129D-13
          max. resid. norm for Fia-block=  3.516D-01 for orbital     33a         
          max. resid. fock norm         =  1.576D+01 for orbital   2105a         
          Delta Eig. =   826.6286111688 eV 
 
                                              current damping :  0.650
 ITERATION  ENERGY          1e-ENERGY        2e-ENERGY     RMS[dD(SAO)]   TOL
   2  -464.21451214751    -1621.3366762     655.89857217    0.254D-02 0.104D-13
          Norm of current diis error:  3.3448    
          max. resid. norm for Fia-block=  1.581D-01 for orbital     11a         
          max. resid. fock norm         =  2.299D-01 for orbital   2187a         
          Delta Eig. =   350.8775428985 eV 
 
                                              current damping :  0.550
 ITERATION  ENERGY          1e-ENERGY        2e-ENERGY     RMS[dD(SAO)]   TOL
   3  -464.54944210145    -1623.9236968     658.15066281    0.110D-02 0.710D-14
          Norm of current diis error:  1.6083    
          max. resid. norm for Fia-block=  8.034D-02 for orbital     11a         
          max. resid. fock norm         =  8.615D-02 for orbital     11a         
          Delta Eig. =   147.1576979705 eV 
 
                                              current damping :  0.450
 ITERATION  ENERGY          1e-ENERGY        2e-ENERGY     RMS[dD(SAO)]   TOL
   4  -464.64881161623    -1624.8879572     659.01555364    0.759D-03 0.569D-14
          Norm of current diis error: 0.69115    
          max. resid. norm for Fia-block=  3.575D-02 for orbital     12a         
          max. resid. fock norm         =  3.819D-02 for orbital     11a         
          Delta Eig. =    55.8264500727 eV 
 
                                              current damping :  0.300
 ITERATION  ENERGY          1e-ENERGY        2e-ENERGY     RMS[dD(SAO)]   TOL
   5  -464.67246939400    -1625.2623665     659.36630520    0.570D-03 0.481D-14
          Norm of current diis error: 0.26548    
          max. resid. norm for Fia-block=  1.487D-02 for orbital     30a         
          max. resid. fock norm         =  1.531D-02 for orbital     30a         
 mo-orthogonalization: Cholesky decomposition
          Delta Eig. =    19.3318662103 eV 
 
                                              current damping :  0.150
 ITERATION  ENERGY          1e-ENERGY        2e-ENERGY     RMS[dD(SAO)]   TOL
   6  -464.67713955877    -1625.4004804     659.49974895    0.357D-03 0.430D-14
          Norm of current diis error: 0.86920E-01
          max. resid. norm for Fia-block=  5.584D-03 for orbital     32a         
          max. resid. fock norm         =  5.663D-03 for orbital     32a         
          Delta Eig. =     5.0488090817 eV 
 
                                              current damping :  0.050
 ITERATION  ENERGY          1e-ENERGY        2e-ENERGY     RMS[dD(SAO)]   TOL
   7  -464.67784282736    -1625.4326803     659.53124553    0.162D-03 0.400D-14
          Norm of current diis error: 0.26587E-01
          max. resid. norm for Fia-block=  2.538D-03 for orbital     32a         
          max. resid. fock norm         =  2.558D-03 for orbital     32a         
          Delta Eig. =     0.7235259639 eV 
 
                                              current damping :  0.050
 ITERATION  ENERGY          1e-ENERGY        2e-ENERGY     RMS[dD(SAO)]   TOL
   8  -464.67793626815    -1625.4369408     659.53541261    0.508D-04 0.383D-14
          Norm of current diis error: 0.95453E-02
          max. resid. norm for Fia-block=  9.153D-04 for orbital     32a         
          max. resid. fock norm         =  9.443D-04 for orbital     32a         
          Delta Eig. =     0.0393260707 eV 
 
                                              current damping :  0.100
 ITERATION  ENERGY          1e-ENERGY        2e-ENERGY     RMS[dD(SAO)]   TOL
   9  -464.67794958458    -1625.4355846     659.53404306    0.115D-04 0.373D-14
          Norm of current diis error: 0.38473E-02
          max. resid. norm for Fia-block=  5.387D-04 for orbital     32a         
          max. resid. fock norm         =  5.847D-04 for orbital     32a         
          Delta Eig. =     0.0178009079 eV 
 
                                              current damping :  0.050
 ITERATION  ENERGY          1e-ENERGY        2e-ENERGY     RMS[dD(SAO)]   TOL
  10  -464.67795184069    -1625.4350717     659.53352793    0.335D-05 0.367D-14
          Norm of current diis error: 0.23617E-02
          max. resid. norm for Fia-block=  1.844D-04 for orbital     30a         
          max. resid. fock norm         =  2.558D-04 for orbital   2184a         
 mo-orthogonalization: Cholesky decomposition
          Delta Eig. =     0.0135787342 eV 
 
                                              current damping :  0.050
 ITERATION  ENERGY          1e-ENERGY        2e-ENERGY     RMS[dD(SAO)]   TOL
  11  -464.67795246454    -1625.4347736     659.53322917    0.261D-05 0.362D-14
          Norm of current diis error: 0.74626E-03
          max. resid. norm for Fia-block=  1.058D-04 for orbital     32a         
          max. resid. fock norm         =  1.091D-04 for orbital     32a         
          Delta Eig. =     0.0032579132 eV 
 
                                              current damping :  0.050
 ITERATION  ENERGY          1e-ENERGY        2e-ENERGY     RMS[dD(SAO)]   TOL
  12  -464.67795256724    -1625.4344044     659.53285994    0.130D-05 0.358D-14
          Norm of current diis error: 0.27960E-03
          max. resid. norm for Fia-block=  2.695D-05 for orbital     34a         
          max. resid. fock norm         =  2.966D-05 for orbital     35a         
          Delta Eig. =     0.0014189719 eV 
 
                                              current damping :  0.100
 ITERATION  ENERGY          1e-ENERGY        2e-ENERGY     RMS[dD(SAO)]   TOL
  13  -464.67795257734    -1625.4345020     659.53295746    0.437D-06 0.355D-14
          Norm of current diis error: 0.11646E-03
          max. resid. norm for Fia-block=  1.318D-05 for orbital     35a         
          max. resid. fock norm         =  1.419D-05 for orbital     35a         
          Delta Eig. =     0.0007950195 eV 
 
                                              current damping :  0.150
 ITERATION  ENERGY          1e-ENERGY        2e-ENERGY     RMS[dD(SAO)]   TOL
  14  -464.67795257887    -1625.4343928     659.53284829    0.146D-06 0.353D-14
          Norm of current diis error: 0.45333E-04
          max. resid. norm for Fia-block=  5.139D-06 for orbital     34a         
          max. resid. fock norm         =  5.235D-06 for orbital     34a         
          Delta Eig. =     0.0001298648 eV 

 DENSITY CONVERGED !

 
                                              current damping :  0.200
 ITERATION  ENERGY          1e-ENERGY        2e-ENERGY     RMS[dD(SAO)]   TOL
  15  -464.67795257920    -1625.4344101     659.53286554    0.534D-07 0.350D-14
          Norm of current diis error: 0.19861E-04
          max. resid. norm for Fia-block=  2.863D-06 for orbital     35a         
          max. resid. fock norm         =  2.903D-06 for orbital     35a         
 mo-orthogonalization: Cholesky decomposition
          Delta Eig. =     0.0000430132 eV 

 DENSITY CONVERGED !

 
                                              current damping :  0.250
 ITERATION  ENERGY          1e-ENERGY        2e-ENERGY     RMS[dD(SAO)]   TOL
  16  -464.67795257924    -1625.4344038     659.53285932    0.230D-07 0.367D-14
          Norm of current diis error: 0.96248E-05
          max. resid. norm for Fia-block=  1.651D-06 for orbital     34a         
          max. resid. fock norm         =  1.694D-06 for orbital     34a         
          Delta Eig. =     0.0000186820 eV 

 ENERGY & DENSITY CONVERGED !

 
                                              current damping :  0.300
 ITERATION  ENERGY          1e-ENERGY        2e-ENERGY     RMS[dD(SAO)]   TOL
  17  -464.67795257927    -1625.4344043     659.53285982    0.104D-07 0.367D-14
          max. resid. norm for Fia-block=  4.727D-07 for orbital     35a         
          max. resid. fock norm         =  4.807D-07 for orbital     35a         

 convergence criteria satisfied after    17 iterations


                  ------------------------------------------ 
                 |  total energy      =   -464.67795257927  |
                  ------------------------------------------ 
                 :  kinetic energy    =    463.66122000782  :
                 :  potential energy  =   -928.33917258709  :
                 :  virial theorem    =      1.99781196296  :
                 :  wavefunction norm =      1.00000000000  :
                  .......................................... 


 <geterg> : there is no data group $energy 


 orbitals $scfmo  will be written to file mos

    irrep                 31a         32a         33a         34a         35a   
 eigenvalues H         -0.45117    -0.42585    -0.41013    -0.37284    -0.31042
            eV         -12.2772    -11.5879    -11.1603    -10.1455     -8.4470
 occupation              2.0000      2.0000      2.0000      2.0000      2.0000 

    irrep                 36a         37a         38a         39a         40a   
 eigenvalues H          0.04946     0.05786     0.06447     0.07392     0.07693
            eV           1.3460      1.5746      1.7542      2.0114      2.0933
 
 
 
 
 ==============================================================================
                           electrostatic moments
 ==============================================================================

 reference point for electrostatic moments:    0.00000   0.00000   0.00000

 
              nuc           elec       ->  total
 ------------------------------------------------------------------------------
                          charge      
 ------------------------------------------------------------------------------
          70.000000     -70.000000      -0.000000
 
 ------------------------------------------------------------------------------
                       dipole moment  
 ------------------------------------------------------------------------------
   x    -113.795528     114.475473       0.679944
   y     -25.545318      24.826344      -0.718973
   z     346.141136    -346.480759      -0.339624
 
   | dipole moment | =     1.0462 a.u. =     2.6592 debye 
 
 ------------------------------------------------------------------------------
                     quadrupole moment
 ------------------------------------------------------------------------------
  xx     771.023764    -804.427989     -33.404225
  yy     474.602012    -518.331698     -43.729686
  zz    1712.748506   -1760.485226     -47.736720
  xy     -49.319780      48.203507      -1.116273
  xz    -546.206662     551.824831       5.618170
  yz    -120.851941     118.187214      -2.664727
 
     1/3  trace=     -41.623544
     anisotropy=      16.845709
 
 ==============================================================================
 


    ------------------------------------------------------------------------
         total  cpu-time :   3 days 12 hours 20 minutes and 56 seconds
         total wall-time :  3 hours  6 minutes and 53 seconds
    ------------------------------------------------------------------------

   ****  dscf : all done  ****


    2019-03-26 02:48:08.405 

