
   OpenMP run-time library returned nthreads = 24

 rirpa (c-19-294) : TURBOMOLE V7.3 ( 22142 ) 4 Jul 2018 at 18:12:42
 Copyright (C) 2018 TURBOMOLE GmbH, Karlsruhe


    2019-02-25 12:15:35.389 

 
 
    *************************************************************************
    *************************** PROGRAM RIRPA *******************************
    ******                                                             ******
    ******              H. Eshuis, J. E. Bates and F. Furche           ******
    ******                                                             ******
    ****** Nov 2011                                                    ******
    ****** Copyright TURBOMOLE GmbH                                    ******
    *************************************************************************
    
    
                                References:                                  
    
                   RIRPA:                                                    
                     H. Eshuis, J. Yarkony and F. Furche                     
                     Fast computation of molecular random phase              
                     approximation correlation energies using resolution     
                     of the identity imaginary frequency integration         
                     J. Chem. Phys. 132: 234114 (2010)                       
    
                     H. Eshuis, J. E. Bates and F. Furche                    
                     Electron correlation methods based on                   
                     the random phase approximation                          
                     Theor. Chem. Acc.  131: 1084 (2012)                     
    
                   TWO-COMPONENT RIRPA:                                      
                     M. Kuehn                                                
                     Correlation energies from the                           
                     two-component random-phase approximation                
                     J. Chem. Theory Comput. 10: 623 (2014)                  
    
                   RIRPA GRADIENTS:                                          
                     Asbjoern M. Burow, Jefferson E. Bates, Filipp Furche*,  
                     and Henk Eshuis                                         
                     Analytical First-Order Molecular Properties and Forces  
                     within the Adiabatic Connection Random Phase            
                     Approximation                                           
                     J. Chem. Theory Comput. 10: 180 (2014)                  
    
    
    
      ... OpenMP parallelization enabled, threads:   24

   *-----------------------------------------------------------------------*
   |                     program will use 24 thread(s)                     |
   *-----------------------------------------------------------------------*
 
                FOUND RI-J FLAG
 
  HF exact exchange energy will be computed using RI-J.
 
  The HXX energy will NOT be computed due to nohxx option. 
 


              +--------------------------------------------------+
              | Atomic coordinate, charge and isotop information |
              +--------------------------------------------------+

                    atomic coordinates            atom    charge  isotop
          5.88813734   -0.70500111   -3.88530633    c      6.000     0
          7.46496904   -2.38289009   -5.13073509    c      6.000     0
          6.19761535   -4.75225758   -5.25814494    c      6.000     0
          3.87407689   -4.48234434   -4.08010158    c      6.000     0
          6.25655002    2.06836852   -3.23433815    c      6.000     0
          8.85211165    2.91570881   -4.30422838    c      6.000     0
          4.19501577    3.67170285   -4.42889895    c      6.000     0
          4.06490585    4.65917784   -6.85091128    c      6.000     0
          1.83667183   -6.42713275   -3.52896087    c      6.000     0
          1.66054487   -6.81481300   -0.62701933    c      6.000     0
          2.59980314   -8.95714944   -4.74227316    c      6.000     0
         -0.72601665   -5.65077837   -4.54910354    c      6.000     0
         -2.04838460   -6.39009229   -6.68976864    c      6.000     0
          3.71857385   -2.01252912   -3.25806352    n      7.000     0
          1.98310132    4.30774632   -3.20879383    n      7.000     0
         -2.24478318   -3.97802917   -3.26667210    n      7.000     0
         -4.15907599    4.64798436   -4.41568789    c      6.000     0
         -6.48028542    4.84512158   -5.60879226    c      6.000     0
         -7.71677151    2.47038683   -5.40867641    c      6.000     0
         -6.12996903    0.84925868   -4.10611218    c      6.000     0
         -2.13848754    6.65231739   -4.03003251    c      6.000     0
         -2.13974460    7.53613285   -1.24140136    c      6.000     0
         -2.79846059    8.95469296   -5.68922149    c      6.000     0
          0.44688383    5.68912480   -4.79872978    c      6.000     0
          1.71037524    5.92415029   -7.08301053    c      6.000     0
         -6.53010342   -1.91484081   -3.43211771    c      6.000     0
         -9.11172712   -2.75083009   -4.53092405    c      6.000     0
         -4.48358576   -3.60980256   -4.52650733    c      6.000     0
         -4.41508378   -5.10700055   -6.67533547    c      6.000     0
         -3.97269821    2.20828396   -3.49967860    n      7.000     0
          6.34575111    2.44193288   -0.38789317    c      6.000     0
          6.46192400    4.64729941    1.07351646    c      6.000     0
          6.52036132    0.43558407    1.21210909    n      7.000     0
          6.71927213    3.90486132    3.63441499    c      6.000     0
          6.74847942    1.25794117    3.68513219    c      6.000     0
         -6.62919027   -2.29882688   -0.58046950    c      6.000     0
         -6.88286683   -4.52582839    0.83617046    c      6.000     0
         -6.54204615   -0.33167843    1.07238091    n      7.000     0
         -6.95682671   -3.83118729    3.42368179    c      6.000     0
         -6.71194691   -1.19616926    3.53401960    c      6.000     0
          6.86095942   -0.46080545    5.79072434    c      6.000     0
         -6.40633111    0.44657984    5.69220925    c      6.000     0
          7.08720383    0.09769553    8.02584205    o      8.000     0
         -6.49219102   -0.19914442    7.91542886    o      8.000     0
          6.64746838   -2.94317412    4.99414516    o      8.000     0
         -5.91207736    2.88315326    4.94930277    o      8.000     0
         -5.20137716    4.61259768    6.95610639    c      6.000     0
          6.62421050   -4.79673048    7.00371187    c      6.000     0
         -3.79805299    6.79601003    5.74249842    c      6.000     0
          5.90891401   -7.31357743    5.83219569    c      6.000     0
         -7.13144072   -5.61262007    5.62542875    c      6.000     0
          6.75959021    5.63813159    5.87596073    c      6.000     0
          4.12038686    5.94432367    7.06961147    c      6.000     0
         -4.51637395   -6.37341901    6.65528981    c      6.000     0
         -7.02473319   -7.17245329   -0.17684896    c      6.000     0
          6.24446126    7.31676831    0.14252854    c      6.000     0
          9.31498528   -1.95545823   -5.88328917    h      1.000     0
          6.91294824   -6.46186697   -6.11718603    h      1.000     0
          9.16706939    4.90725357   -3.86821718    h      1.000     0
          8.90569235    2.66076619   -6.35423917    h      1.000     0
         10.36192276    1.79274582   -3.44938126    h      1.000     0
          5.49230340    4.46937291   -8.30021361    h      1.000     0
          0.20941130   -8.22259998   -0.17816968    h      1.000     0
          1.18063681   -5.05205539    0.33889174    h      1.000     0
          3.48813808   -7.46672343    0.09094467    h      1.000     0
          2.79245819   -8.77488393   -6.79269918    h      1.000     0
          1.15872398  -10.38408544   -4.33996149    h      1.000     0
          4.40939192   -9.59764278   -3.97103940    h      1.000     0
         -1.40065386   -7.71858140   -8.10060452    h      1.000     0
          1.56219358    3.88484538   -1.34327131    h      1.000     0
         -1.71532600   -2.97192382   -1.68660340    h      1.000     0
         -7.20937915    6.51244613   -6.53536592    h      1.000     0
         -9.55595727    1.99757262   -6.15930542    h      1.000     0
         -0.73431615    9.03527581   -0.97223098    h      1.000     0
         -1.68925479    5.99272455    0.05090364    h      1.000     0
         -4.01221238    8.27914065   -0.76426059    h      1.000     0
         -2.92312634    8.43875333   -7.68669175    h      1.000     0
         -1.34122735   10.40399610   -5.46637761    h      1.000     0
         -4.61803796    9.74920401   -5.10632734    h      1.000     0
          1.01355427    6.89403705   -8.74037589    h      1.000     0
         -9.12249245   -2.52377794   -6.58537113    h      1.000     0
        -10.62590526   -1.60320879   -3.72039092    h      1.000     0
         -9.45337065   -4.73359669   -4.07621549    h      1.000     0
         -5.90238622   -5.28683590   -8.06451726    h      1.000     0
         -2.44705541    1.48027630   -2.52964106    h      1.000     0
          6.48226196   -1.39395833    0.65771515    h      1.000     0
         -6.22768384    1.48903708    0.57502657    h      1.000     0
         -4.02601229    3.58539466    8.30971824    h      1.000     0
         -6.92452666    5.22097300    7.93380824    h      1.000     0
          5.27000758   -4.19470698    8.44563693    h      1.000     0
          8.50078412   -4.85093127    7.87942904    h      1.000     0
         -2.12171029    6.10476613    4.75288769    h      1.000     0
         -3.20715826    8.13611141    7.20755759    h      1.000     0
         -5.00338125    7.79435423    4.39022116    h      1.000     0
          4.01772574   -7.22508599    5.00338354    h      1.000     0
          5.91844328   -8.78752516    7.28682169    h      1.000     0
          7.24863120   -7.84747545    4.34922478    h      1.000     0
         -8.15857165   -7.31414932    5.03354954    h      1.000     0
         -8.21137019   -4.72431101    7.14789059    h      1.000     0
          7.46137826    7.49463897    5.27407414    h      1.000     0
          8.06347995    4.90374261    7.30394796    h      1.000     0
          2.74330913    6.55993502    5.65827202    h      1.000     0
          4.17210667    7.32415404    8.61589661    h      1.000     0
          3.47719309    4.13405397    7.82962168    h      1.000     0
         -3.34347641   -7.19970451    5.16235008    h      1.000     0
         -4.70150603   -7.75987304    8.18457189    h      1.000     0
         -3.53862740   -4.71351157    7.40203372    h      1.000     0
         -6.17458100   -7.29211994   -2.05696733    h      1.000     0
         -8.98493976   -7.84467075   -0.32037590    h      1.000     0
         -6.01609637   -8.48818237    1.06297989    h      1.000     0
          6.15549118    7.38845944   -1.91903823    h      1.000     0
          7.85037307    8.47030623    0.76942183    h      1.000     0
          4.51739228    8.20878202    0.86280576    h      1.000     0
          2.21107366   -1.24238444   -2.29141503    h      1.000     0
 
       center of nuclear mass  :   -0.01730807    0.01354808   -0.30642988
       center of nuclear charge:   -0.01524957    0.01220420   -0.27924886
              +-------------------------------------------------+
              |        Rotational Constants Section             |
              +-------------------------------------------------+
                                   Center of Mass [a.u]:
              -0.01730807054420         0.01354808138301        -0.30642987922501
                     Principal Moments of Inertia [a.u.]
           34313.15679868828738     40956.94194882994634     42428.33965663001436
                       Rotational constants A,B,C [a.u.]
               0.00001457167007         0.00001220794269         0.00001178457616
                     Rotational constants A,B,C [cm**-1]
               0.00175441994013         0.00146982864521         0.00141885558058
                        Rotational constants A,B,C [MHz]
              52.59618662160081        44.06435423852775        42.53622020483764

   * BASIS SET information:

              +--------------------------------------------------+
              |               basis set information              |
              +--------------------------------------------------+

              we will work with the 1s 3p 5d 7f 9g ... basis set
              ...i.e. with spherical basis functions...

   type   atoms  prim   cont   basis
   ---------------------------------------------------------------------------
    c       46     50     30   cc-pVTZ   [4s3p2d1f|18s5p2d1f]
    n        6     50     30   cc-pVTZ   [4s3p2d1f|18s5p2d1f]
    o        4     50     30   cc-pVTZ   [4s3p2d1f|18s5p2d1f]
    h       58     16     14   cc-pVTZ   [3s2p1d|5s2p1d]
   ---------------------------------------------------------------------------
   total:  114   3728   2492
   ---------------------------------------------------------------------------

   total number of primitive shells          :   86
   total number of contracted shells         :  908
   total number of cartesian basis functions : 2830
   total number of SCF-basis functions       : 2492


   * AUXILIARY BASIS SET information:

              +--------------------------------------------------+
              |               basis set information              |
              +--------------------------------------------------+

              we will work with the 1s 3p 5d 7f 9g ... basis set
              ...i.e. with spherical basis functions...

   type   atoms  prim   cont   basis
   ---------------------------------------------------------------------------
    c       46     81     81   cc-pVTZ   [8s6p5d3f1g|8s6p5d3f1g]
    n        6     81     81   cc-pVTZ   [8s6p5d3f1g|8s6p5d3f1g]
    o        4     81     81   cc-pVTZ   [8s6p5d3f1g|8s6p5d3f1g]
    h       58     30     30   cc-pVTZ   [4s3p2d1f|4s3p2d1f]
   ---------------------------------------------------------------------------
   total:  114   6276   6276
   ---------------------------------------------------------------------------

   total number of primitive shells          :   79
   total number of contracted shells         : 1868
   total number of cartesian basis functions : 7686
   total number of SCF-basis functions       : 6276


   * RIJ AUXILIARY BASIS SET information:

              +--------------------------------------------------+
              |               basis set information              |
              +--------------------------------------------------+

              we will work with the 1s 3p 5d 7f 9g ... basis set
              ...i.e. with spherical basis functions...

   type   atoms  prim   cont   basis
   ---------------------------------------------------------------------------
    c       46     70     49   cc-pVTZ   [6s4p3d1f1g|12s5p4d2f1g]
    n        6     70     49   cc-pVTZ   [6s4p3d1f1g|12s5p4d2f1g]
    o        4     70     49   cc-pVTZ   [6s4p3d1f1g|12s5p4d2f1g]
    h       58     16     11   cc-pVTZ   [3s1p1d|5s2p1d]
   ---------------------------------------------------------------------------
   total:  114   4848   3382
   ---------------------------------------------------------------------------

   total number of primitive shells          :   80
   total number of contracted shells         : 1130
   total number of cartesian basis functions : 4112
   total number of SCF-basis functions       : 3382

  No keyword $dft found! - HARTREE FOCK CALCULATION

 reading orbital data $scfmo  from file mos
 orbital characterization : scfconv=7

 integral neglect threshold       :  0.28E+02

 scfconv                     7

 MAXIMUM CORE MEMORY WHICH CAN BE ALLOCATED DYNAMICALLY = 84000 MiB
              ( or 11010048000 double words per process)


 there are 1 real representations :   a   

 maximum number of shells which are related by symmetry :  1

 time elapsed for calculating density matrices :   0.987 sec

     total memory allocated for calculation of (Q|P)**(-1/2) : 451 MiB


     calculation of (P|Q) ...
     time in lp2sym        cpu: 21.48 sec    wall:  0.94 sec    ratio: 22.7


     calculation of the Cholesky decomposition of (P|Q)**(-1) ...
     time in invmetri      cpu: 43.44 sec    wall:  3.54 sec    ratio: 12.3

   threshold for RMS(d[D]) in SCF was     :  0.10E-06
   integral neglect threshold             :  0.43E-12
   derivative integral neglect threshold  :  0.10E-06


 setting up bound for integral derivative estimation

 increment for numerical differentiation : 0.00050000
 total memory allocated for calculation of (Q|P)**(-1/2) : 451 MiB
 Dividing biap into                    381  block chunks,
 using                   109 MiB per block
 Reserved                  41740 MiB for BLAS routines
 Estimated total memory usage:                  83788 MiB
 number of passes for ispin    1
 =    1
 
 Number of eigenvalues < 6e-3:                      0
 
 
            -----------------------------
            Complex frequency integration
            -----------------------------
 
 Number of Clenshaw-Curtis nodes:                    100
 Optimized scaling parameter    :    1.00000000000000     
 Sensitivity measure            :  -3.903960488216285E-013
 
 Done with rirpa frequency point #                     1
 Done with rirpa frequency point #                     2
 Done with rirpa frequency point #                     3
 Done with rirpa frequency point #                     4
 Done with rirpa frequency point #                     5
 Done with rirpa frequency point #                     6
 Done with rirpa frequency point #                     7
 Done with rirpa frequency point #                     8
 Done with rirpa frequency point #                     9
 Done with rirpa frequency point #                    10
 Done with rirpa frequency point #                    11
 Done with rirpa frequency point #                    12
 Done with rirpa frequency point #                    13
 Done with rirpa frequency point #                    14
 Done with rirpa frequency point #                    15
 Done with rirpa frequency point #                    16
 Done with rirpa frequency point #                    17
 Done with rirpa frequency point #                    18
 Done with rirpa frequency point #                    19
 Done with rirpa frequency point #                    20
 Done with rirpa frequency point #                    21
 Done with rirpa frequency point #                    22
 Done with rirpa frequency point #                    23
 Done with rirpa frequency point #                    24
 Done with rirpa frequency point #                    25
 Done with rirpa frequency point #                    26
 Done with rirpa frequency point #                    27
 Done with rirpa frequency point #                    28
 Done with rirpa frequency point #                    29
 Done with rirpa frequency point #                    30
 Done with rirpa frequency point #                    31
 Done with rirpa frequency point #                    32
 Done with rirpa frequency point #                    33
 Done with rirpa frequency point #                    34
 Done with rirpa frequency point #                    35
 Done with rirpa frequency point #                    36
 Done with rirpa frequency point #                    37
 Done with rirpa frequency point #                    38
 Done with rirpa frequency point #                    39
 Done with rirpa frequency point #                    40
 Done with rirpa frequency point #                    41
 Done with rirpa frequency point #                    42
 Done with rirpa frequency point #                    43
 Done with rirpa frequency point #                    44
 Done with rirpa frequency point #                    45
 Done with rirpa frequency point #                    46
 Done with rirpa frequency point #                    47
 Done with rirpa frequency point #                    48
 Done with rirpa frequency point #                    49
 Done with rirpa frequency point #                    50
 Done with rirpa frequency point #                    51
 Done with rirpa frequency point #                    52
 Done with rirpa frequency point #                    53
 Done with rirpa frequency point #                    54
 Done with rirpa frequency point #                    55
 Done with rirpa frequency point #                    56
 Done with rirpa frequency point #                    57
 Done with rirpa frequency point #                    58
 Done with rirpa frequency point #                    59
 Done with rirpa frequency point #                    60
 Done with rirpa frequency point #                    61
 Done with rirpa frequency point #                    62
 Done with rirpa frequency point #                    63
 Done with rirpa frequency point #                    64
 Done with rirpa frequency point #                    65
 Done with rirpa frequency point #                    66
 Done with rirpa frequency point #                    67
 Done with rirpa frequency point #                    68
 Done with rirpa frequency point #                    69
 Done with rirpa frequency point #                    70
 Done with rirpa frequency point #                    71
 Done with rirpa frequency point #                    72
 Done with rirpa frequency point #                    73
 Done with rirpa frequency point #                    74
 Done with rirpa frequency point #                    75
 Done with rirpa frequency point #                    76
 Done with rirpa frequency point #                    77
 Done with rirpa frequency point #                    78
 Done with rirpa frequency point #                    79
 Done with rirpa frequency point #                    80
 Done with rirpa frequency point #                    81
 Done with rirpa frequency point #                    82
 Done with rirpa frequency point #                    83
 Done with rirpa frequency point #                    84
 Done with rirpa frequency point #                    85
 Done with rirpa frequency point #                    86
 Done with rirpa frequency point #                    87
 Done with rirpa frequency point #                    88
 Done with rirpa frequency point #                    89
 Done with rirpa frequency point #                    90
 Done with rirpa frequency point #                    91
 Done with rirpa frequency point #                    92
 Done with rirpa frequency point #                    93
 Done with rirpa frequency point #                    94
 Done with rirpa frequency point #                    95
 Done with rirpa frequency point #                    96
 Done with rirpa frequency point #                    97
 Done with rirpa frequency point #                    98
 Done with rirpa frequency point #                    99
 Done with rirpa frequency point #                   100
 


 RI-RPA correlation energy: -0.1130537921501779E+02
 
 
 HXX Energy calculation skipped due to nohxx option
 

                  --------------------------------------------------- 
                 |  HXX+RIRPA total energy     =    -11.30537921502  |
                  ---------------------------------------------------- 
                 :  RIRPA correlation energy   =    -11.30537921502  :
                 :  HXX total energy           =      0.00000000000  :
                 :  Hartree energy             =      0.00000000000  :
                 :  Exact Exchange energy      =      0.00000000000  :
                  .................................................... 


    ------------------------------------------------------------------------
    Rirpa profiling                cpu                    wall         ratio
    ------------------------------------------------------------------------
    module                         sec     %               sec     %
    ------------------------------------------------------------------------
    RIRPA                     65122.0  100.00        10781.6  100.00   6.0
    STARTUP                      14.7    0.02           34.1    0.32   0.4
    riccmos                      25.3    0.04           38.1    0.35   0.7
    riccbound                    15.2    0.02           11.0    0.10   1.4
    ccmkbaoi                  10170.3   15.62          658.7    6.11  15.4
    cc3idxnrm                   895.3    1.37          134.3    1.25   6.7
    ecrpa                     53930.1   82.81         9899.2   91.82   5.4
    tread                      1842.7    2.83         7122.9   66.07   0.3
    tqbuild                   48394.1   74.31         2246.5   20.84  21.5
    trpaln                     1059.1    1.63           44.1    0.41  24.0
    ------------------------------------------------------------------------
    sum                      181534.3  278.76        30975.0  287.30   5.9
    ------------------------------------------------------------------------


    ------------------------------------------------------------------------
         total  cpu-time : 18 hours  5 minutes and 26 seconds
         total wall-time :  2 hours 59 minutes and 42 seconds
    ------------------------------------------------------------------------

   ****  rirpa : all done  ****


    2019-02-25 15:15:17.463 

