 hostname is         gplogin1.local

 eiger (gplogin1.local) : TURBOMOLE V7.0.2( ) 8 Jan 2016 at 10:54:38
 Copyright (C) 2016 TURBOMOLE GmbH, Karlsruhe


    2017-11-14 00:11:33.525 

                                                                                
  
 HOMO-LUMO Separation
   HOMO:    24.    24 a     -0.19637710 H =     -5.34370 eV
   LUMO:    25.    25 a     -0.01371832 H =     -0.37329 eV
   Gap :                    +0.18265879 H =     +4.97040 eV
 
Number of MOs=   4726, Electrons=     48.00, Symmetry: c1   
 
   Nr.   Orbital    Occupation       Energy
   41.    41 a                     +0.073736 H =        +2.006 eV
   40.    40 a                     +0.070890 H =        +1.929 eV
   39.    39 a                     +0.068116 H =        +1.854 eV
   38.    38 a                     +0.065388 H =        +1.779 eV
   37.    37 a                     +0.063427 H =        +1.726 eV
   36.    36 a                     +0.052809 H =        +1.437 eV
   35.    35 a                     +0.049988 H =        +1.360 eV
   34.    34 a                     +0.048727 H =        +1.326 eV
   33.    33 a                     +0.039083 H =        +1.064 eV
   32.    32 a                     +0.036408 H =        +0.991 eV
   31.    31 a                     +0.035643 H =        +0.970 eV
   30.    30 a                     +0.028866 H =        +0.785 eV
   29.    29 a                     +0.024203 H =        +0.659 eV
   28.    28 a                     +0.013521 H =        +0.368 eV
   27.    27 a                     +0.005803 H =        +0.158 eV
   26.    26 a                     +0.002622 H =        +0.071 eV
   25.    25 a                     -0.013718 H =        -0.373 eV
   24.    24 a        2.000        -0.196377 H =        -5.344 eV
   23.    23 a        2.000        -0.216279 H =        -5.885 eV
   22.    22 a        2.000        -0.270177 H =        -7.352 eV
   21.    21 a        2.000        -0.313876 H =        -8.541 eV
   20.    20 a        2.000        -0.322488 H =        -8.775 eV
   19.    19 a        2.000        -0.355056 H =        -9.662 eV
   18.    18 a        2.000        -0.366047 H =        -9.961 eV
   17.    17 a        2.000        -0.388907 H =       -10.583 eV
   16.    16 a        2.000        -0.404039 H =       -10.994 eV
   15.    15 a        2.000        -0.422325 H =       -11.492 eV
   14.    14 a        2.000        -0.429721 H =       -11.693 eV
   13.    13 a        2.000        -0.476859 H =       -12.976 eV
   12.    12 a        2.000        -0.520544 H =       -14.165 eV
   11.    11 a        2.000        -0.595015 H =       -16.191 eV
   10.    10 a        2.000        -0.633386 H =       -17.235 eV
    9.     9 a        2.000        -0.713194 H =       -19.407 eV
