Using Slurm to start processes with PMI2
STARTING ridft ON 8 PROCESSORS!
RUNNING PROGRAM /beegfs/modfac/apps/TURBOMOLE/7.0_intel_GA/bin/em64t-unknown-linux-gnu_mpi/ridft_mpi.
PLEASE WAIT UNTIL ridft HAS FINISHED.
Look for the output in slave1.output.
  this is node-proc. number 1 running on node c-9-414.local
  the total number of node-proc. spawned is            8
  parallel platform: MPP, or cluster with fast interconnect

 ridft (c-9-414.local) : TURBOMOLE V7.0.2( ) 15 Jan 2016 at 17:47:42
 Copyright (C) 2016 TURBOMOLE GmbH, Karlsruhe


    2017-11-07 18:38:18.853 



                                  r i d f t

                        DFT program with RI approximation 
                                for coulomb part 




                                                 
                                 References:     
                                                 
          TURBOMOLE:                             
              R. Ahlrichs, M. Baer, M. Haeser, H. Horn, and
              C. Koelmel
              Electronic structure calculations on workstation
              computers: the program system TURBOMOLE
              Chem. Phys. Lett. 162: 165 (1989)
          Density Functional:                              
              O. Treutler and R. Ahlrichs                      
              Efficient Molecular Numerical Integration Schemes
              J. Chem. Phys. 102: 346 (1995)                   
          Parallel Version:                                
              Performance of parallel TURBOMOLE for Density    
              Functional Calculations                          
              M. v. Arnim and R. Ahlrichs                      
              J. Comp. Chem. 19: 1746 (1998)                   
          RI-J Method:                                     
              Auxiliary Basis Sets to approximate Coulomb      
              Potentials                                       
              Chem. Phys. Lett. 240: 283 (1995)                
              K. Eichkorn, O. Treutler, H. Oehm, M. Haeser     
              and R. Ahlrichs                                  
              Chem. Phys. Lett. 242: 652 (1995)                
                                                           
              Auxiliary Basis Sets for Main Row Atoms and their
              Use to approximate Coulomb Potentials            
              K. Eichkorn, F. Weigend, O. Treutler and         
              R. Ahlrichs                                      
              Theo. Chem. Acc. 97: 119 (1997)                   
                                                           
              Accurate Coulomb-fitting basis sets for H to Rn 
              F. Weigend                                        
              Phys. Chem. Chem. Phys. 8: 1057 (2006)            
                                                           
          Multipole accelerated RI-J (MARI-J):             
              Fast evaluation of the Coulomb potential for     
              electron densities using multipole accelerated   
              resolution of identity approximation             
              M. Sierka, A. Hogekamp and R. Ahlrichs           
              J. Chem. Phys. 118: 9136 (2003)                  
          RI-JK Method:                                     
              A fully direct RI-HF algorithm: Implementation,
              optimised auxiliary basis sets, demonstration of
              accuracy and efficiency                         
              F. Weigend                                      
              Phys. Chem. Chem. Phys. 4: 4285 (2002)           
          Two-component HF and DFT with spin-orbit coupling:  
              Self-consistent treatment of spin-orbit         
              interactions with efficient Hartree-Fock and    
              density functional methods                      
              M. K. Armbruster, F. Weigend, C. van Wüllen and 
              W. Klopper                                      
              Phys. Chem. Chem. Phys. 10: 1748 (2008)         
          Relativistic all-electron 2c calculations           
              An efficient implementation of two-component    
              relativistic exact-decoupling methods for large 
              molecules                                       
              D. Peng, N. Middendorf, F. Weigend, M. Reiher   
              J. Chem. Phys. 138, 184105 (2013)               
                                         


 


              +--------------------------------------------------+
              |      general information about current run       |
              +--------------------------------------------------+

 

 SCF run will be profiled !


 DENSITY CONVERGENCE CHECK SWITCHED ON !
 SCF CONVERGENCE IF RMS(delta[D]) <     0.1000000000E-06

 TPSS meta-GGA functional
 exchange:    LDA + TPSS
 correlation: LDA (PW) + TPSS
 A DFT calculation using the RI-J approximation will be carried out.
 Allocatable memory for RI due to $ricore (MB):       12000


              +--------------------------------------------------+
              | Atomic coordinate, charge and isotop information |
              +--------------------------------------------------+

                    atomic coordinates            atom    charge  isotop
         -1.03737932    1.04688776    6.34823603    c      0.000     0
          1.05893370    1.92152406    7.71051832    c      0.000     0
          2.23819399    4.20004574    7.15780223    c      0.000     0
          1.25879968    5.65296861    5.20972858    c      0.000     0
         -0.87870300    4.94836528    3.81718972    c      0.000     0
         -1.92756943    2.58897789    4.39316594    c      0.000     0
          2.47923184    7.95928301    4.59952686    o      0.000     0
          4.65165159    7.72211866    3.23178328    c      0.000     0
          6.75818461    6.99865621    4.38636640    n      0.000     0
          8.76794778    6.85196152    2.86497401    c      0.000     0
          8.68255677    7.41859104    0.30548588    c      0.000     0
          6.58267990    8.15326245   -0.88394449    n      0.000     0
          4.56772241    8.29255934    0.60020985    c      0.000     0
         11.24253791    6.98725264   -0.81383540    c      0.000     0
         12.73882719    6.16414338    1.22369806    n      0.000     0
         11.39479616    6.01710708    3.51944909    c      0.000     0
         15.34088990    5.24988592    0.92242213    c      0.000     0
         15.38646520    2.47205946    0.23392729    c      0.000     0
         15.68012723    0.62942459    2.10271701    c      0.000     0
         15.61419942   -1.92824788    1.47750167    c      0.000     0
         15.25787287   -2.68604854   -1.02751039    c      0.000     0
         14.97123145   -0.83982039   -2.90292127    c      0.000     0
         15.03203558    1.71503316   -2.27656166    c      0.000     0
         12.28545516    5.33621670    5.52041293    o      0.000     0
         11.97826895    7.23735939   -2.97426213    o      0.000     0
          2.31829173    9.03393627   -0.41213452    o      0.000     0
          1.05502572    7.21176491   -1.90442091    c      0.000     0
          1.89952041    6.77237269   -4.34592140    c      0.000     0
          0.60464730    5.00822125   -5.79532259    c      0.000     0
         -1.49355866    3.67579119   -4.87281751    c      0.000     0
         -2.26558868    4.21353649   -2.39973664    c      0.000     0
         -1.05103982    5.99311533   -0.86325538    c      0.000     0
          1.98014452    0.44416053    9.72197303    o      0.000     0
          4.25263980   -0.75333587    9.29248448    c      0.000     0
          6.35053180    0.50854263    9.52765770    n      0.000     0
          8.55600531   -0.76797736    9.06971777    c      0.000     0
          8.51289112   -3.37508629    8.35504837    c      0.000     0
          6.26675529   -4.64462158    8.14431039    n      0.000     0
          4.21250628   -3.37556143    8.60741428    c      0.000     0
         10.80311145   -4.64422987    7.84741069    c      0.000     0
         13.05826780   -3.35439911    8.07006724    c      0.000     0
         13.10118942   -0.77833021    8.77408439    c      0.000     0
         10.88821691    0.51194378    9.25905883    c      0.000     0
          1.90214592   -4.57106084    8.47597151    o      0.000     0
          0.92657915   -4.98532533    6.04144437    c      0.000     0
          2.03703550   -6.80498763    4.50779026    c      0.000     0
          1.00381617   -7.21022527    2.13224653    c      0.000     0
         -1.10554984   -5.88427879    1.23446922    c      0.000     0
         -2.08789178   -4.00945303    2.82672699    c      0.000     0
         -1.15721657   -3.54406523    5.26014107    c      0.000     0
          2.11044560   -9.05403509    0.53756479    o      0.000     0
          4.29593923   -8.32912903   -0.63192026    c      0.000     0
          6.42045094   -8.24870093    0.70830812    n      0.000     0
          8.44294325   -7.52706057   -0.60677975    c      0.000     0
          8.35773814   -6.91659472   -3.15785633    c      0.000     0
          6.25173620   -7.00445882   -4.53463815    n      0.000     0
          4.21404078   -7.71159751   -3.24811418    c      0.000     0
         11.08230923   -7.13029524    0.33156100    c      0.000     0
         12.43817930   -6.30347139   -1.80404508    n      0.000     0
         10.93282425   -6.09746021   -3.98491354    c      0.000     0
         15.07831427   -5.46305070   -1.69539510    c      0.000     0
         -2.16336724   -1.51157570    7.03652751    c      0.000     0
         -5.03972047   -1.51215378    7.62413748    c      0.000     0
         -6.99699623   -1.32218384    5.50255521    c      0.000     0
         -9.73556443   -1.27863214    6.47253594    c      0.000     0
         -2.14499893   -6.52582843   -1.37390615    c      0.000     0
         -5.03033869   -7.07706692   -1.56400702    c      0.000     0
         -6.93974951   -5.22870632   -0.41149096    c      0.000     0
         -9.66036202   -5.63106368   -1.33361553    c      0.000     0
         11.67592482   -5.37898211   -6.03540677    o      0.000     0
          1.95629252   -7.86592753   -4.49463985    o      0.000     0
          0.78444476   -5.51501304   -4.99896335    c      0.000     0
          1.60661527   -4.09656685   -7.04408005    c      0.000     0
          0.40601518   -1.80951889   -7.53241567    c      0.000     0
         -1.55386422   -0.88478902   -6.00621582    c      0.000     0
         -2.25881416   -2.37606932   -3.93732370    c      0.000     0
         -1.19725413   -4.74076579   -3.42511400    c      0.000     0
         11.97989174   -7.41312048    2.42419911    o      0.000     0
          1.18553245   -0.38039648   -9.63340121    o      0.000     0
          3.53034809    0.73681702   -9.39061098    c      0.000     0
          5.55984100   -0.57824252   -9.83527350    n      0.000     0
          7.83307597    0.62885652   -9.54373012    c      0.000     0
          7.92761158    3.21940763   -8.77347931    c      0.000     0
          5.74659631    4.54455083   -8.33876572    n      0.000     0
          3.62606924    3.33868543   -8.64644184    c      0.000     0
         10.28895902    4.41244963   -8.43389178    c      0.000     0
         12.47890658    3.06654756   -8.87334588    c      0.000     0
         12.38647522    0.50652768   -9.63126959    c      0.000     0
         10.10288513   -0.70948757   -9.95531550    c      0.000     0
         -2.71538919    1.69220965   -6.56799643    c      0.000     0
         -5.64592341    1.80644334   -6.77084263    c      0.000     0
         -7.33017931    0.59897643   -4.74548426    c      0.000     0
        -10.16038577    1.07118563   -5.19140083    c      0.000     0
          1.36358306    4.57453141   -8.29921486    o      0.000     0
         -1.90623485    6.72068670    1.79028950    c      0.000     0
         -4.76093927    7.40495969    1.97794512    c      0.000     0
         -6.76897800    5.33814411    2.28016646    c      0.000     0
         -9.48200336    6.34253963    2.02006796    c      0.000     0
          3.89339464    4.80336676    8.19844047    h      0.000     0
         10.87935778    2.50122292    9.74816171    h      0.000     0
         14.89795647    0.20257468    8.92277341    h      0.000     0
         14.82346753   -4.33005220    7.68938886    h      0.000     0
         10.73049062   -6.60442619    7.25737956    h      0.000     0
          3.67793152   -7.84976209    5.14141588    h      0.000     0
         -3.61593718   -2.84485086    2.13167409    h      0.000     0
          3.15012475   -4.73786309   -8.22469168    h      0.000     0
         -3.68362820   -1.65701722   -2.66193567    h      0.000     0
          9.99402273   -2.68660320  -10.48093097    h      0.000     0
         14.13541177   -0.52056525   -9.94578824    h      0.000     0
         14.29909800    3.98177059   -8.62252679    h      0.000     0
         10.32299307    6.36022602   -7.79896891    h      0.000     0
         -3.86720621    3.19641661   -1.63534787    h      0.000     0
          3.52700872    7.75734425   -5.09847441    h      0.000     0
         16.20604285    6.39881985   -0.55858625    h      0.000     0
         16.30151835    5.58605819    2.71732831    h      0.000     0
         15.91716818    1.20193290    4.05903831    h      0.000     0
         15.80120429   -3.35036508    2.94470384    h      0.000     0
         14.67836601   -1.41260665   -4.85220640    h      0.000     0
         14.77803537    3.13557898   -3.73477193    h      0.000     0
         15.89405916   -5.83464971   -3.55507844    h      0.000     0
         16.01830637   -6.62759605   -0.27459100    h      0.000     0
         -3.48030202    1.91026577    3.24982007    h      0.000     0
         -1.30965889   -1.95972820    8.85666426    h      0.000     0
         -1.26723403   -8.32924581   -1.84385999    h      0.000     0
         -2.05914080    2.16542491   -8.46310114    h      0.000     0
         -0.95027074    8.51168352    2.14430925    h      0.000     0
         -5.32960659    0.03811405    8.96830644    h      0.000     0
         -5.42225610   -3.26383320    8.67066514    h      0.000     0
         -5.17726035    8.53005857    0.28958835    h      0.000     0
         -4.96117508    8.68965098    3.59467352    h      0.000     0
         -6.14140254    3.81467085   -6.93836522    h      0.000     0
         -6.12792370    0.93833495   -8.58900541    h      0.000     0
         -5.43551199   -7.29160934   -3.58829233    h      0.000     0
         -5.33753608   -8.93982207   -0.71133030    h      0.000     0
         -6.68675180    0.36843851    4.34960618    h      0.000     0
         -6.79786859   -2.94945284    4.25062214    h      0.000     0
         -6.41355503   -3.27066219   -0.82169028    h      0.000     0
         -6.90953943   -5.42981480    1.64759322    h      0.000     0
         -6.84162613    1.31098732   -2.86078896    h      0.000     0
         -7.02080654   -1.44580225   -4.71218786    h      0.000     0
         -6.51233327    3.82178691    0.88788583    h      0.000     0
         -6.56288550    4.47099929    4.14648694    h      0.000     0
        -10.43151480    1.08722229    7.99631634    c      0.000     0
        -10.07888202   -2.96491944    7.63735520    h      0.000     0
        -10.99676594   -1.43709966    4.83441852    h      0.000     0
         -9.71811068   -5.47733604   -3.40461447    h      0.000     0
        -10.82136504   -4.07849707   -0.60035403    h      0.000     0
        -10.82415581   -8.15938108   -0.52915485    c      0.000     0
        -10.50448922    3.10828001   -5.40011901    h      0.000     0
        -11.18568507    0.47391253   -3.49260041    h      0.000     0
        -11.24053039   -0.31695783   -7.49496463    c      0.000     0
        -10.14988230    7.25783704   -0.64808616    c      0.000     0
         -9.78225026    7.88839840    3.37553700    h      0.000     0
        -10.78208121    4.82466515    2.56765796    h      0.000     0
        -13.23373173    1.20095221    8.75324445    c      0.000     0
         -9.27264219    1.17090416    9.71220388    h      0.000     0
         -9.95809765    2.77859110    6.88692425    h      0.000     0
        -12.94181110    7.99126613   -0.97274403    c      0.000     0
         -8.97094640    8.88985872   -1.13861866    h      0.000     0
         -9.67621215    5.76477985   -2.01138314    h      0.000     0
        -14.11718256   -0.02958467   -7.77720848    c      0.000     0
        -10.32414301    0.37909002   -9.21864635    h      0.000     0
        -10.76914005   -2.33636664   -7.35196233    h      0.000     0
        -13.62943129   -8.42019527   -1.23594237    c      0.000     0
         -9.76222446   -9.71658702   -1.39221456    h      0.000     0
        -10.61831999   -8.37506458    1.52833328    h      0.000     0
        -14.23587834  -10.36668970   -0.85849478    h      0.000     0
        -15.36782519   -6.59709167    0.19648687    c      0.000     0
        -13.84734175   -8.12775946   -3.28017092    h      0.000     0
        -13.50108867    2.75512902   10.09955744    h      0.000     0
        -15.03523381    1.57776696    6.51556965    c      0.000     0
        -13.73547798   -0.54103416    9.76520127    h      0.000     0
        -13.17575472    8.92548649   -2.80926136    h      0.000     0
        -14.77034279    5.74834143   -0.82235074    c      0.000     0
        -13.44700560    9.40043983    0.46584133    h      0.000     0
        -14.68961306   -0.81552674   -9.60848376    h      0.000     0
        -15.63307569   -1.33211547   -5.67945599    c      0.000     0
        -14.59824492    1.98949480   -7.83302013    h      0.000     0
        -17.00164122    1.68281910    7.15149963    h      0.000     0
        -14.60009408    3.33960927    5.51592190    h      0.000     0
        -14.90427913    0.02759795    5.15017990    h      0.000     0
        -16.72549617    6.36417036   -1.10644305    h      0.000     0
        -14.33063365    4.34388860   -2.27906221    h      0.000     0
        -14.67804260    4.80023319    1.01419069    h      0.000     0
        -17.66769396   -1.14755994   -6.00839787    h      0.000     0
        -15.18433337   -3.35302911   -5.59479672    h      0.000     0
        -15.23010423   -0.51981236   -3.81931749    h      0.000     0
        -17.35022675   -6.91157801   -0.30665753    h      0.000     0
        -15.18181732   -6.86132232    2.24369280    h      0.000     0
        -14.92754191   -4.62053329   -0.22772597    h      0.000     0
          3.97940282    0.35506949   -1.19530840    c      6.000     0
          6.19090152    0.16772540    2.63989889    c      6.000     0
          8.71006308   -0.04201742    1.27188435    c      6.000     0
          6.42201396    0.19166849   -2.70111425    c      6.000     0
          8.32316372   -1.20602629   -1.22240112    n      7.000     0
          4.40544146    1.59163541    1.18067482    o      8.000     0
          9.99711346   -1.17398055   -2.17565549    h      1.000     0
         10.01363654   -1.21173539    2.37185051    h      1.000     0
          6.08982629   -0.82981161   -4.46890676    h      1.000     0
          2.56464943    1.48043183   -2.18778153    h      1.000     0
          6.40908551    1.18083206    4.42239846    h      1.000     0
          7.04667911    2.12593565   -3.16482104    h      1.000     0
          9.54362721    1.86173948    1.11313392    h      1.000     0
          5.41899358   -1.72891114    3.00900390    h      1.000     0
          3.21288341   -1.54823616   -0.84978299    h      1.000     0
 
       center of nuclear mass  :    2.25862500    0.00341504   -0.01713806
       center of nuclear charge:    6.36700959    0.17670498   -0.01978764

              +--------------------------------------------------+
              |               basis set information              |
              +--------------------------------------------------+

              we will work with the 1s 3p 5d 7f 9g ... basis set
              ...i.e. with spherical basis functions...

   type   atoms  prim   cont   basis
   ---------------------------------------------------------------------------
    c       92     50     30   cc-pVTZ   [4s3p2d1f|18s5p2d1f]
    o       13     50     30   cc-pVTZ   [4s3p2d1f|18s5p2d1f]
    n       11     50     30   cc-pVTZ   [4s3p2d1f|18s5p2d1f]
    h       89     16     14   cc-pVTZ   [3s2p1d|5s2p1d]
   ---------------------------------------------------------------------------
   total:  205   7224   4726
   ---------------------------------------------------------------------------

   total number of primitive shells          :   86
   total number of contracted shells         : 1694
   total number of cartesian basis functions : 5395
   total number of SCF-basis functions       : 4726


 integral neglect threshold       :  0.62E-14
 integral storage threshold THIZE :  0.10E-04
 integral storage threshold THIME :         5

 RI-J AUXILIARY BASIS SET information:

              we will work with the 1s 3p 5d 7f 9g ... basis set
              ...i.e. with spherical basis functions...

   type   atoms  prim   cont   basis
   ---------------------------------------------------------------------------
    c       92     70     49   cc-pVTZ   [6s4p3d1f1g|12s5p4d2f1g]
    o       13     70     49   cc-pVTZ   [6s4p3d1f1g|12s5p4d2f1g]
    n       11     70     49   cc-pVTZ   [6s4p3d1f1g|12s5p4d2f1g]
    h       89     16     11   cc-pVTZ   [3s1p1d|5s2p1d]
   ---------------------------------------------------------------------------
   total:  205   9544   6663
   ---------------------------------------------------------------------------

   total number of primitive shells          :   80
   total number of contracted shells         : 2185
   total number of cartesian basis functions : 8144
   total number of SCF-basis functions       : 6663


 symmetry group of the molecule :   c1 

 the group has the following generators :
   c1(z)

    1 symmetry operations found

 there are 1 real representations :   a   

 maximum number of shells which are related by symmetry :  1


    mo occupation :
   irrep   mo's   occupied
    a     4726       24
 
 number of basis functions   :         4726
 number of occupied orbitals :           24
 
  
           ------------------
           density functional
           ------------------
 Dummy atoms with grid-point found.
 DFT quadrature threshold dgrenze tightened by factor 1/10.

 TPSS meta-GGA functional
 exchange:    LDA + TPSS
 correlation: LDA (PW) + TPSS
 Dummy atoms with grid-point found.
 DFT quadrature threshold dgrenze tightened by factor 1/10.

 Dummy atoms with grid-point found.
 DFT quadrature threshold dgrenze tightened by factor 1/10.

 grinp -> nfun, dfgga, dfhybrid 
           5 F F
 iterations will be done with small grid
  
 spherical integration : Lebedev's spherical grid
 spherical gridsize    :           5
    i.e. gridpoints    :         590
 value for diffuse not defined
 radial integration    : Chebyshev 2nd kind (scaling 3)
 radial gridsize       :           8
 integration cells     :         205
 partition function    : becke
 partition sharpness   :           3
  
 found dummy atom(s) with basis: included in dft

 <rddim> : input of entry tasksize
           from data group '$pardft' failed !

               Default values taken

 <rddim> : input of entry memdiv
           from data group '$pardft' failed !

               Default values taken
  RIDFT: memory allocation for DFT gridpoints
  MEMORY is divided by 1 as DEFAULT
 Each node can hold at most  the            1 -th part
 of the gridpoints    

 biggest AO integral is expected to be     4.866064444
  
           ------------------------
               RI-J - INFORMATION
           ------------------------
 
 
 **************************************************
 *      MEMORY ALLOCATION FOR PARALLEL RI-DFT     *
 **************************************************
 
 
MEMORY FOR (MU NU/ ALPHA), SEQUENTIAL RUN              11661 MByte
 
            DIFFERENCE IN MEMORY NEED:       DIAG./SLAVE  
 
      TOTAL DIFFERENCE :                   1229 MByte
 
      difference in xcore:                  340 MByte
      difference in fatmat:                 326 MByte
      getcor calls skipped by slaves:       564 MByte
 
 
           Integral memory available for diagonal.     11661 MByte
 
           Integral memory available for slave             0 MByte
 
         MEMORY FOR (MU NU/ ALPHA) ON DIAGONALIZER     11661 MByte
 
         MEMORY FOR (MU NU/ ALPHA) ON ONE SLAVE            0 MByte
 
         TOTAL MEMORY FOR (MU NU/ ALPHA),ALL NODES     11661 MByte
 
 Contributions to RI integral batches: 
  neglected integral batches:     1011728
  direct contribution:             352753
  memory contribution:       71184
 Memory core needed for (P|Q) and Cholesky    339 MByte
 Memory core minimum needed except of (P|Q)     3 MByte
 Total minimum memory core needed (sum)       342 MByte
     number of direct tasks:         160
  
 ****************************************
 Memory allocated for RI-J 12002 MByte
 ****************************************
                                            

          ------------------------
          nuclear repulsion energy  :   262.344364900    
          ------------------------

 
          -----------------
          -S integrals
          -----------------

 1e-integrals will be neglected if expon. factor < 0.619455E-15
 
          -----------------
          -T+V integrals
          -----------------

 1e-integrals will be neglected if expon. factor < 0.619455E-15
 Difference densities >>NOT<< switched on in parallel ridft!

 automatic virtual orbital shift switched on 
      shift if e(lumo)-e(homo) < 0.10000000    


 DIIS switched on: error vector is FDS-SDF
 Max. Iterations for DIIS is     :   4
 DIIS matrix (see manual) 
    Scaling factor of diagonals  :  1.200
    threshold for scaling factor :  0.000

 scf convergence criterion : increment of total energy < .1000000D-08
                  and increment of one-electron energy < .1000000D-05


 <geterg> : there is no data group $energy 

  MOs are in ASCII format !


 reading orbital data $scfmo  from file mos . 

 orbital characterization : expanded
 
 mo provided and orthogonalized by Cholesky decomposition

 DSCF restart information will be dumped onto file mos


 Starting SCF iterations


 ITERATION  ENERGY          1e-ENERGY        2e-ENERGY     RMS[dD(SAO)]   TOL
   1  -286.84817264037    -902.94358514     353.75104760    0.000D+00 0.618D-14
                            Exc = -40.0913295817     Coul =  393.842377183    
                              N = 47.999136400    
                            current damping = 0.700
 
          max. resid. norm for Fia-block=  2.808D-01 for orbital     16a         
          max. resid. fock norm         =  1.337D+01 for orbital   4449a         

 ITERATION  ENERGY          1e-ENERGY        2e-ENERGY     RMS[dD(SAO)]   TOL
   2  -287.72940280472    -907.21480656     357.14103885    0.259D-03 0.618D-14
                            Exc = -40.3268839280     Coul =  397.467922779    
                              N = 47.999323061    
                            current damping = 0.650
 
          Norm of current diis error:  2.0636    
          max. resid. norm for Fia-block=  1.252D-01 for orbital      1a         
          max. resid. fock norm         =  1.593D-01 for orbital     25a         

 ITERATION  ENERGY          1e-ENERGY        2e-ENERGY     RMS[dD(SAO)]   TOL
   3  -287.88309911676    -908.97289730     358.74543329    0.165D-03 0.618D-14
                            Exc = -40.5819451634     Coul =  399.327378450    
                              N = 47.999450963    
                            current damping = 0.550
 
          Norm of current diis error:  1.0492    
          max. resid. norm for Fia-block=  5.438D-02 for orbital     22a         
          max. resid. fock norm         =  5.523D-02 for orbital     22a         

 ITERATION  ENERGY          1e-ENERGY        2e-ENERGY     RMS[dD(SAO)]   TOL
   4  -287.93473037693    -908.98412275     358.70502747    0.140D-03 0.618D-14
                            Exc = -40.5981757568     Coul =  399.303203226    
                              N = 47.999527567    
                            current damping = 0.600
 
          Norm of current diis error: 0.42461    
          max. resid. norm for Fia-block=  2.691D-02 for orbital      7a         
          max. resid. fock norm         =  3.602D-02 for orbital   4563a         

 ITERATION  ENERGY          1e-ENERGY        2e-ENERGY     RMS[dD(SAO)]   TOL
   5  -287.94312109300    -909.84813223     359.56064624    0.590D-04 0.618D-14
                            Exc = -40.6943929049     Coul =  400.255039141    
                              N = 47.999565850    
                            current damping = 0.650
 
          Norm of current diis error: 0.20756    
          max. resid. norm for Fia-block=  1.234D-02 for orbital     22a         
          max. resid. fock norm         =  1.305D-02 for orbital   4559a         
          mo-orthogonalization: Cholesky decomposition

 ITERATION  ENERGY          1e-ENERGY        2e-ENERGY     RMS[dD(SAO)]   TOL
   6  -287.94543652700    -909.62663627     359.33683484    0.414D-04 0.618D-14
                            Exc = -40.6808104970     Coul =  400.017645341    
                              N = 47.999577413    
                            current damping = 0.700
 
          Norm of current diis error: 0.67787E-01
          max. resid. norm for Fia-block=  4.238D-03 for orbital     24a         
          max. resid. fock norm         =  4.513D-03 for orbital     24a         

 ITERATION  ENERGY          1e-ENERGY        2e-ENERGY     RMS[dD(SAO)]   TOL
   7  -287.94570136100    -909.66383842     359.37377216    0.141D-04 0.618D-14
                            Exc = -40.6864367385     Coul =  400.060208894    
                              N = 47.999582062    
                            current damping = 0.750
 
          Norm of current diis error: 0.28327E-01
          max. resid. norm for Fia-block=  1.622D-03 for orbital     10a         
          max. resid. fock norm         =  2.033D-03 for orbital     10a         

 ITERATION  ENERGY          1e-ENERGY        2e-ENERGY     RMS[dD(SAO)]   TOL
   8  -287.94574440489    -909.70801652     359.41790721    0.491D-05 0.618D-14
                            Exc = -40.6910010474     Coul =  400.108908262    
                              N = 47.999584953    
                            current damping = 0.600
 
          Norm of current diis error: 0.12359E-01
          max. resid. norm for Fia-block=  9.339D-04 for orbital     24a         
          max. resid. fock norm         =  9.670D-04 for orbital     24a         

 ITERATION  ENERGY          1e-ENERGY        2e-ENERGY     RMS[dD(SAO)]   TOL
   9  -287.94575412338    -909.69912038     359.40900136    0.324D-05 0.618D-14
                            Exc = -40.6910358201     Coul =  400.100037177    
                              N = 47.999585529    
                            current damping = 0.650
 
          Norm of current diis error: 0.49954E-02
          max. resid. norm for Fia-block=  2.424D-04 for orbital     10a         
          max. resid. fock norm         =  2.832D-04 for orbital     10a         

 ITERATION  ENERGY          1e-ENERGY        2e-ENERGY     RMS[dD(SAO)]   TOL
  10  -287.94575541353    -909.70232706     359.41220674    0.106D-05 0.618D-14
                            Exc = -40.6913225035     Coul =  400.103529246    
                              N = 47.999586006    
                            current damping = 0.700
 
          Norm of current diis error: 0.22405E-02
          max. resid. norm for Fia-block=  1.536D-04 for orbital      7a         
          max. resid. fock norm         =  2.232D-04 for orbital     22a         
          mo-orthogonalization: Cholesky decomposition

 ITERATION  ENERGY          1e-ENERGY        2e-ENERGY     RMS[dD(SAO)]   TOL
  11  -287.94575564739    -909.70632329     359.41620274    0.327D-06 0.618D-14
                            Exc = -40.6918023642     Coul =  400.108005102    
                              N = 47.999586147    
                            current damping = 0.550
 
          Norm of current diis error: 0.98227E-03
          max. resid. norm for Fia-block=  5.200D-05 for orbital     22a         
          max. resid. fock norm         =  6.496D-05 for orbital   4559a         

 ITERATION  ENERGY          1e-ENERGY        2e-ENERGY     RMS[dD(SAO)]   TOL
  12  -287.94575570407    -909.70534721     359.41522660    0.229D-06 0.618D-14
                            Exc = -40.6917392926     Coul =  400.106965897    
                              N = 47.999586200    
                            current damping = 0.600
 
          Norm of current diis error: 0.24888E-03
          max. resid. norm for Fia-block=  1.832D-05 for orbital     24a         
          max. resid. fock norm         =  1.908D-05 for orbital   1932a         

 DENSITY CONVERGED !


 ITERATION  ENERGY          1e-ENERGY        2e-ENERGY     RMS[dD(SAO)]   TOL
  13  -287.94575570824    -909.70545832     359.41533771    0.671D-07 0.618D-14
                            Exc = -40.6917540143     Coul =  400.107091725    
                              N = 47.999586219    
                            current damping = 0.650
 
          Norm of current diis error: 0.11562E-03
          max. resid. norm for Fia-block=  7.561D-06 for orbital      8a         
          max. resid. fock norm         =  1.002D-05 for orbital      8a         

 DENSITY CONVERGED !


 ITERATION  ENERGY          1e-ENERGY        2e-ENERGY     RMS[dD(SAO)]   TOL
  14  -287.94575570885    -909.70558340     359.41546280    0.204D-07 0.618D-14
                            Exc = -40.6917697616     Coul =  400.107232557    
                              N = 47.999586230    
                            current damping = 0.500
 
          Norm of current diis error: 0.57559E-04
          max. resid. norm for Fia-block=  4.374D-06 for orbital     24a         
          max. resid. fock norm         =  4.803D-06 for orbital   4592a         

 DENSITY CONVERGED !


 ITERATION  ENERGY          1e-ENERGY        2e-ENERGY     RMS[dD(SAO)]   TOL
  15  -287.94575570901    -909.70552573     359.41540512    0.129D-07 0.618D-14
                            Exc = -40.6917690827     Coul =  400.107174203    
                              N = 47.999586230    
                            current damping = 0.550
 
          Norm of current diis error: 0.26096E-04
          max. resid. norm for Fia-block=  1.353D-06 for orbital     23a         
          max. resid. fock norm         =  1.820D-06 for orbital   4559a         
          mo-orthogonalization: Cholesky decomposition

 ENERGY & DENSITY CONVERGED !


 ITERATION  ENERGY          1e-ENERGY        2e-ENERGY     RMS[dD(SAO)]   TOL
  16  -287.94570362120    -909.70553847     359.41546995    0.433D-08 0.618D-14
                            Exc = -40.6917167301     Coul =  400.107186684    
                              N = 47.999981105    
                            current damping = 0.600
 
          Norm of current diis error: 0.90793E-05
          max. resid. norm for Fia-block=  4.319D-07 for orbital      7a         
          max. resid. fock norm         =  6.333D-07 for orbital     22a         

 End of SCF iterations

   convergence criteria satisfied after   16 iterations


                  ------------------------------------------ 
                 |  total energy      =   -287.94570362120  |
                  ------------------------------------------ 
                 :  kinetic energy    =    286.25081065515  :
                 :  potential energy  =   -574.19651427635  :
                 :  virial theorem    =      1.99411384527  :
                 :  wavefunction norm =      1.00000000000  :
                  .......................................... 


 <geterg> : there is no data group $energy 


 <skperg> : $end is missing 


 orbitals $scfmo  will be written to file mos

    irrep                 20a         21a         22a         23a         24a   
 eigenvalues H         -0.32249    -0.31388    -0.27018    -0.21628    -0.19638
            eV          -8.7754     -8.5411     -7.3520     -5.8853     -5.3437
 occupation              2.0000      2.0000      2.0000      2.0000      2.0000 

    irrep                 25a         26a         27a         28a         29a   
 eigenvalues H         -0.01372     0.00262     0.00580     0.01352     0.02420
            eV          -0.3733      0.0714      0.1579      0.3679      0.6586
 
 
 ! grave: sending quit signal to master process
 
 
 
 
 ==============================================================================
                           electrostatic moments
 ==============================================================================

 reference point for electrostatic moments:    0.00000   0.00000   0.00000

 
              nuc           elec       ->  total
 ------------------------------------------------------------------------------
                          charge      
 ------------------------------------------------------------------------------
          48.000000     -48.000000      -0.000000
 
 ------------------------------------------------------------------------------
                       dipole moment  
 ------------------------------------------------------------------------------
   x     305.616461    -305.156440       0.460020
   y       8.481839      -8.560981      -0.079142
   z      -0.949807       0.680818      -0.268989
 
   | dipole moment | =     0.5387 a.u. =     1.3693 debye 
 
 ------------------------------------------------------------------------------
                     quadrupole moment
 ------------------------------------------------------------------------------
  xx    2133.190520   -2154.126096     -20.935576
  yy      52.097181     -83.146487     -31.049306
  zz     201.186684    -226.909274     -25.722590
  xy       6.573142      -5.768126       0.805016
  xz       1.717199      -2.330204      -0.613005
  yz      18.865816     -19.940772      -1.074957
 
     1/3  trace=     -25.902491
     anisotropy=       9.128337
 
 ==============================================================================
 

    ridft profiling
  --------------------------------------------------------------------
             module   cpu total (s)       %  wall total (s)       %

               RIDFT          9274.1  100.00          9322.4  100.00
         Ridft_b_scf           167.5    1.81           167.5    1.80
        b_scf_prelim             0.0    0.00             0.0    0.00
        b_scf_molinp             0.0    0.00             0.0    0.00
         b_scf_init0             0.0    0.00             0.0    0.00
        b_scf_auxbas             0.0    0.00             0.0    0.00
      b_scf_symmetry             0.0    0.00             0.0    0.00
         b_scf_cosmo             0.0    0.00             0.0    0.00
        b_scf_params             4.4    0.05             4.4    0.05
          b_scf_ri-j            82.3    0.89            82.3    0.88
    b_scf_ri-j_auxpq            82.2    0.89            82.2    0.88
     ri-j_auxpq_chol            11.9    0.13            11.9    0.13
         b_scf_1elec             1.9    0.02             1.9    0.02
       b_scf_moinput            78.8    0.85            78.8    0.85
     moinput_orthmos            78.7    0.85            78.7    0.84
    b_scf_dft-dstmax             0.0    0.00             0.0    0.00
           Ridft_scf          9104.9   98.18          9153.0   98.18
          Scf_b_loop             0.0    0.00             0.0    0.00
                noga             0.0    0.00             0.0    0.00
            Scf_loop          9097.0   98.09          9143.0   98.08
     scf_loop_mkdmat             9.3    0.10            11.5    0.12
       scf_loop_ri-j          1786.8   19.27          1787.7   19.18
      parlp1.bc.dens             1.5    0.02             1.5    0.02
        parlp1.gs.gp            22.1    0.24            22.1    0.24
        parlp2.bc.gq             0.0    0.00             0.0    0.00
        scf_loop_dft          6399.2   69.00          6399.0   68.64
      pardft.bc.dens             0.0    0.00             0.0    0.00
        dft_grid_con           230.1    2.48           230.2    2.47
          dft_xcmrhf          5999.0   64.69          5998.7   64.35
          dft_getval           161.9    1.75           162.2    1.74
          funct2 dst             6.4    0.07             6.7    0.07
      funct2 f2loop1            19.9    0.21            20.0    0.21
      funct2 f2loop2            84.7    0.91            84.8    0.91
          funct2 s+c            48.5    0.52            48.4    0.52
        funct2 cmf_2            42.9    0.46            43.2    0.46
          dft_mkdens          3061.9   33.02          3061.5   32.84
        dft_mgga-fun             4.7    0.05             4.9    0.05
          dft_mkfock          2767.8   29.84          2767.7   29.69
     pardft.red.fock           738.9    7.97           739.0    7.93
     scf_loop_energy             0.2    0.00             0.3    0.00
     scf_loop_mkfock             0.3    0.00             0.3    0.00
       scf_loop_diis           355.9    3.84           367.8    3.95
       scf_loop_diag           341.8    3.69           342.0    3.67
         diag_tritrn           107.2    1.16           107.2    1.15
          diag_rdiag           234.1    2.52           234.2    2.51
     scf_loop_modump           110.0    1.19           141.1    1.51
      scf_loop_ortho            89.7    0.97            89.7    0.96
          Scf_a_loop             7.9    0.09            10.0    0.11
         Ridft_a_scf             1.7    0.02             1.9    0.02
         a_scf_fanal             1.6    0.02             1.8    0.02
 


    ------------------------------------------------------------------------
         total  cpu-time :  2 hours 34 minutes and 54 seconds
         total wall-time :  2 hours 35 minutes and 42 seconds
    ------------------------------------------------------------------------


   ****  ridft : all done  ****


    2017-11-07 21:14:01.006 

