
   OpenMP run-time library returned nthreads = 28
 operating system is UNIX !

 dscf (c-15-42) : TURBOMOLE V7.3 ( 22142 ) 4 Jul 2018 at 18:12:42
 Copyright (C) 2018 TURBOMOLE GmbH, Karlsruhe


    2019-04-01 21:49:14.638 



                             d s c f - program

                   idea & directorship : reinhart ahlrichs
                   program development : marco haeser
                                         michael baer
                           dft version : oliver treutler


                          quantum chemistry group
                          universitaet  karlsruhe
                                  germany




                          References             
                                                 
          TURBOMOLE:                             
              R. Ahlrichs, M. Baer, M. Haeser, H. Horn, and
              C. Koelmel
              Electronic structure calculations on workstation
              computers: the program system TURBOMOLE
              Chem. Phys. Lett. 162: 165 (1989)
          Density Functional:                              
              O. Treutler and R. Ahlrichs                      
              Efficient Molecular Numerical Integration Schemes
              J. Chem. Phys. 102: 346 (1995)                   
          Parallel Version:                                
              Performance of parallel TURBOMOLE for Density    
              Functional Calculations                          
              M. v. Arnim and R. Ahlrichs                      
              J. Comp. Chem. 19: 1746 (1998)                   
                                         




              +--------------------------------------------------+
              | Atomic coordinate, charge and isotop information |
              +--------------------------------------------------+

                    atomic coordinates            atom    charge  isotop
         -1.18608996    0.16528918    0.00278033    o      8.000     0
          0.64931374    0.23111980   -0.00113468    h      1.000     0
         -1.84802220   -2.41612070    0.00234025    c      6.000     0
         -3.89924596   -2.53609434    0.00946560    h      1.000     0
         -1.16196177   -3.41355562   -1.67313320    h      1.000     0
         -1.15016353   -3.41707238    1.67084432    h      1.000     0
          4.29409396    0.03105255   -0.00307428    n      0.000     0
          5.61003950   -0.01512353   -2.16628083    c      0.000     0
          4.50553502    0.02876259   -3.88777492    h      0.000     0
          8.23607297   -0.10912392   -2.25828262    c      0.000     0
          9.19482996   -0.14180113   -4.06067076    h      0.000     0
          9.57848383   -0.15771373    0.00109856    c      0.000     0
         11.62002300   -0.22907877    0.00270350    h      0.000     0
          8.23253120   -0.11043069    2.25845174    c      0.000     0
          9.18835229   -0.14411379    4.06216829    h      0.000     0
          5.60665537   -0.01641741    2.16216247    c      0.000     0
          4.49926492    0.02643105    3.88203754    h      0.000     0
 
       center of nuclear mass  :    4.50103108   -0.36459726   -0.00000150
       center of nuclear charge:   -1.45216169   -1.23944518    0.00235145

              +--------------------------------------------------+
              |               basis set information              |
              +--------------------------------------------------+

              we will work with the 1s 3p 5d 7f 9g ... basis set
              ...i.e. with spherical basis functions...

   type   atoms  prim   cont   basis
   ---------------------------------------------------------------------------
    o        1     50     30   cc-pVTZ   [4s3p2d1f|18s5p2d1f]
    h        9     16     14   cc-pVTZ   [3s2p1d|5s2p1d]
    c        6     50     30   cc-pVTZ   [4s3p2d1f|18s5p2d1f]
    n        1     50     30   cc-pVTZ   [4s3p2d1f|18s5p2d1f]
   ---------------------------------------------------------------------------
   total:   17    544    366
   ---------------------------------------------------------------------------

   total number of primitive shells          :   86
   total number of contracted shells         :  134
   total number of cartesian basis functions :  415
   total number of SCF-basis functions       :  366


 integral neglect threshold       :  0.80E-13
 integral storage threshold THIZE :  0.10E-04
 integral storage threshold THIME :         5


 DENSITY CONVERGENCE CHECK SWITCHED ON !
 SCF CONVERGENCE IF RMS(delta[D]) <     0.1000000000E-06


 symmetry group of the molecule :   c1 

 the group has the following generators :
   c1(z)

    1 symmetry operations found

 there are 1 real representations :   a   

 maximum number of shells which are related by symmetry :  1


    mo occupation :
   irrep   mo's   occupied
    a      366        9
 
 number of basis functions   :                    366
 number of occupied orbitals :                      9
 

 automatic virtual orbital shift switched on 
      shift if e(lumo)-e(homo) < 0.10000000    


          ------------------------
          nuclear repulsion energy  :   40.4219079944    
          ------------------------


         -----------------
         -S,T+V- integrals
         -----------------

 1e-integrals will be neglected if expon. factor < 0.805292E-14
 
   Difference densities algorithm switched on.
   The maximal number of linear combinations of
   difference densities is                    20 .

 DIIS switched on: error vector is FDS-SDF
 Max. Iterations for DIIS is     :   5
 DIIS matrix (see manual) 
    Scaling factor of diagonals  :  1.200
    threshold for scaling factor :  0.000

 scf convergence criterion : increment of total energy < .1000000D-08
                  and increment of one-electron energy < .1000000D-05

  MOs are in ASCII format !


 reading orbital data $scfmo  from file mos
 orbital characterization : scfconv=9

 DSCF restart information will be dumped onto file mos

 
                                              current damping :  0.700
 ITERATION  ENERGY          1e-ENERGY        2e-ENERGY     RMS[dD(SAO)]   TOL
   1  -115.06903510450    -237.20742574     81.716482636    0.000D+00 0.803D-13
          max. resid. norm for Fia-block=  1.030D-01 for orbital      1a         
          max. resid. fock norm         =  3.248D-01 for orbital    335a         
          Delta Eig. =    28.7332596861 eV 
 
                                              current damping :  0.650
 ITERATION  ENERGY          1e-ENERGY        2e-ENERGY     RMS[dD(SAO)]   TOL
   2  -115.08539625779    -237.08213312     81.574828871    0.726D-03 0.513D-13
          Norm of current diis error: 0.25959    
          max. resid. norm for Fia-block=  4.803D-02 for orbital      1a         
          max. resid. fock norm         =  1.367D-01 for orbital    337a         
          Delta Eig. =    12.2779445341 eV 
 
                                              current damping :  0.600
 ITERATION  ENERGY          1e-ENERGY        2e-ENERGY     RMS[dD(SAO)]   TOL
   3  -115.08850169360    -237.10540602     81.594996333    0.320D-03 0.393D-13
          Norm of current diis error: 0.11234    
          max. resid. norm for Fia-block=  2.087D-02 for orbital      1a         
          max. resid. fock norm         =  5.347D-02 for orbital    340a         
          Delta Eig. =     5.1398072072 eV 
 
                                              current damping :  0.450
 ITERATION  ENERGY          1e-ENERGY        2e-ENERGY     RMS[dD(SAO)]   TOL
   4  -115.08910676550    -237.10919037     81.598175610    0.146D-03 0.345D-13
          Norm of current diis error: 0.44889E-01
          max. resid. norm for Fia-block=  7.620D-03 for orbital      1a         
          max. resid. fock norm         =  2.106D-02 for orbital    340a         
          Delta Eig. =     2.0488724640 eV 
 
                                              current damping :  0.500
 ITERATION  ENERGY          1e-ENERGY        2e-ENERGY     RMS[dD(SAO)]   TOL
   5  -115.08920774492    -237.10447879     81.593363056    0.598D-04 0.317D-13
          Norm of current diis error: 0.15128E-01
          max. resid. norm for Fia-block=  2.391D-03 for orbital      1a         
          max. resid. fock norm         =  6.196D-03 for orbital    340a         
 mo-orthogonalization: Cholesky decomposition
          Delta Eig. =     0.6317161489 eV 
 
                                              current damping :  0.550
 ITERATION  ENERGY          1e-ENERGY        2e-ENERGY     RMS[dD(SAO)]   TOL
   6  -115.08921921395    -237.10506786     81.593940655    0.202D-04 0.302D-13
          Norm of current diis error: 0.55958E-02
          max. resid. norm for Fia-block=  7.607D-04 for orbital      1a         
          max. resid. fock norm         =  2.123D-03 for orbital    340a         
          Delta Eig. =     0.1978202962 eV 
 
                                              current damping :  0.600
 ITERATION  ENERGY          1e-ENERGY        2e-ENERGY     RMS[dD(SAO)]   TOL
   7  -115.08922078680    -237.10462565     81.593496870    0.688D-05 0.288D-13
          Norm of current diis error: 0.22207E-02
          max. resid. norm for Fia-block=  2.883D-04 for orbital      7a         
          max. resid. fock norm         =  7.285D-04 for orbital    340a         
          Delta Eig. =     0.0689688641 eV 
 
                                              current damping :  0.450
 ITERATION  ENERGY          1e-ENERGY        2e-ENERGY     RMS[dD(SAO)]   TOL
   8  -115.08922104289    -237.10459235     81.593463311    0.272D-05 0.271D-13
          Norm of current diis error: 0.95218E-03
          max. resid. norm for Fia-block=  1.223D-04 for orbital      7a         
          max. resid. fock norm         =  2.719D-04 for orbital    340a         
          Delta Eig. =     0.0283658922 eV 
 
                                              current damping :  0.300
 ITERATION  ENERGY          1e-ENERGY        2e-ENERGY     RMS[dD(SAO)]   TOL
   9  -115.08922109644    -237.10453574     81.593406651    0.131D-05 0.252D-13
          Norm of current diis error: 0.36265E-03
          max. resid. norm for Fia-block=  4.864D-05 for orbital      5a         
          max. resid. fock norm         =  8.243D-05 for orbital    340a         
          Delta Eig. =     0.0097975627 eV 
 
                                              current damping :  0.150
 ITERATION  ENERGY          1e-ENERGY        2e-ENERGY     RMS[dD(SAO)]   TOL
  10  -115.08922110567    -237.10450764     81.593378540    0.589D-06 0.232D-13
          Norm of current diis error: 0.11938E-03
          max. resid. norm for Fia-block=  1.740D-05 for orbital      5a         
          max. resid. fock norm         =  1.814D-05 for orbital      5a         
 mo-orthogonalization: Cholesky decomposition
          Delta Eig. =     0.0025535623 eV 
 
                                              current damping :  0.050
 ITERATION  ENERGY          1e-ENERGY        2e-ENERGY     RMS[dD(SAO)]   TOL
  11  -115.08922110690    -237.10449491     81.593365812    0.236D-06 0.214D-13
          Norm of current diis error: 0.32997E-04
          max. resid. norm for Fia-block=  5.416D-06 for orbital      5a         
          max. resid. fock norm         =  5.663D-06 for orbital      5a         
          Delta Eig. =     0.0003649123 eV 

 DENSITY CONVERGED !

 
                                              current damping :  0.050
 ITERATION  ENERGY          1e-ENERGY        2e-ENERGY     RMS[dD(SAO)]   TOL
  12  -115.08922110702    -237.10449082     81.593361722    0.770D-07 0.229D-13
          Norm of current diis error: 0.80179E-05
          max. resid. norm for Fia-block=  1.478D-06 for orbital      5a         
          max. resid. fock norm         =  1.554D-06 for orbital      5a         
          Delta Eig. =     0.0000157312 eV 

 ENERGY & DENSITY CONVERGED !

 
                                              current damping :  0.050
 ITERATION  ENERGY          1e-ENERGY        2e-ENERGY     RMS[dD(SAO)]   TOL
  13  -115.08922110703    -237.10448958     81.593360483    0.190D-07 0.230D-13
          max. resid. norm for Fia-block=  2.238D-07 for orbital      5a         
          max. resid. fock norm         =  2.354D-07 for orbital      5a         

 convergence criteria satisfied after    13 iterations


                  ------------------------------------------ 
                 |  total energy      =   -115.08922110703  |
                  ------------------------------------------ 
                 :  kinetic energy    =    114.93422580040  :
                 :  potential energy  =   -230.02344690743  :
                 :  virial theorem    =      1.99865325957  :
                 :  wavefunction norm =      1.00000000000  :
                  .......................................... 


 orbitals $scfmo  will be written to file mos

    irrep                  5a          6a          7a          8a          9a   
 eigenvalues H         -0.68936    -0.61916    -0.59379    -0.50221    -0.44881
            eV         -18.7585    -16.8484    -16.1580    -13.6660    -12.2127
 occupation              2.0000      2.0000      2.0000      2.0000      2.0000 

    irrep                 10a         11a         12a         13a         14a   
 eigenvalues H          0.06297     0.10705     0.10815     0.15672     0.16409
            eV           1.7134      2.9130      2.9428      4.2646      4.4652
 
 
 
 
 ==============================================================================
                           electrostatic moments
 ==============================================================================

 reference point for electrostatic moments:    0.00000   0.00000   0.00000

 
              nuc           elec       ->  total
 ------------------------------------------------------------------------------
                          charge      
 ------------------------------------------------------------------------------
          18.000000     -18.000000       0.000000
 
 ------------------------------------------------------------------------------
                       dipole moment  
 ------------------------------------------------------------------------------
   x     -26.138910      26.584511       0.445601
   y     -22.310013      21.768543      -0.541470
   z       0.042326      -0.043635      -0.001308
 
   | dipole moment | =     0.7013 a.u. =     1.7824 debye 
 
 ------------------------------------------------------------------------------
                     quadrupole moment
 ------------------------------------------------------------------------------
  xx      50.044350     -59.292922      -9.248572
  yy      65.058336     -74.315989      -9.257653
  zz       5.591281     -15.767003     -10.175722
  xy      43.157423     -41.882344       1.275079
  xz      -0.067604       0.066302      -0.001302
  yz      -0.052580       0.050316      -0.002264
 
     1/3  trace=      -9.560649
     anisotropy=       2.393485
 
 ==============================================================================
 


    ------------------------------------------------------------------------
         total  cpu-time : 15 minutes and 23 seconds
         total wall-time :  1 minutes and  1 seconds
    ------------------------------------------------------------------------

   ****  dscf : all done  ****


    2019-04-01 21:50:16.013 

