           Doing BLAS/Lapack in the master proc. with  8 CPUs.
           SMPCPUS    set: Shared-memory Parallelization with   8 CPUs.

           SMP Parallelization Reference:
           C. van Wullen, J. Comput. Chem. 32 (2011) 1195--1201
 operating system is UNIX !

 ridft (c-18-313.gp.local) : TURBOMOLE V7.2 ( 21454 ) 4 Oct 2017 at 12:48:15
 Copyright (C) 2017 TURBOMOLE GmbH, Karlsruhe


    2018-04-28 20:55:42.800 



                                  r i d f t

                        DFT program with RI approximation 
                                for coulomb part 




                                                 
                                 References:     
                                                 
          TURBOMOLE:                             
              R. Ahlrichs, M. Baer, M. Haeser, H. Horn, and
              C. Koelmel
              Electronic structure calculations on workstation
              computers: the program system TURBOMOLE
              Chem. Phys. Lett. 162: 165 (1989)
          Density Functional:                              
              O. Treutler and R. Ahlrichs                      
              Efficient Molecular Numerical Integration Schemes
              J. Chem. Phys. 102: 346 (1995)                   
          Parallel Version:                                
              Performance of parallel TURBOMOLE for Density    
              Functional Calculations                          
              M. v. Arnim and R. Ahlrichs                      
              J. Comp. Chem. 19: 1746 (1998)                   
          RI-J Method:                                     
              Auxiliary Basis Sets to approximate Coulomb      
              Potentials                                       
              Chem. Phys. Lett. 240: 283 (1995)                
              K. Eichkorn, O. Treutler, H. Oehm, M. Haeser     
              and R. Ahlrichs                                  
              Chem. Phys. Lett. 242: 652 (1995)                
                                                           
              Auxiliary Basis Sets for Main Row Atoms and their
              Use to approximate Coulomb Potentials            
              K. Eichkorn, F. Weigend, O. Treutler and         
              R. Ahlrichs                                      
              Theo. Chem. Acc. 97: 119 (1997)                   
                                                           
              Accurate Coulomb-fitting basis sets for H to Rn 
              F. Weigend                                        
              Phys. Chem. Chem. Phys. 8: 1057 (2006)            
                                                           
          Multipole accelerated RI-J (MARI-J):             
              Fast evaluation of the Coulomb potential for     
              electron densities using multipole accelerated   
              resolution of identity approximation             
              M. Sierka, A. Hogekamp and R. Ahlrichs           
              J. Chem. Phys. 118: 9136 (2003)                  
          RI-JK Method:                                     
              A fully direct RI-HF algorithm: Implementation,
              optimised auxiliary basis sets, demonstration of
              accuracy and efficiency                         
              F. Weigend                                      
              Phys. Chem. Chem. Phys. 4: 4285 (2002)           
          Two-component HF and DFT with spin-orbit coupling:  
              Self-consistent treatment of spin-orbit         
              interactions with efficient Hartree-Fock and    
              density functional methods                      
              M. K. Armbruster, F. Weigend, C. van Wüllen and 
              W. Klopper                                      
              Phys. Chem. Chem. Phys. 10: 1748 (2008)         
          Relativistic all-electron 2c calculations           
              An efficient implementation of two-component    
              relativistic exact-decoupling methods for large 
              molecules                                       
              D. Peng, N. Middendorf, F. Weigend, M. Reiher   
              J. Chem. Phys. 138, 184105 (2013)               
                                         




              +--------------------------------------------------+
              |      general information about current run       |
              +--------------------------------------------------+

 

 DENSITY CONVERGENCE CHECK SWITCHED ON !
 SCF CONVERGENCE IF RMS(delta[D]) <     0.1000000000E-06

 PBE functional
 exchange:    LDA + PBE
 correlation: LDA (PW) + PBE
 A DFT calculation using the RI-J approximation will be carried out.
 Allocatable memory for RI due to $ricore (MB):                  5000


              +--------------------------------------------------+
              | Atomic coordinate, charge and isotop information |
              +--------------------------------------------------+

                    atomic coordinates            atom    charge  isotop
         -0.00098493    0.12088822    9.90463354    c      6.000     0
          0.00104037   -0.14392119   12.77651262    c      6.000     0
         -1.67521479    0.73305544   13.59546212    h      1.000     0
          0.01852317   -2.12960808   13.33022103    h      1.000     0
          1.66146755    0.76251347   13.59597926    h      1.000     0
         -2.34321607   -1.16724743    8.82012253    c      6.000     0
         -2.38724521   -0.99914283    6.76631301    h      1.000     0
         -2.36605460   -3.17276917    9.29824818    h      1.000     0
         -4.06465023   -0.31254082    9.56672520    h      1.000     0
          2.36609568   -1.12168382    8.82093166    c      6.000     0
          2.40639747   -0.95484809    6.76685423    h      1.000     0
          2.42870332   -3.12585336    9.30109655    h      1.000     0
          4.07027383   -0.23229686    9.56627956    h      1.000     0
         -0.02790951    2.91729077    9.19670193    c      6.000     0
          1.63082783    3.88216040    9.95061786    h      1.000     0
         -0.02890011    3.15625594    7.14889701    h      1.000     0
         -1.70618654    3.84955637    9.94841257    h      1.000     0
 
       center of nuclear mass  :   -0.00099656    0.12111698    9.90363714
       center of nuclear charge:   -0.00099774    0.12115337    9.90353619

              +--------------------------------------------------+
              |               basis set information              |
              +--------------------------------------------------+

              we will work with the 1s 3p 5d 7f 9g ... basis set
              ...i.e. with spherical basis functions...

   type   atoms  prim   cont   basis
   ---------------------------------------------------------------------------
    c        5     77     55   cc-pVQZ   [5s4p3d2f1g|21s6p3d2f1g]
    h       12     32     30   cc-pVQZ   [4s3p2d1f|6s3p2d1f]
   ---------------------------------------------------------------------------
   total:   17    769    635
   ---------------------------------------------------------------------------

   total number of primitive shells          :   45
   total number of contracted shells         :  195
   total number of cartesian basis functions :  770
   total number of SCF-basis functions       :  635


 integral neglect threshold       :  0.43E-13
 integral storage threshold THIZE :  0.10E-04
 integral storage threshold THIME :         5

 RI-J AUXILIARY BASIS SET information:

              we will work with the 1s 3p 5d 7f 9g ... basis set
              ...i.e. with spherical basis functions...

   type   atoms  prim   cont   basis
   ---------------------------------------------------------------------------
    c        5     70     49   cc-pVQZ   [6s4p3d1f1g|12s5p4d2f1g]
    h       12     16     11   cc-pVQZ   [3s1p1d|5s2p1d]
   ---------------------------------------------------------------------------
   total:   17    542    377
   ---------------------------------------------------------------------------

   total number of primitive shells          :   32
   total number of contracted shells         :  135
   total number of cartesian basis functions :  449
   total number of SCF-basis functions       :  377


 symmetry group of the molecule :   c1 

 the group has the following generators :
   c1(z)

    1 symmetry operations found

 there are 1 real representations :   a   

 maximum number of shells which are related by symmetry :  1


    mo occupation :
   irrep   mo's   occupied
    a      635       21
 
 number of basis functions   :                    635
 number of occupied orbitals :                     21
 
  
           ------------------
           density functional
           ------------------
 PBE functional
 exchange:    LDA + PBE
 correlation: LDA (PW) + PBE

 iterations will be done with small grid
  
 spherical integration : Lebedev's spherical grid
 spherical gridsize    :                     5
    i.e. gridpoints    :                   590
 value for diffuse not defined
 radial integration    : Chebyshev 2nd kind (scaling 3)
 radial gridsize       :                     8
 integration cells     :                    17
 partition function    : becke
 partition sharpness   :                     3
  

 biggest AO integral is expected to be     3.537514283
  
           ------------------------
               RI-J - INFORMATION
           ------------------------
 Contributions to RI integral batches: 
  neglected integral batches:                  1827
  direct contribution:                            0
  memory contribution:                 17283
 Memory core needed for (P|Q) and Cholesky      2 MByte
 Memory core minimum needed except of (P|Q)     3 MByte
 Total minimum memory core needed (sum)         4 MByte
  
 ****************************************
 Memory allocated for RI-J   938 MByte
 ****************************************
                                            

          ------------------------
          nuclear repulsion energy  :   199.368957381    
          ------------------------


         -----------------
         -S,T+V- integrals
         -----------------

 1e-integrals will be neglected if expon. factor < 0.434021E-14
 Difference densities >>NOT<< switched on in parallel ridft!

 DIIS switched on: error vector is FDS-SDF
 Max. Iterations for DIIS is     :   4
 DIIS matrix (see manual) 
    Scaling factor of diagonals  :  1.200
    threshold for scaling factor :  0.000

 scf convergence criterion : increment of total energy < .1000000D-08
                  and increment of one-electron energy < .1000000D-05

  MOs are in ASCII format !


 automatic virtual orbital shift switched on 
      shift if e(lumo)-e(homo) < 0.10000000    


 reading orbital data $scfmo  from file mos
 orbital characterization : expanded
 mo provided and orthogonalized by Cholesky decomposition

 DSCF restart information will be dumped onto file mos


 Starting SCF iterations

          Overall gridpoints after grid construction =         72572

 ITERATION  ENERGY          1e-ENERGY        2e-ENERGY     RMS[dD(SAO)]   TOL
   1  -196.88518987943    -650.70307857     254.44893131    0.000D+00 0.433D-13
                            Exc = -30.3258333618     Coul =  284.774764668    
                              N = 41.999890747    
                            current damping = 0.700
 
          max. resid. norm for Fia-block=  2.484D-01 for orbital      7a         
          max. resid. fock norm         =  7.257D+00 for orbital    590a         

 ITERATION  ENERGY          1e-ENERGY        2e-ENERGY     RMS[dD(SAO)]   TOL
   2  -197.41652052553    -656.56871792     259.78324001    0.337D-02 0.433D-13
                            Exc = -30.9682939282     Coul =  290.751533943    
                              N = 41.999910317    
                            current damping = 0.650
 
          Norm of current diis error:  2.4731    
          max. resid. norm for Fia-block=  1.015D-01 for orbital      6a         
          max. resid. fock norm         =  1.233D-01 for orbital     46a         

 ITERATION  ENERGY          1e-ENERGY        2e-ENERGY     RMS[dD(SAO)]   TOL
   3  -197.52215606641    -657.53657131     260.64545786    0.145D-02 0.433D-13
                            Exc = -31.1583286016     Coul =  291.803786464    
                              N = 41.999921777    
                            current damping = 0.550
 
          Norm of current diis error:  1.1671    
          max. resid. norm for Fia-block=  4.572D-02 for orbital      6a         
          max. resid. fock norm         =  5.246D-02 for orbital      6a         

 ITERATION  ENERGY          1e-ENERGY        2e-ENERGY     RMS[dD(SAO)]   TOL
   4  -197.55228873769    -658.86995754     261.94871142    0.725D-03 0.433D-13
                            Exc = -31.3132922993     Coul =  293.262003717    
                              N = 41.999930350    
                            current damping = 0.450
 
          Norm of current diis error: 0.41584    
          max. resid. norm for Fia-block=  1.887D-02 for orbital      6a         
          max. resid. fock norm         =  2.210D-02 for orbital      6a         

 ITERATION  ENERGY          1e-ENERGY        2e-ENERGY     RMS[dD(SAO)]   TOL
   5  -197.55659658107    -658.84083830     261.91528434    0.392D-03 0.433D-13
                            Exc = -31.3468183427     Coul =  293.262102680    
                              N = 41.999933496    
                            current damping = 0.500
 
          Norm of current diis error: 0.18179    
          max. resid. norm for Fia-block=  6.964D-03 for orbital     10a         
          max. resid. fock norm         =  7.898D-03 for orbital     10a         
          mo-orthogonalization: Cholesky decomposition

 ITERATION  ENERGY          1e-ENERGY        2e-ENERGY     RMS[dD(SAO)]   TOL
   6  -197.55736594585    -659.16909100     262.24276767    0.116D-03 0.433D-13
                            Exc = -31.3741443774     Coul =  293.616912051    
                              N = 41.999934806    
                            current damping = 0.550
 
          Norm of current diis error: 0.57461E-01
          max. resid. norm for Fia-block=  2.386D-03 for orbital      6a         
          max. resid. fock norm         =  2.949D-03 for orbital      6a         

 ITERATION  ENERGY          1e-ENERGY        2e-ENERGY     RMS[dD(SAO)]   TOL
   7  -197.55744749627    -659.13324962     262.20684475    0.585D-04 0.433D-13
                            Exc = -31.3760724558     Coul =  293.582917202    
                              N = 41.999935109    
                            current damping = 0.600
 
          Norm of current diis error: 0.15895E-01
          max. resid. norm for Fia-block=  6.718D-04 for orbital      6a         
          max. resid. fock norm         =  7.565D-04 for orbital      6a         

 ITERATION  ENERGY          1e-ENERGY        2e-ENERGY     RMS[dD(SAO)]   TOL
   8  -197.55745462704    -659.13665139     262.21023938    0.181D-04 0.433D-13
                            Exc = -31.3770953461     Coul =  293.587334730    
                              N = 41.999935209    
                            current damping = 0.650
 
          Norm of current diis error: 0.64694E-02
          max. resid. norm for Fia-block=  2.772D-04 for orbital      6a         
          max. resid. fock norm         =  3.065D-04 for orbital      6a         

 ITERATION  ENERGY          1e-ENERGY        2e-ENERGY     RMS[dD(SAO)]   TOL
   9  -197.55745582019    -659.14471880     262.21830559    0.634D-05 0.433D-13
                            Exc = -31.3780921064     Coul =  293.596397701    
                              N = 41.999935269    
                            current damping = 0.500
 
          Norm of current diis error: 0.23482E-02
          max. resid. norm for Fia-block=  1.006D-04 for orbital      6a         
          max. resid. fock norm         =  1.133D-04 for orbital      6a         

 ITERATION  ENERGY          1e-ENERGY        2e-ENERGY     RMS[dD(SAO)]   TOL
  10  -197.55745598129    -659.14426669     262.21785333    0.305D-05 0.433D-13
                            Exc = -31.3781645007     Coul =  293.596017832    
                              N = 41.999935283    
                            current damping = 0.550
 
          Norm of current diis error: 0.83008E-03
          max. resid. norm for Fia-block=  3.982D-05 for orbital      6a         
          max. resid. fock norm         =  4.572D-05 for orbital      6a         
          mo-orthogonalization: Cholesky decomposition

 ITERATION  ENERGY          1e-ENERGY        2e-ENERGY     RMS[dD(SAO)]   TOL
  11  -197.55745600095    -659.14455284     262.21813945    0.102D-05 0.433D-13
                            Exc = -31.3782525028     Coul =  293.596391957    
                              N = 41.999935290    
                            current damping = 0.600
 
          Norm of current diis error: 0.35116E-03
          max. resid. norm for Fia-block=  1.429D-05 for orbital     10a         
          max. resid. fock norm         =  1.628D-05 for orbital     10a         

 ITERATION  ENERGY          1e-ENERGY        2e-ENERGY     RMS[dD(SAO)]   TOL
  12  -197.55745600394    -659.14509502     262.21868163    0.291D-06 0.433D-13
                            Exc = -31.3782959160     Coul =  293.596977551    
                              N = 41.999935292    
                            current damping = 0.450
 
          Norm of current diis error: 0.12002E-03
          max. resid. norm for Fia-block=  5.096D-06 for orbital      6a         
          max. resid. fock norm         =  6.732D-06 for orbital     55a         

 ITERATION  ENERGY          1e-ENERGY        2e-ENERGY     RMS[dD(SAO)]   TOL
  13  -197.55745600433    -659.14495576     262.21854238    0.167D-06 0.433D-13
                            Exc = -31.3782942531     Coul =  293.596836632    
                              N = 41.999935293    
                            current damping = 0.500
 
          Norm of current diis error: 0.32999E-04
          max. resid. norm for Fia-block=  1.410D-06 for orbital      6a         
          max. resid. fock norm         =  1.572D-06 for orbital      6a         

 DENSITY CONVERGED !


 ITERATION  ENERGY          1e-ENERGY        2e-ENERGY     RMS[dD(SAO)]   TOL
  14  -197.55745600437    -659.14499064     262.21857726    0.416D-07 0.433D-13
                            Exc = -31.3782984441     Coul =  293.596875703    
                              N = 41.999935293    
                            current damping = 0.550
 
          Norm of current diis error: 0.10031E-04
          max. resid. norm for Fia-block=  4.750D-07 for orbital      6a         
          max. resid. fock norm         =  5.297D-07 for orbital      6a         

 ENERGY & DENSITY CONVERGED !

          Overall gridpoints after grid construction =        244061

 ITERATION  ENERGY          1e-ENERGY        2e-ENERGY     RMS[dD(SAO)]   TOL
  15  -197.55746546086    -659.14499458     262.21857173    0.144D-07 0.433D-13
                            Exc = -31.3783087495     Coul =  293.596880484    
                              N = 41.999990572    
                            current damping = 0.600
 
          Norm of current diis error: 0.35550E-05
          max. resid. norm for Fia-block=  1.643D-07 for orbital      6a         
          max. resid. fock norm         =  1.845D-07 for orbital      6a         

 End of SCF iterations

   convergence criteria satisfied after    15 iterations


                  ------------------------------------------ 
                 |  total energy      =   -197.55746546086  |
                  ------------------------------------------ 
                 :  kinetic energy    =    196.63193275260  :
                 :  potential energy  =   -394.18939821346  :
                 :  virial theorem    =      1.99531512157  :
                 :  wavefunction norm =      1.00000000000  :
                  .......................................... 


 <geterg> : there is no data group $energy 


 <skperg> : $end is missing 


 orbitals $scfmo  will be written to file mos

    irrep                 17a         18a         19a         20a         21a   
 eigenvalues H         -0.31766    -0.31763    -0.28080    -0.28072    -0.28071
            eV          -8.6440     -8.6433     -7.6410     -7.6387     -7.6385
 occupation              2.0000      2.0000      2.0000      2.0000      2.0000 

    irrep                 22a         23a         24a         25a         26a   
 eigenvalues H         -0.00051     0.04797     0.04798     0.04798     0.05807
            eV          -0.0138      1.3052      1.3055      1.3056      1.5801
 
 
 
 
 ==============================================================================
                           electrostatic moments
 ==============================================================================

 reference point for electrostatic moments:    0.00000   0.00000   0.00000

 
              nuc           elec       ->  total
 ------------------------------------------------------------------------------
                          charge      
 ------------------------------------------------------------------------------
          42.000000     -42.000000       0.000000
 
 ------------------------------------------------------------------------------
                       dipole moment  
 ------------------------------------------------------------------------------
   x      -0.041905       0.041912       0.000007
   y       5.088442      -5.088231       0.000211
   z     415.948520    -415.948638      -0.000118
 
   | dipole moment | =     0.0002 a.u. =     0.0006 debye 
 
 ------------------------------------------------------------------------------
                     quadrupole moment
 ------------------------------------------------------------------------------
  xx     133.752790    -160.418482     -26.665691
  yy     134.404644    -161.071584     -26.666940
  zz    4253.194111   -4279.865274     -26.671163
  xy      -0.004760       0.004773       0.000013
  xz      -0.416050       0.416205       0.000155
  yz      50.417325     -50.416247       0.001079
 
     1/3  trace=     -26.667931
     anisotropy=       0.005313
 
 ==============================================================================
 


    ------------------------------------------------------------------------
         total  cpu-time :  5 minutes and 17 seconds
         total wall-time :  48.72 seconds
    ------------------------------------------------------------------------

   ****  ridft : all done  ****


    2018-04-28 20:56:31.506 

