Using OpenMPI from /sopt/mpi/openmpi-1.8.6/intel_15.0.3/bin/mpiexec
STARTING ridft ON 8 PROCESSORS!
RUNNING PROGRAM /beegfs/modfac/apps/TURBOMOLE/7.0_intel/bin/em64t-unknown-linux-gnu_mpi/ridft_mpi.
PLEASE WAIT UNTIL ridft HAS FINISHED.
Look for the output in slave1.output.
  this is node-proc. number 1 running on node c-15-41.local
  the total number of node-proc. spawned is            7
  parallel platform: MPP, or cluster with fast interconnect

 ridft (c-15-41.local) : TURBOMOLE V7.0( ) 6 Jul 2015 at 19:34:44
 Copyright (C) 2015 TURBOMOLE GmbH, Karlsruhe


    2017-11-01 17:14:50.317 



                                  r i d f t

                        DFT program with RI approximation 
                                for coulomb part 




                                                 
                                 References:     
                                                 
          TURBOMOLE:                             
              R. Ahlrichs, M. Baer, M. Haeser, H. Horn, and
              C. Koelmel
              Electronic structure calculations on workstation
              computers: the program system TURBOMOLE
              Chem. Phys. Lett. 162: 165 (1989)
          Density Functional:                              
              O. Treutler and R. Ahlrichs                      
              Efficient Molecular Numerical Integration Schemes
              J. Chem. Phys. 102: 346 (1995)                   
          Parallel Version:                                
              Performance of parallel TURBOMOLE for Density    
              Functional Calculations                          
              M. v. Arnim and R. Ahlrichs                      
              J. Comp. Chem. 19: 1746 (1998)                   
          RI-J Method:                                     
              Auxiliary Basis Sets to approximate Coulomb      
              Potentials                                       
              Chem. Phys. Lett. 240: 283 (1995)                
              K. Eichkorn, O. Treutler, H. Oehm, M. Haeser     
              and R. Ahlrichs                                  
              Chem. Phys. Lett. 242: 652 (1995)                
                                                           
              Auxiliary Basis Sets for Main Row Atoms and their
              Use to approximate Coulomb Potentials            
              K. Eichkorn, F. Weigend, O. Treutler and         
              R. Ahlrichs                                      
              Theo. Chem. Acc. 97: 119 (1997)                   
                                                           
              Accurate Coulomb-fitting basis sets for H to Rn 
              F. Weigend                                        
              Phys. Chem. Chem. Phys. 8: 1057 (2006)            
                                                           
          Multipole accelerated RI-J (MARI-J):             
              Fast evaluation of the Coulomb potential for     
              electron densities using multipole accelerated   
              resolution of identity approximation             
              M. Sierka, A. Hogekamp and R. Ahlrichs           
              J. Chem. Phys. 118: 9136 (2003)                  
          RI-JK Method:                                     
              A fully direct RI-HF algorithm: Implementation,
              optimised auxiliary basis sets, demonstration of
              accuracy and efficiency                         
              F. Weigend                                      
              Phys. Chem. Chem. Phys. 4: 4285 (2002)           
          Two-component HF and DFT with spin-orbit coupling:  
              Self-consistent treatment of spin-orbit         
              interactions with efficient Hartree-Fock and    
              density functional methods                      
              M. K. Armbruster, F. Weigend, C. van Wüllen and 
              W. Klopper                                      
              Phys. Chem. Chem. Phys. 10: 1748 (2008)         
          Relativistic all-electron 2c calculations           
              An efficient implementation of two-component    
              relativistic exact-decoupling methods for large 
              molecules                                       
              D. Peng, N. Middendorf, F. Weigend, M. Reiher   
              J. Chem. Phys. 138, 184105 (2013)               
                                         


 


              +--------------------------------------------------+
              |      general information about current run       |
              +--------------------------------------------------+

 

 SCF run will be profiled !


 DENSITY CONVERGENCE CHECK SWITCHED ON !
 SCF CONVERGENCE IF RMS(delta[D]) <     0.1000000000E-06

 TPSS meta-GGA functional
 exchange:    LDA + TPSS
 correlation: LDA (PW) + TPSS
 A DFT calculation using the RI-J approximation will be carried out.
 Allocatable memory for RI due to $ricore (MB):       10000


              +--------------------------------------------------+
              | Atomic coordinate, charge and isotop information |
              +--------------------------------------------------+

                    atomic coordinates            atom    charge  isotop
          8.98454269    4.91128795   -2.29352942    c      6.000     0
          8.98454269    4.91128795    2.29352942    c      6.000     0
          8.98454269   -4.91128795    2.29352942    c      6.000     0
          8.98454269   -4.91128795   -2.29352942    c      6.000     0
         -1.89453603   10.06247931   -2.29352942    c      6.000     0
         -1.89453603  -10.06247931   -2.29352942    c      6.000     0
         -1.89453603   10.06247931    2.29352942    c      6.000     0
         -1.89453603  -10.06247931    2.29352942    c      6.000     0
          7.44728878   -7.02713643    2.29352942    c      6.000     0
          7.44728878    7.02713643    2.29352942    c      6.000     0
          7.44728878    7.02713643   -2.29352942    c      6.000     0
          7.44728878   -7.02713643   -2.29352942    c      6.000     0
         -4.38186510    9.25429710    2.29352942    c      6.000     0
         -4.38186510    9.25429710   -2.29352942    c      6.000     0
         -4.38186510   -9.25429710   -2.29352942    c      6.000     0
         -4.38186510   -9.25429710    2.29352942    c      6.000     0
        -10.15543035    1.30766628    2.29352942    c      6.000     0
        -10.15543035    1.30766628   -2.29352942    c      6.000     0
        -10.15543035   -1.30766628   -2.29352942    c      6.000     0
        -10.15543035   -1.30766628    2.29352942    c      6.000     0
          6.49731631   -8.01479984    0.00000000    c      6.000     0
          6.49731631    8.01479984    0.00000000    c      6.000     0
         -0.54545817   10.30313598    0.00000000    c      6.000     0
         -0.54545817  -10.30313598    0.00000000    c      6.000     0
          9.63030877    3.70260566    0.00000000    c      6.000     0
          9.63030877   -3.70260566    0.00000000    c      6.000     0
         -9.96742046   -2.66508257    0.00000000    c      6.000     0
         -9.96742046    2.66508257    0.00000000    c      6.000     0
         -5.61474646    8.65602437    0.00000000    c      6.000     0
         -5.61474646   -8.65602437    0.00000000    c      6.000     0
          2.12612275  -10.28131990    0.00000000    c      6.000     0
          2.12612275   10.28131990    0.00000000    c      6.000     0
          4.32313878    9.56746612    0.00000000    c      6.000     0
          4.32313878   -9.56746612    0.00000000    c      6.000     0
         10.43512435   -1.15503968    0.00000000    c      6.000     0
         10.43512435    1.15503968    0.00000000    c      6.000     0
         -7.76327765    7.06805893    0.00000000    c      6.000     0
         -7.76327765   -7.06805893    0.00000000    c      6.000     0
         -9.12110823    5.19916547    0.00000000    c      6.000     0
         -9.12110823   -5.19916547    0.00000000    c      6.000     0
         -5.34763899   -8.89831609    4.06738281    h      1.000     0
         -5.34763899   -8.89831609   -4.06738281    h      1.000     0
         -5.34763899    8.89831609    4.06738281    h      1.000     0
         -5.34763899    8.89831609   -4.06738281    h      1.000     0
          9.55662979    4.05562561    4.06738281    h      1.000     0
          9.55662979    4.05562561   -4.06738281    h      1.000     0
          9.55662979   -4.05562561   -4.06738281    h      1.000     0
          9.55662979   -4.05562561    4.06738281    h      1.000     0
         -0.90396815  -10.34215227   -4.06738281    h      1.000     0
         -0.90396815  -10.34215227    4.06738281    h      1.000     0
         -0.90396815   10.34215227   -4.06738281    h      1.000     0
         -0.90396815   10.34215227    4.06738281    h      1.000     0
          6.81029017    7.83563780    4.06738281    h      1.000     0
          6.81029017    7.83563780   -4.06738281    h      1.000     0
          6.81029017   -7.83563780   -4.06738281    h      1.000     0
          6.81029017   -7.83563780    4.06738281    h      1.000     0
        -10.11531283   -2.33617601    4.06738281    h      1.000     0
        -10.11531283    2.33617601   -4.06738281    h      1.000     0
        -10.11531283    2.33617601    4.06738281    h      1.000     0
        -10.11531283   -2.33617601   -4.06738281    h      1.000     0
 
       center of nuclear mass  :    0.00000000    0.00000000    0.00000000
       center of nuclear charge:   -0.00000000    0.00000000    0.00000000

              +--------------------------------------------------+
              |               basis set information              |
              +--------------------------------------------------+

              we will work with the 1s 3p 5d 7f 9g ... basis set
              ...i.e. with spherical basis functions...

   type   atoms  prim   cont   basis
   ---------------------------------------------------------------------------
    c       40     77     57   def2-QZVP   [7s4p3d2f1g|15s8p3d2f1g]
    h       20     33     30   def2-QZVP   [4s3p2d1f|7s3p2d1f]
   ---------------------------------------------------------------------------
   total:   60   3740   2880
   ---------------------------------------------------------------------------

   total number of primitive shells          :   42
   total number of contracted shells         :  880
   total number of cartesian basis functions : 3580
   total number of SCF-basis functions       : 2880


 integral neglect threshold       :  0.93E-14
 integral storage threshold THIZE :  0.10E-04
 integral storage threshold THIME :         5

 RI-J AUXILIARY BASIS SET information:

              we will work with the 1s 3p 5d 7f 9g ... basis set
              ...i.e. with spherical basis functions...

   type   atoms  prim   cont   basis
   ---------------------------------------------------------------------------
    c       40     70     49   def2-QZVP   [6s4p3d1f1g|12s5p4d2f1g]
    h       20     16     11   def2-QZVP   [3s1p1d|5s2p1d]
   ---------------------------------------------------------------------------
   total:   60   3120   2180
   ---------------------------------------------------------------------------

   total number of primitive shells          :   32
   total number of contracted shells         :  700
   total number of cartesian basis functions : 2680
   total number of SCF-basis functions       : 2180


 symmetry group of the molecule :   c1 

 the group has the following generators :
   c1(z)

    1 symmetry operations found

 there are 1 real representations :   a   

 maximum number of shells which are related by symmetry :  1


    mo occupation :
   irrep   mo's   occupied
    a     2880      130
 
 number of basis functions   :         2880
 number of occupied orbitals :          130
 
  
           ------------------
           density functional
           ------------------
 TPSS meta-GGA functional
 exchange:    LDA + TPSS
 correlation: LDA (PW) + TPSS
 grinp -> nfun, dfgga, dfhybrid 
           5 F F
 iterations will be done with small grid
  
 spherical integration : Lebedev's spherical grid
 spherical gridsize    :           5
    i.e. gridpoints    :         590
 value for diffuse not defined
 radial integration    : Chebyshev 2nd kind (scaling 3)
 radial gridsize       :           8
 integration cells     :          60
 partition function    : becke
 partition sharpness   :           3
  

 <rddim> : input of entry tasksize
           from data group '$pardft' failed !

               Default values taken

 <rddim> : input of entry memdiv
           from data group '$pardft' failed !

               Default values taken
  RIDFT: memory allocation for DFT gridpoints
  MEMORY is divided by 1 as DEFAULT
 Each node can hold at most  the            1 -th part
 of the gridpoints    

 biggest AO integral is expected to be     5.262544080
  
           ------------------------
               RI-J - INFORMATION
           ------------------------
 
 
 **************************************************
 *      MEMORY ALLOCATION FOR PARALLEL RI-DFT     *
 **************************************************
 
 
MEMORY FOR (MU NU/ ALPHA), SEQUENTIAL RUN               9961 MByte
 
            DIFFERENCE IN MEMORY NEED:       DIAG./SLAVE  
 
      TOTAL DIFFERENCE :                    377 MByte
 
      difference in xcore:                   40 MByte
      difference in fatmat:                 113 MByte
      getcor calls skipped by slaves:       225 MByte
 
 
           Integral memory available for diagonal.      9961 MByte
 
           Integral memory available for slave             0 MByte
 
         MEMORY FOR (MU NU/ ALPHA) ON DIAGONALIZER      9961 MByte
 
         MEMORY FOR (MU NU/ ALPHA) ON ONE SLAVE            0 MByte
 
         TOTAL MEMORY FOR (MU NU/ ALPHA),ALL NODES      9961 MByte
 
 Contributions to RI integral batches: 
  neglected integral batches:      256167
  direct contribution:              82331
  memory contribution:       49142
 Memory core needed for (P|Q) and Cholesky     37 MByte
 Memory core minimum needed except of (P|Q)     7 MByte
 Total minimum memory core needed (sum)        43 MByte
     number of direct tasks:         140
  
 ****************************************
 Memory allocated for RI-J 10003 MByte
 ****************************************
                                            

          ------------------------
          nuclear repulsion energy  :   3377.00746343    
          ------------------------

 
          -----------------
          -S integrals
          -----------------

 1e-integrals will be neglected if expon. factor < 0.933509E-15
 
          -----------------
          -T+V integrals
          -----------------

 1e-integrals will be neglected if expon. factor < 0.933509E-15
 Difference densities >>NOT<< switched on in parallel ridft!

 automatic virtual orbital shift switched on 
      shift if e(lumo)-e(homo) < 0.10000000    


 DIIS switched on: error vector is FDS-SDF
 Max. Iterations for DIIS is     :   4
 DIIS matrix (see manual) 
    Scaling factor of diagonals  :  1.200
    threshold for scaling factor :  0.000

 scf convergence criterion : increment of total energy < .1000000D-08
                  and increment of one-electron energy < .1000000D-05


 <geterg> : there is no data group $energy 

  MOs are in ASCII format !


 reading orbital data $scfmo  from file mos . 

 orbital characterization : expanded
 
 mo provided and orthogonalized by Cholesky decomposition

 DSCF restart information will be dumped onto file mos


 Starting SCF iterations


 ITERATION  ENERGY          1e-ENERGY        2e-ENERGY     RMS[dD(SAO)]   TOL
   1  -1531.7682448974    -8721.5319575     3812.7562491    0.000D+00 0.931D-14
                            Exc = -218.742754929     Coul =  4031.49900406    
                              N = 259.99967206    
                            current damping = 0.700
 
          max. resid. norm for Fia-block=  5.160D-01 for orbital     41a         
          max. resid. fock norm         =  4.452D+01 for orbital   2367a         

 ITERATION  ENERGY          1e-ENERGY        2e-ENERGY     RMS[dD(SAO)]   TOL
   2  -1535.7811773200    -8766.5388494     3853.7502086    0.427D-02 0.931D-14
                            Exc = -222.661686963     Coul =  4076.41189558    
                              N = 259.99971007    
                            current damping = 0.650
 
          Norm of current diis error:  7.6123    
          max. resid. norm for Fia-block=  1.353D-01 for orbital     39a         
          max. resid. fock norm         =  1.696D-01 for orbital   2482a         

 ITERATION  ENERGY          1e-ENERGY        2e-ENERGY     RMS[dD(SAO)]   TOL
   3  -1536.6080457450    -8777.1560974     3863.5405882    0.203D-02 0.931D-14
                            Exc = -223.834034541     Coul =  4087.37462275    
                              N = 259.99973273    
                            current damping = 0.550
 
          Norm of current diis error:  3.6152    
          max. resid. norm for Fia-block=  5.719D-02 for orbital     39a         
          max. resid. fock norm         =  6.381D-02 for orbital     45a         

 ITERATION  ENERGY          1e-ENERGY        2e-ENERGY     RMS[dD(SAO)]   TOL
   4  -1536.8488520642    -8785.2228509     3871.3665354    0.974D-03 0.931D-14
                            Exc = -224.541102669     Coul =  4095.90763810    
                              N = 259.99974120    
                            current damping = 0.450
 
          Norm of current diis error:  1.3629    
          max. resid. norm for Fia-block=  2.224D-02 for orbital     56a         
          max. resid. fock norm         =  2.768D-02 for orbital     60a         

 ITERATION  ENERGY          1e-ENERGY        2e-ENERGY     RMS[dD(SAO)]   TOL
   5  -1536.8893520884    -8786.6999971     3872.8031816    0.440D-03 0.931D-14
                            Exc = -224.794456959     Coul =  4097.59763855    
                              N = 259.99974590    
                            current damping = 0.350
 
          Norm of current diis error: 0.59185    
          max. resid. norm for Fia-block=  8.961D-03 for orbital     84a         
          max. resid. fock norm         =  1.408D-02 for orbital   2845a         
          mo-orthogonalization: Cholesky decomposition

 ITERATION  ENERGY          1e-ENERGY        2e-ENERGY     RMS[dD(SAO)]   TOL
   6  -1536.8960496392    -8788.6506183     3874.7471052    0.183D-03 0.931D-14
                            Exc = -224.926639867     Coul =  4099.67374508    
                              N = 259.99974212    
                            current damping = 0.250
 
          Norm of current diis error: 0.27621    
          max. resid. norm for Fia-block=  3.546D-03 for orbital     79a         
          max. resid. fock norm         =  7.592D-03 for orbital   2846a         
          irrep a   : virtual orbitals shifted by    0.00072

 ITERATION  ENERGY          1e-ENERGY        2e-ENERGY     RMS[dD(SAO)]   TOL
   7  -1536.8977802151    -8788.3893908     3874.4841471    0.618D-04 0.931D-14
                            Exc = -224.933277010     Coul =  4099.41742412    
                              N = 259.99974268    
                            current damping = 0.300
 
          Norm of current diis error: 0.65512E-01
          max. resid. norm for Fia-block=  9.006D-04 for orbital     84a         
          max. resid. fock norm         =  1.572D-03 for orbital   2846a         

 ITERATION  ENERGY          1e-ENERGY        2e-ENERGY     RMS[dD(SAO)]   TOL
   8  -1536.8978568748    -8788.3826847     3874.4773643    0.161D-04 0.931D-14
                            Exc = -224.938017882     Coul =  4099.41538223    
                              N = 259.99974238    
                            current damping = 0.150
 
          Norm of current diis error: 0.33615E-01
          max. resid. norm for Fia-block=  3.650D-04 for orbital     85a         
          max. resid. fock norm         =  7.735D-04 for orbital   2858a         
          irrep a   : virtual orbitals shifted by    0.01125

 ITERATION  ENERGY          1e-ENERGY        2e-ENERGY     RMS[dD(SAO)]   TOL
   9  -1536.8978787881    -8788.4666558     3874.5613136    0.342D-05 0.931D-14
                            Exc = -224.940731882     Coul =  4099.50204544    
                              N = 259.99974230    
                            current damping = 0.200
 
          Norm of current diis error: 0.69124E-02
          max. resid. norm for Fia-block=  7.310D-05 for orbital    115a         
          max. resid. fock norm         =  1.840D-04 for orbital   2844a         
          irrep a   : virtual orbitals shifted by    0.00745

 ITERATION  ENERGY          1e-ENERGY        2e-ENERGY     RMS[dD(SAO)]   TOL
  10  -1536.8978797181    -8788.4597044     3874.5543613    0.755D-06 0.931D-14
                            Exc = -224.940693713     Coul =  4099.49505498    
                              N = 259.99974229    
                            current damping = 0.250
 
          Norm of current diis error: 0.16738E-02
          max. resid. norm for Fia-block=  2.583D-05 for orbital    130a         
          max. resid. fock norm         =  4.802D-05 for orbital     36a         
          irrep a   : virtual orbitals shifted by    0.00360
          mo-orthogonalization: Cholesky decomposition

 ITERATION  ENERGY          1e-ENERGY        2e-ENERGY     RMS[dD(SAO)]   TOL
  11  -1536.8978797110    -8788.4535025     3874.5481593    0.360D-06 0.931D-14
                            Exc = -224.940506707     Coul =  4099.48866602    
                              N = 259.99974230    
                            current damping = 0.300
 
          Norm of current diis error: 0.16762E-02
          max. resid. norm for Fia-block=  1.547D-05 for orbital    121a         
          max. resid. fock norm         =  3.779D-05 for orbital     37a         

 DENSITY CONVERGED !


 ITERATION  ENERGY          1e-ENERGY        2e-ENERGY     RMS[dD(SAO)]   TOL
  12  -1536.8978797640    -8788.4545246     3874.5491814    0.971D-07 0.931D-14
                            Exc = -224.940540311     Coul =  4099.48972170    
                              N = 259.99974230    
                            current damping = 0.350
 
          Norm of current diis error: 0.58427E-03
          max. resid. norm for Fia-block=  5.570D-06 for orbital    130a         
          max. resid. fock norm         =  8.844D-06 for orbital     36a         

 DENSITY CONVERGED !


 ITERATION  ENERGY          1e-ENERGY        2e-ENERGY     RMS[dD(SAO)]   TOL
  13  -1536.8978797694    -8788.4560927     3874.5507495    0.613D-07 0.931D-14
                            Exc = -224.940591195     Coul =  4099.49134065    
                              N = 259.99974229    
                            current damping = 0.200
 
          Norm of current diis error: 0.15760E-03
          max. resid. norm for Fia-block=  2.267D-06 for orbital    116a         
          max. resid. fock norm         =  4.816D-06 for orbital   2846a         
          irrep a   : virtual orbitals shifted by    0.00746

 DENSITY CONVERGED !


 ITERATION  ENERGY          1e-ENERGY        2e-ENERGY     RMS[dD(SAO)]   TOL
  14  -1536.8978797698    -8788.4559742     3874.5506310    0.172D-07 0.931D-14
                            Exc = -224.940583350     Coul =  4099.49121431    
                              N = 259.99974230    
                            current damping = 0.250
 
          Norm of current diis error: 0.11314E-03
          max. resid. norm for Fia-block=  1.043D-06 for orbital    129a         
          max. resid. fock norm         =  2.613D-06 for orbital   2846a         
          irrep a   : virtual orbitals shifted by    0.00361

 DENSITY CONVERGED !


 ITERATION  ENERGY          1e-ENERGY        2e-ENERGY     RMS[dD(SAO)]   TOL
  15  -1536.8978797699    -8788.4560507     3874.5507075    0.791D-08 0.931D-14
                            Exc = -224.940588222     Coul =  4099.49129576    
                              N = 259.99974229    
                            current damping = 0.300
 
          Norm of current diis error: 0.35138E-04
          max. resid. norm for Fia-block=  4.370D-07 for orbital    115a         
          max. resid. fock norm         =  1.129D-06 for orbital   2844a         
          mo-orthogonalization: Cholesky decomposition

 ENERGY & DENSITY CONVERGED !


 ITERATION  ENERGY          1e-ENERGY        2e-ENERGY     RMS[dD(SAO)]   TOL
  16  -1536.8970767242    -8788.4560985     3874.5515583    0.281D-08 0.931D-14
                            Exc = -224.939786193     Coul =  4099.49134454    
                              N = 259.99998377    
                            current damping = 0.150
 
          Norm of current diis error: 0.20900E-04
          max. resid. norm for Fia-block=  2.366D-07 for orbital    120a         
          max. resid. fock norm         =  6.012D-07 for orbital     39a         

 End of SCF iterations

   convergence criteria satisfied after   16 iterations


                  ------------------------------------------ 
                 |  total energy      =  -1536.89707672424  |
                  ------------------------------------------ 
                 :  kinetic energy    =   1529.76722661354  :
                 :  potential energy  =  -3066.66430333777  :
                 :  virial theorem    =      1.99536087991  :
                 :  wavefunction norm =      1.00000000000  :
                  .......................................... 


 <geterg> : there is no data group $energy 


 <skperg> : $end is missing 


 orbitals $scfmo  will be written to file mos

    irrep                126a        127a        128a        129a        130a   
 eigenvalues H         -0.24066    -0.22462    -0.22462    -0.18496    -0.18496
            eV          -6.5488     -6.1122     -6.1122     -5.0331     -5.0331
 occupation              2.0000      2.0000      2.0000      2.0000      2.0000 

    irrep                131a        132a        133a        134a        135a   
 eigenvalues H         -0.10785    -0.10785    -0.06465    -0.06465    -0.05162
            eV          -2.9347     -2.9347     -1.7593     -1.7593     -1.4047
 
 
 ! grave: sending quit signal to master process
 
 
 
 
 ==============================================================================
                           electrostatic moments
 ==============================================================================

 reference point for electrostatic moments:    0.00000   0.00000   0.00000

 
              nuc           elec       ->  total
 ------------------------------------------------------------------------------
                          charge      
 ------------------------------------------------------------------------------
         260.000000    -260.000000       0.000000
 
 ------------------------------------------------------------------------------
                       dipole moment  
 ------------------------------------------------------------------------------
   x       0.000000      -0.000099      -0.000099
   y       0.000000       0.000000       0.000000
   z       0.000000      -0.000000      -0.000000
 
   | dipole moment | =     0.0001 a.u. =     0.0003 debye 
 
 ------------------------------------------------------------------------------
                     quadrupole moment
 ------------------------------------------------------------------------------
  xx   13868.680291  -14049.841506    -181.161215
  yy   13868.680291  -14049.844371    -181.164080
  zz     962.105324   -1110.724534    -148.619210
  xy       0.000000      -0.000000      -0.000000
  xz       0.000000       0.000000       0.000000
  yz       0.000000       0.000000       0.000000
 
     1/3  trace=    -170.314835
     anisotropy=      32.543438
 
 ==============================================================================
 

    ridft profiling
  --------------------------------------------------------------------
             module   cpu total (s)       %  wall total (s)       %

               RIDFT          7572.7  100.00          7668.7  100.00
         Ridft_b_scf          3343.2   44.15          3423.7   44.65
        b_scf_prelim             0.0    0.00             0.0    0.00
        b_scf_molinp             0.0    0.00             0.0    0.00
         b_scf_init0             0.0    0.00             0.0    0.00
        b_scf_auxbas             0.0    0.00             0.0    0.00
      b_scf_symmetry             0.0    0.00             0.0    0.00
         b_scf_cosmo             0.0    0.00             0.0    0.00
        b_scf_params          3156.2   41.68          3236.6   42.21
          b_scf_ri-j           150.0    1.98           150.1    1.96
    b_scf_ri-j_auxpq           150.0    1.98           150.0    1.96
     ri-j_auxpq_chol             1.6    0.02             1.6    0.02
         b_scf_1elec             3.7    0.05             3.7    0.05
       b_scf_moinput            33.3    0.44            33.3    0.43
     moinput_orthmos            32.7    0.43            32.7    0.43
    b_scf_dft-dstmax             0.0    0.00             0.0    0.00
           Ridft_scf          4228.2   55.83          4243.5   55.34
          Scf_b_loop             0.0    0.00             0.0    0.00
                noga             0.0    0.00             0.0    0.00
            Scf_loop          4222.3   55.76          4237.0   55.25
     scf_loop_mkdmat            13.9    0.18            13.9    0.18
       scf_loop_ri-j           592.7    7.83           593.1    7.73
      parlp1.bc.dens             2.6    0.03             2.6    0.03
        parlp1.gs.gp            10.9    0.14            10.9    0.14
        parlp2.bc.gq             0.0    0.00             0.0    0.00
        scf_loop_dft          3052.6   40.31          3056.7   39.86
      pardft.bc.dens             0.0    0.00             0.0    0.00
        dft_grid_con             3.7    0.05             3.7    0.05
          dft_xcmrhf          3042.9   40.18          3047.0   39.73
          dft_getval            78.2    1.03            78.3    1.02
          funct2 dst             1.4    0.02             1.5    0.02
      funct2 f2loop1            20.8    0.27            20.8    0.27
      funct2 f2loop2            27.0    0.36            27.1    0.35
          funct2 s+c            24.6    0.33            24.7    0.32
        funct2 cmf_2            22.5    0.30            22.6    0.29
          dft_mkdens          1379.4   18.22          1381.5   18.01
        dft_mgga-fun             2.2    0.03             2.1    0.03
          dft_mkfock          1577.6   20.83          1579.5   20.60
     pardft.red.fock           241.6    3.19           242.0    3.16
     scf_loop_energy             0.2    0.00             0.2    0.00
     scf_loop_mkfock             0.3    0.00             0.3    0.00
       scf_loop_diis           134.4    1.78           134.6    1.76
       scf_loop_diag           294.0    3.88           294.5    3.84
         diag_tritrn           118.9    1.57           119.1    1.55
          diag_rdiag           174.4    2.30           174.7    2.28
     scf_loop_modump            79.6    1.05            89.1    1.16
      scf_loop_ortho            51.3    0.68            51.4    0.67
          Scf_a_loop             5.8    0.08             6.5    0.08
         Ridft_a_scf             1.4    0.02             1.4    0.02
         a_scf_fanal             1.3    0.02             1.3    0.02
 


    ------------------------------------------------------------------------
         total  cpu-time :  2 hours  6 minutes and 22 seconds
         total wall-time :  2 hours  7 minutes and 58 seconds
    ------------------------------------------------------------------------


   ****  ridft : all done  ****


    2017-11-01 19:22:48.720 

