           Doing BLAS/Lapack in the master proc. with  8 CPUs.
           SMPCPUS    set: Shared-memory Parallelization with   8 CPUs.

           SMP Parallelization Reference:
           C. van Wullen, J. Comput. Chem. 32 (2011) 1195--1201
 operating system is UNIX !

 ridft (c-18-313.gp.local) : TURBOMOLE V7.2 ( 21454 ) 4 Oct 2017 at 12:48:15
 Copyright (C) 2017 TURBOMOLE GmbH, Karlsruhe


    2018-04-28 21:00:07.555 



                                  r i d f t

                        DFT program with RI approximation 
                                for coulomb part 




                                                 
                                 References:     
                                                 
          TURBOMOLE:                             
              R. Ahlrichs, M. Baer, M. Haeser, H. Horn, and
              C. Koelmel
              Electronic structure calculations on workstation
              computers: the program system TURBOMOLE
              Chem. Phys. Lett. 162: 165 (1989)
          Density Functional:                              
              O. Treutler and R. Ahlrichs                      
              Efficient Molecular Numerical Integration Schemes
              J. Chem. Phys. 102: 346 (1995)                   
          Parallel Version:                                
              Performance of parallel TURBOMOLE for Density    
              Functional Calculations                          
              M. v. Arnim and R. Ahlrichs                      
              J. Comp. Chem. 19: 1746 (1998)                   
          RI-J Method:                                     
              Auxiliary Basis Sets to approximate Coulomb      
              Potentials                                       
              Chem. Phys. Lett. 240: 283 (1995)                
              K. Eichkorn, O. Treutler, H. Oehm, M. Haeser     
              and R. Ahlrichs                                  
              Chem. Phys. Lett. 242: 652 (1995)                
                                                           
              Auxiliary Basis Sets for Main Row Atoms and their
              Use to approximate Coulomb Potentials            
              K. Eichkorn, F. Weigend, O. Treutler and         
              R. Ahlrichs                                      
              Theo. Chem. Acc. 97: 119 (1997)                   
                                                           
              Accurate Coulomb-fitting basis sets for H to Rn 
              F. Weigend                                        
              Phys. Chem. Chem. Phys. 8: 1057 (2006)            
                                                           
          Multipole accelerated RI-J (MARI-J):             
              Fast evaluation of the Coulomb potential for     
              electron densities using multipole accelerated   
              resolution of identity approximation             
              M. Sierka, A. Hogekamp and R. Ahlrichs           
              J. Chem. Phys. 118: 9136 (2003)                  
          RI-JK Method:                                     
              A fully direct RI-HF algorithm: Implementation,
              optimised auxiliary basis sets, demonstration of
              accuracy and efficiency                         
              F. Weigend                                      
              Phys. Chem. Chem. Phys. 4: 4285 (2002)           
          Two-component HF and DFT with spin-orbit coupling:  
              Self-consistent treatment of spin-orbit         
              interactions with efficient Hartree-Fock and    
              density functional methods                      
              M. K. Armbruster, F. Weigend, C. van Wüllen and 
              W. Klopper                                      
              Phys. Chem. Chem. Phys. 10: 1748 (2008)         
          Relativistic all-electron 2c calculations           
              An efficient implementation of two-component    
              relativistic exact-decoupling methods for large 
              molecules                                       
              D. Peng, N. Middendorf, F. Weigend, M. Reiher   
              J. Chem. Phys. 138, 184105 (2013)               
                                         




              +--------------------------------------------------+
              |      general information about current run       |
              +--------------------------------------------------+

 

 DENSITY CONVERGENCE CHECK SWITCHED ON !
 SCF CONVERGENCE IF RMS(delta[D]) <     0.1000000000E-06

 TPSS meta-GGA functional
 exchange:    LDA + TPSS
 correlation: LDA (PW) + TPSS
 A DFT calculation using the RI-J approximation will be carried out.
 Allocatable memory for RI due to $ricore (MB):                  5000


              +--------------------------------------------------+
              | Atomic coordinate, charge and isotop information |
              +--------------------------------------------------+

                    atomic coordinates            atom    charge  isotop
         -1.07659254    1.53894091    0.19104705    n      7.000     0
          0.24732308    1.06091238   -1.11043058    h      1.000     0
         -2.76136637    0.99572467   -0.52993583    h      1.000     0
         -0.57733848    0.12417447    2.51105246    c      6.000     0
         -1.99772300    0.59388455    3.92299473    h      1.000     0
         -0.54428559   -1.93185282    2.29572672    h      1.000     0
          1.24808422    0.69638133    3.26968398    h      1.000     0
          4.26490694    5.08355208   -0.28218770    c      0.000     0
          4.50040171    5.86056349   -2.17010788    h      0.000     0
          5.22218810    6.29485245    1.07422847    h      0.000     0
          2.24968077    5.03341854    0.13056898    h      0.000     0
          5.23243101    2.40430275   -0.27785261    c      0.000     0
          4.36319500    0.76829801   -1.67469019    o      0.000     0
          7.09661366    1.88834639    1.40840805    n      0.000     0
          7.85205251    3.31496258    2.40118088    h      0.000     0
          8.20861419   -0.60531835    1.55486101    c      0.000     0
          6.71917625   -2.00622930    1.37907756    h      0.000     0
          9.57159765   -0.93034250    0.04583080    h      0.000     0
          9.14337387   -0.82427749    3.36888382    h      0.000     0
 
       center of nuclear mass  :    3.85629016    1.56268761    0.49838698
       center of nuclear charge:   -0.82267480    0.71848241    1.34731573

              +--------------------------------------------------+
              |               basis set information              |
              +--------------------------------------------------+

              we will work with the 1s 3p 5d 7f 9g ... basis set
              ...i.e. with spherical basis functions...

   type   atoms  prim   cont   basis
   ---------------------------------------------------------------------------
    n        2     50     30   cc-pVTZ   [4s3p2d1f|18s5p2d1f]
    h       12     16     14   cc-pVTZ   [3s2p1d|5s2p1d]
    c        4     50     30   cc-pVTZ   [4s3p2d1f|18s5p2d1f]
    o        1     50     30   cc-pVTZ   [4s3p2d1f|18s5p2d1f]
   ---------------------------------------------------------------------------
   total:   19    542    378
   ---------------------------------------------------------------------------

   total number of primitive shells          :   86
   total number of contracted shells         :  142
   total number of cartesian basis functions :  425
   total number of SCF-basis functions       :  378


 integral neglect threshold       :  0.78E-13
 integral storage threshold THIZE :  0.10E-04
 integral storage threshold THIME :         5

 RI-J AUXILIARY BASIS SET information:

              we will work with the 1s 3p 5d 7f 9g ... basis set
              ...i.e. with spherical basis functions...

   type   atoms  prim   cont   basis
   ---------------------------------------------------------------------------
    n        2     70     49   cc-pVTZ   [6s4p3d1f1g|12s5p4d2f1g]
    h       12     16     11   cc-pVTZ   [3s1p1d|5s2p1d]
    c        4     70     49   cc-pVTZ   [6s4p3d1f1g|12s5p4d2f1g]
    o        1     70     49   cc-pVTZ   [6s4p3d1f1g|12s5p4d2f1g]
   ---------------------------------------------------------------------------
   total:   19    682    475
   ---------------------------------------------------------------------------

   total number of primitive shells          :   80
   total number of contracted shells         :  165
   total number of cartesian basis functions :  571
   total number of SCF-basis functions       :  475


 symmetry group of the molecule :   c1 

 the group has the following generators :
   c1(z)

    1 symmetry operations found

 there are 1 real representations :   a   

 maximum number of shells which are related by symmetry :  1


    mo occupation :
   irrep   mo's   occupied
    a      378        9
 
 number of basis functions   :                    378
 number of occupied orbitals :                      9
 
  
           ------------------
           density functional
           ------------------
 Dummy atoms with grid-point found.
 DFT quadrature threshold dgrenze tightened by factor 1/10.

 TPSS meta-GGA functional
 exchange:    LDA + TPSS
 correlation: LDA (PW) + TPSS
 Dummy atoms with grid-point found.
 DFT quadrature threshold dgrenze tightened by factor 1/10.

 Dummy atoms with grid-point found.
 DFT quadrature threshold dgrenze tightened by factor 1/10.


 iterations will be done with small grid
  
 spherical integration : Lebedev's spherical grid
 spherical gridsize    :                     5
    i.e. gridpoints    :                   590
 value for diffuse not defined
 radial integration    : Chebyshev 2nd kind (scaling 3)
 radial gridsize       :                     8
 integration cells     :                    19
 partition function    : becke
 partition sharpness   :                     3
  
 found dummy atom(s) with basis: included in dft

 biggest AO integral is expected to be     4.866064444
  
           ------------------------
               RI-J - INFORMATION
           ------------------------
 Contributions to RI integral batches: 
  neglected integral batches:                  1460
  direct contribution:                            0
  memory contribution:                  8693
 Memory core needed for (P|Q) and Cholesky      2 MByte
 Memory core minimum needed except of (P|Q)     1 MByte
 Total minimum memory core needed (sum)         3 MByte
  
 ****************************************
 Memory allocated for RI-J   329 MByte
 ****************************************
                                            

          ------------------------
          nuclear repulsion energy  :   42.0932860640    
          ------------------------


         -----------------
         -S,T+V- integrals
         -----------------

 1e-integrals will be neglected if expon. factor < 0.786344E-14
 Difference densities >>NOT<< switched on in parallel ridft!

 DIIS switched on: error vector is FDS-SDF
 Max. Iterations for DIIS is     :   4
 DIIS matrix (see manual) 
    Scaling factor of diagonals  :  1.200
    threshold for scaling factor :  0.000

 scf convergence criterion : increment of total energy < .1000000D-08
                  and increment of one-electron energy < .1000000D-05

  MOs are in ASCII format !


 automatic virtual orbital shift switched on 
      shift if e(lumo)-e(homo) < 0.10000000    


 reading orbital data $scfmo  from file mos
 orbital characterization : expanded
 mo provided and orthogonalized by Cholesky decomposition

 DSCF restart information will be dumped onto file mos


 Starting SCF iterations

          Overall gridpoints after grid construction =        106468

 ITERATION  ENERGY          1e-ENERGY        2e-ENERGY     RMS[dD(SAO)]   TOL
   1  -95.525927575778    -210.16387978     72.544666139    0.000D+00 0.784D-13
                            Exc = -13.9661292110     Coul =  86.5107953501    
                              N = 18.000158438    
                            current damping = 0.700
 
          max. resid. norm for Fia-block=  2.544D-01 for orbital      1a         
          max. resid. fock norm         =  1.595D+01 for orbital    374a         

 ITERATION  ENERGY          1e-ENERGY        2e-ENERGY     RMS[dD(SAO)]   TOL
   2  -95.821004122519    -211.10482109     73.190530903    0.127D-02 0.784D-13
                            Exc = -14.0850059973     Coul =  87.2755368998    
                              N = 18.000134776    
                            current damping = 0.650
 
          Norm of current diis error:  1.2446    
          max. resid. norm for Fia-block=  1.216D-01 for orbital      1a         
          max. resid. fock norm         =  1.590D-01 for orbital    372a         

 ITERATION  ENERGY          1e-ENERGY        2e-ENERGY     RMS[dD(SAO)]   TOL
   3  -95.884971261240    -211.53282047     73.554563140    0.891D-03 0.784D-13
                            Exc = -14.1773958862     Coul =  87.7319590265    
                              N = 18.000116333    
                            current damping = 0.500
 
          Norm of current diis error: 0.59181    
          max. resid. norm for Fia-block=  4.944D-02 for orbital      1a         
          max. resid. fock norm         =  5.165D-02 for orbital      1a         

 ITERATION  ENERGY          1e-ENERGY        2e-ENERGY     RMS[dD(SAO)]   TOL
   4  -95.905098540006    -211.61467268     73.616288071    0.733D-03 0.784D-13
                            Exc = -14.2116992990     Coul =  87.8279873704    
                              N = 18.000105557    
                            current damping = 0.350
 
          Norm of current diis error: 0.21468    
          max. resid. norm for Fia-block=  1.929D-02 for orbital      4a         
          max. resid. fock norm         =  2.319D-02 for orbital      4a         

 ITERATION  ENERGY          1e-ENERGY        2e-ENERGY     RMS[dD(SAO)]   TOL
   5  -95.908238732381    -211.81367960     73.812154802    0.409D-03 0.784D-13
                            Exc = -14.2468114491     Coul =  88.0589662511    
                              N = 18.000099747    
                            current damping = 0.200
 
          Norm of current diis error: 0.78397E-01
          max. resid. norm for Fia-block=  8.953D-03 for orbital      9a         
          max. resid. fock norm         =  9.031D-03 for orbital      9a         
          mo-orthogonalization: Cholesky decomposition

 ITERATION  ENERGY          1e-ENERGY        2e-ENERGY     RMS[dD(SAO)]   TOL
   6  -95.908598338894    -211.69026244     73.688378033    0.243D-03 0.784D-13
                            Exc = -14.2367613380     Coul =  87.9251393709    
                              N = 18.000098846    
                            current damping = 0.250
 
          Norm of current diis error: 0.50648E-01
          max. resid. norm for Fia-block=  2.263D-03 for orbital      5a         
          max. resid. fock norm         =  2.993D-03 for orbital    169a         

 ITERATION  ENERGY          1e-ENERGY        2e-ENERGY     RMS[dD(SAO)]   TOL
   7  -95.908687894068    -211.75826308     73.756289121    0.282D-04 0.784D-13
                            Exc = -14.2447742474     Coul =  88.0010633688    
                              N = 18.000098240    
                            current damping = 0.300
 
          Norm of current diis error: 0.46811E-02
          max. resid. norm for Fia-block=  3.089D-04 for orbital      6a         
          max. resid. fock norm         =  5.167D-04 for orbital    242a         

 ITERATION  ENERGY          1e-ENERGY        2e-ENERGY     RMS[dD(SAO)]   TOL
   8  -95.908688663003    -211.75728978     73.755315054    0.687D-05 0.784D-13
                            Exc = -14.2448987530     Coul =  88.0002138071    
                              N = 18.000098186    
                            current damping = 0.350
 
          Norm of current diis error: 0.21954E-02
          max. resid. norm for Fia-block=  1.200D-04 for orbital      7a         
          max. resid. fock norm         =  1.339D-04 for orbital      6a         

 ITERATION  ENERGY          1e-ENERGY        2e-ENERGY     RMS[dD(SAO)]   TOL
   9  -95.908688855677    -211.76055815     73.758583231    0.191D-05 0.784D-13
                            Exc = -14.2452322361     Coul =  88.0038154667    
                              N = 18.000098155    
                            current damping = 0.400
 
          Norm of current diis error: 0.29010E-03
          max. resid. norm for Fia-block=  2.818D-05 for orbital      9a         
          max. resid. fock norm         =  4.448D-05 for orbital    242a         

 ITERATION  ENERGY          1e-ENERGY        2e-ENERGY     RMS[dD(SAO)]   TOL
  10  -95.908688860166    -211.76020529     73.758230363    0.618D-06 0.784D-13
                            Exc = -14.2452030318     Coul =  88.0034333953    
                              N = 18.000098153    
                            current damping = 0.450
 
          Norm of current diis error: 0.92852E-04
          max. resid. norm for Fia-block=  7.264D-06 for orbital      5a         
          max. resid. fock norm         =  1.418D-05 for orbital    242a         
          mo-orthogonalization: Cholesky decomposition

 ITERATION  ENERGY          1e-ENERGY        2e-ENERGY     RMS[dD(SAO)]   TOL
  11  -95.908688860583    -211.76024457     73.758269647    0.143D-06 0.784D-13
                            Exc = -14.2452091733     Coul =  88.0034788207    
                              N = 18.000098152    
                            current damping = 0.500
 
          Norm of current diis error: 0.28586E-04
          max. resid. norm for Fia-block=  2.887D-06 for orbital      5a         
          max. resid. fock norm         =  4.840D-06 for orbital    242a         

 DENSITY CONVERGED !


 ITERATION  ENERGY          1e-ENERGY        2e-ENERGY     RMS[dD(SAO)]   TOL
  12  -95.908688860626    -211.76027023     73.758295307    0.442D-07 0.784D-13
                            Exc = -14.2452127971     Coul =  88.0035081045    
                              N = 18.000098151    
                            current damping = 0.350
 
          Norm of current diis error: 0.74689E-05
          max. resid. norm for Fia-block=  1.072D-06 for orbital      9a         
          max. resid. fock norm         =  1.548D-06 for orbital    242a         

 ENERGY & DENSITY CONVERGED !

          Overall gridpoints after grid construction =        285385

 ITERATION  ENERGY          1e-ENERGY        2e-ENERGY     RMS[dD(SAO)]   TOL
  13  -95.908638744519    -211.76026046     73.758335653    0.239D-07 0.784D-13
                            Exc = -14.2451617352     Coul =  88.0034973884    
                              N = 17.999995995    
                            current damping = 0.400
 
          Norm of current diis error: 0.51112E-05
          max. resid. norm for Fia-block=  2.869D-07 for orbital      5a         
          max. resid. fock norm         =  5.228D-07 for orbital    242a         

 End of SCF iterations

   convergence criteria satisfied after    13 iterations


                  ------------------------------------------ 
                 |  total energy      =    -95.90863874452  |
                  ------------------------------------------ 
                 :  kinetic energy    =     95.38638417072  :
                 :  potential energy  =   -191.29502291524  :
                 :  virial theorem    =      1.99455466598  :
                 :  wavefunction norm =      1.00000000000  :
                  .......................................... 


 <geterg> : there is no data group $energy 


 <skperg> : $end is missing 


 orbitals $scfmo  will be written to file mos

    irrep                  5a          6a          7a          8a          9a   
 eigenvalues H         -0.44584    -0.39685    -0.36019    -0.32957    -0.20079
            eV         -12.1321    -10.7989     -9.8013     -8.9680     -5.4637
 occupation              2.0000      2.0000      2.0000      2.0000      2.0000 

    irrep                 10a         11a         12a         13a         14a   
 eigenvalues H          0.01173     0.05245     0.06132     0.08515     0.09544
            eV           0.3191      1.4272      1.6685      2.3172      2.5971
 
 
 
 
 ==============================================================================
                           electrostatic moments
 ==============================================================================

 reference point for electrostatic moments:    0.00000   0.00000   0.00000

 
              nuc           elec       ->  total
 ------------------------------------------------------------------------------
                          charge      
 ------------------------------------------------------------------------------
          18.000000     -18.000000      -0.000000
 
 ------------------------------------------------------------------------------
                       dipole moment  
 ------------------------------------------------------------------------------
   x     -14.808146      14.775026      -0.033120
   y      12.932683     -13.450525      -0.517842
   z      24.251683     -24.384504      -0.132821
 
   | dipole moment | =     0.5356 a.u. =     1.3614 debye 
 
 ------------------------------------------------------------------------------
                     quadrupole moment
 ------------------------------------------------------------------------------
  xx      23.644450     -33.020606      -9.376156
  yy      23.357594     -36.515555     -13.157962
  zz      70.952770     -80.761338      -9.808568
  xy     -13.780797      14.312381       0.531583
  xz     -13.955157      14.026231       0.071074
  yz       2.394930      -2.602817      -0.207888
 
     1/3  trace=     -10.780895
     anisotropy=       3.721060
 
 ==============================================================================
 


    ------------------------------------------------------------------------
         total  cpu-time :  4 minutes and  0 seconds
         total wall-time :  30.59 seconds
    ------------------------------------------------------------------------

   ****  ridft : all done  ****


    2018-04-28 21:00:38.134 

