
   OpenMP run-time library returned nthreads = 24

 ricc2 (c-19-291.gp.local) : TURBOMOLE V7.2 ( 21471 ) 11 Oct 2017 at 17:04:51
 Copyright (C) 2017 TURBOMOLE GmbH, Karlsruhe


    2018-04-05 14:03:26.715 



                              R I C C 2 - PROGRAM

                          the quantum chemistry groups
                             at the universities in
                           Karlsruhe, Bochum & Mainz
                                   Germany



   *-----------------------------------------------------------------------*
   |                     program will use 24 thread(s)                     |
   *-----------------------------------------------------------------------*


              +--------------------------------------------------+
              | Atomic coordinate, charge and isotop information |
              +--------------------------------------------------+

                    atomic coordinates            atom    charge  isotop
          1.29102896    2.23612775    5.35940406    c      6.000     0
          2.68444732    0.00000000    5.34775669    c      6.000     0
          1.29102896   -2.23612775    5.35940406    c      6.000     0
         -1.34222366   -2.32479958    5.34775669    c      6.000     0
         -2.58205792    0.00000000    5.35940406    c      6.000     0
         -1.34222366    2.32479958    5.34775669    c      6.000     0
         -2.74209098    4.74944089    5.17369628    c      6.000     0
         -3.47165961    6.01309083    7.36565771    c      6.000     0
         -4.78742225    8.29205857    7.27396970    c      6.000     0
         -5.38971831    9.33526596    4.93546263    c      6.000     0
         -4.67190964    8.09198487    2.72597715    c      6.000     0
         -3.35880377    5.81761878    2.81855316    c      6.000     0
         -2.74209098   -4.74944089    5.17369628    c      6.000     0
         -3.35880377   -5.81761878    2.81855316    c      6.000     0
         -4.67190964   -8.09198487    2.72597715    c      6.000     0
         -5.38971831   -9.33526596    4.93546263    c      6.000     0
         -4.78742225   -8.29205857    7.27396970    c      6.000     0
         -3.47165961   -6.01309083    7.36565771    c      6.000     0
          5.48418196    0.00000000    5.17369628    c      6.000     0
          6.71760754    0.00000000    2.81855316    c      6.000     0
          9.34381929    0.00000000    2.72597715    c      6.000     0
         10.77943663    0.00000000    4.93546263    c      6.000     0
          9.57484449    0.00000000    7.27396970    c      6.000     0
          6.94331922    0.00000000    7.36565771    c      6.000     0
          2.56458096    4.44198451    5.30703898    f      9.000     0
         -5.12916191    0.00000000    5.30703898    f      9.000     0
          2.56458096   -4.44198451    5.30703898    f      9.000     0
         -2.90994879    5.04017915    9.65013893    f      9.000     0
         -5.47160393    9.47709601    9.40663768    f      9.000     0
         -6.65606662   11.52864556    4.82298142    f      9.000     0
         -5.29334333    9.16833958    0.50315811    f      9.000     0
         -5.29334333   -9.16833958    0.50315811    f      9.000     0
         -6.65606662  -11.52864556    4.82298142    f      9.000     0
         -5.47160393   -9.47709601    9.40663768    f      9.000     0
         -2.90994879   -5.04017915    9.65013893    f      9.000     0
         10.58668665    0.00000000    0.50315811    f      9.000     0
         13.31213324    0.00000000    4.82298142    f      9.000     0
         10.94320787    0.00000000    9.40663768    f      9.000     0
          5.81989758    0.00000000    9.65013893    f      9.000     0
         -2.31430977    4.00850211   -0.59311698    i     53.000     0
         -2.31430977   -4.00850211   -0.59311698    i     53.000     0
          4.62861954    0.00000000   -0.59311698    i     53.000     0
          3.99736087   -2.26207693   -6.71003915    c      0.000     0
          5.92734477   -2.13882400   -5.97866723    h      0.000     0
          4.10220135   -2.23748546   -8.79875309    h      0.000     0
          2.68582355   -4.65198285   -5.81886616    c      0.000     0
          3.64577576   -6.31466884   -6.59083899    h      0.000     0
          2.75180702   -4.76626957   -3.75428211    h      0.000     0
         -0.03966435   -4.59285453   -6.71003915    c      0.000     0
         -0.11338143   -4.67135331   -8.79875309    h      0.000     0
         -1.11139647   -6.20264315   -5.97866723    h      0.000     0
         -3.95769652   -2.33077759   -6.71003915    c      0.000     0
         -4.81594831   -4.06381915   -5.97866723    h      0.000     0
         -3.98881992   -2.43386785   -8.79875309    h      0.000     0
         -5.37164710    0.00000000   -5.81886616    c      0.000     0
         -5.50361403    0.00000000   -3.75428211    h      0.000     0
         -7.29155151    0.00000000   -6.59083899    h      0.000     0
         -3.95769652    2.33077759   -6.71003915    c      0.000     0
         -3.98881992    2.43386785   -8.79875309    h      0.000     0
         -4.81594831    4.06381915   -5.97866723    h      0.000     0
         -0.03966435    4.59285453   -6.71003915    c      0.000     0
         -1.11139647    6.20264315   -5.97866723    h      0.000     0
         -0.11338143    4.67135331   -8.79875309    h      0.000     0
          2.68582355    4.65198285   -5.81886616    c      0.000     0
          3.64577576    6.31466884   -6.59083899    h      0.000     0
          2.75180702    4.76626957   -3.75428211    h      0.000     0
          3.99736087    2.26207693   -6.71003915    c      0.000     0
          4.10220135    2.23748546   -8.79875309    h      0.000     0
          5.92734477    2.13882400   -5.97866723    h      0.000     0
          0.00000000    0.00000000   -6.67566966    c      0.000     0
          0.00000000    0.00000000   -8.80405438    h      0.000     0
          2.63800737    0.00000000   -5.79850129    n      0.000     0
         -1.31900368   -2.28458139   -5.79850129    n      0.000     0
         -1.31900368    2.28458139   -5.79850129    n      0.000     0
 
       center of nuclear mass  :   -0.00000000   -0.00000000    1.58306549
       center of nuclear charge:   -0.00000000    0.00000000    3.29984425

              +--------------------------------------------------+
              |               basis set information              |
              +--------------------------------------------------+

              we will work with the 1s 3p 5d 7f 9g ... basis set
              ...i.e. with spherical basis functions...

   type   atoms  prim   cont   basis
   ---------------------------------------------------------------------------
    c       34     77     55   cc-pVQZ   [5s4p3d2f1g|21s6p3d2f1g]
    f       15     77     55   cc-pVQZ   [5s4p3d2f1g|21s6p3d2f1g]
    i        3    161     67   cc-pVQZ-PP   [6s6p4d2f1g|24s18p12d2f1g]
    h       19     32     30   cc-pVQZ   [4s3p2d1f|6s3p2d1f]
    n        3     77     55   cc-pVQZ   [5s4p3d2f1g|21s6p3d2f1g]
   ---------------------------------------------------------------------------
   total:   74   5095   3631
   ---------------------------------------------------------------------------

   total number of primitive shells          :  168
   total number of contracted shells         : 1027
   total number of cartesian basis functions : 4554
   total number of SCF-basis functions       : 3631


 symmetry group of the molecule :   c1 

 the group has the following generators :
   c1(z)

    1 symmetry operations found

 there are 1 real representations :   a   


   =========================================================================


     restricted closed shell calculation for the wavefunction models:
               MP2        - Second Order Moeller Plesset PT


     global parameters for ricc2 program:

        hard restart (reuse of interm.) :  disabled
        soft restart (reuse of vectors) :  disabled
        threshold for vector function   :    0.100000E-05
        convergence threshold energy    :    0.100000E-06
        linear dependence threshold     :    0.100000E-13
        global print level              :      1
        maximum number of iterations    :    30
        maximum number DIIS vectors     :    10
        max. dim. of reduced space      :   100
        core memory limit (MB)          : *****


     MP2 energy only: Energy will be calculated directly from T2 amplitudes!

     Scratch Directory : 


   =========================================================================

    der. integral neglect threshold  :  0.10E-07
    integral neglect threshold       :  0.73E-12
    integral storage threshold THIZE :  0.10E-04
    integral storage threshold THIME :         5

 number of unique ecp types :                     1

                  +------------------------------------------+
                  |     Auxiliary basis set information      |
                  +------------------------------------------+

              we will work with the 1s 3p 5d 7f 9g ... basis set
              ...i.e. with spherical basis functions...

   type   atoms  prim   cont   basis
   ---------------------------------------------------------------------------
    c       34    132    132   cc-pVQZ   [8s7p6d5f3g1h|8s7p6d5f3g1h]
    f       15    132    132   cc-pVQZ   [8s7p6d5f3g1h|8s7p6d5f3g1h]
    i        3    229    229   cc-pVQZ-PP   [11s11p9d7f5g3h1i|11s11p9d7f5g3h1i]
    h       19     55     55   cc-pVQZ   [5s4p3d2f1g|5s4p3d2f1g]
    n        3    132    132   cc-pVQZ   [8s7p6d5f3g1h|8s7p6d5f3g1h]
   ---------------------------------------------------------------------------
   total:   74   8596   8596
   ---------------------------------------------------------------------------

   total number of primitive shells          :  152
   total number of contracted shells         : 1986
   total number of cartesian basis functions :11744
   total number of SCF-basis functions       : 8596


 maximum number of shells which are related by symmetry :  1


 The symmetry information takes   1 MB

*---------------------------------------------------------------------*
|               simplified C1 algorithm will be applied               |
*---------------------------------------------------------------------*
  MOs are in ASCII format !


 reading orbital data $scfmo  from file mos
 orbital characterization : scfconv=7



              +--------------------------------------------+
              | list of orbitals that will be kept frozen: |
              +--------------------------------------------+
              |   irrep   index      energy     occ/vir    |
              +--------------------------------------------+
              |   a         1      -26.3592     occupied   |
              |   a         2      -26.3592     occupied   |
              |   a         3      -26.3592     occupied   |
              |   a         4      -26.3562     occupied   |
              |   a         5      -26.3562     occupied   |
              |   a         6      -26.3562     occupied   |
              |   a         7      -26.3558     occupied   |
              |   a         8      -26.3558     occupied   |
              |   a         9      -26.3558     occupied   |
              |   a        10      -26.3526     occupied   |
              |   a        11      -26.3526     occupied   |
              |   a        12      -26.3526     occupied   |
              |   a        13      -26.3506     occupied   |
              |   a        14      -26.3506     occupied   |
              |   a        15      -26.3506     occupied   |
              |   a        16      -11.3993     occupied   |
              |   a        17      -11.3993     occupied   |
              |   a        18      -11.3993     occupied   |
              |   a        19      -11.3912     occupied   |
              |   a        20      -11.3912     occupied   |
              |   a        21      -11.3912     occupied   |
              |   a        22      -11.3888     occupied   |
              |   a        23      -11.3888     occupied   |
              |   a        24      -11.3888     occupied   |
              |   a        25      -11.3875     occupied   |
              |   a        26      -11.3875     occupied   |
              |   a        27      -11.3875     occupied   |
              |   a        28      -11.3870     occupied   |
              |   a        29      -11.3870     occupied   |
              |   a        30      -11.3870     occupied   |
              |   a        31      -11.3435     occupied   |
              |   a        32      -11.3435     occupied   |
              |   a        33      -11.3435     occupied   |
              |   a        34      -11.3225     occupied   |
              |   a        35      -11.3225     occupied   |
              |   a        36      -11.3225     occupied   |
              |   a        37      -11.3091     occupied   |
              |   a        38      -11.3091     occupied   |
              |   a        39      -11.3090     occupied   |
              |   a        40       -7.7570     occupied   |
              |   a        41       -7.7570     occupied   |
              |   a        42       -7.7570     occupied   |
              |   a        43       -5.5895     occupied   |
              |   a        44       -5.5895     occupied   |
              |   a        45       -5.5895     occupied   |
              |   a        46       -5.5788     occupied   |
              |   a        47       -5.5788     occupied   |
              |   a        48       -5.5788     occupied   |
              |   a        49       -5.5785     occupied   |
              |   a        50       -5.5785     occupied   |
              |   a        51       -5.5785     occupied   |
              +--------------------------------------------+



   Molecular Orbital Statistic:
   ============================

   -----------------------------
   orbitals in total:
   -----------------------------
    frozen occupied :     51
    active occupied :    126
    active virtual  :   3454
    frozen virtual  :      0
    all together    :   3631
   -----------------------------


     time in riccmos       cpu:  0 min 39 s  wall:  1 min 14 s  ratio:  0.5

     total memory allocated for calculation of (Q|P)**(-1/2) : 846 MiB


     calculation of (P|Q) ...
     time in lp2sym        cpu: 24.76 sec    wall:  1.10 sec    ratio: 22.5


     calculation of the Cholesky decomposition of (P|Q)**(-1) ...
     time in invmetri      cpu:  1 min 12 s  wall:  0 min  6 s  ratio: 11.6

   threshold for RMS(d[D]) in SCF was     :  0.10E-06
   integral neglect threshold             :  0.73E-12
   derivative integral neglect threshold  :  0.10E-07


   =========================================================================

     Energy of reference wave function is -3285.2270124450001
     Maximum orbital residual is           0.6090582895314E-05


     Number of symmetry-nonredundant auxiliary basis functions:     8596

     Block lengths for integral files:
        frozen occupied (BOI):        4 MiB
        active occupied (BJI):        9 MiB
        active virtual  (BAI):      227 MiB
        frozen virtual  (BGI):        0 MiB
               general  (BTI):      239 MiB

   =========================================================================




   **************************************************************************
   *                                                                        *
   *          OPTIMIZATION OF THE GROUND STATE CLUSTER AMPLITUDES           *
   *                                                                        *
   **************************************************************************


   Iter.   MP2 energy       Norm(Omega)    Norm(t1)  Norm(t2)     cpu    wall
   ...........................................................................
    1  -3294.0889576477     ------          0.00000   0.89509  935.66   43.31
   ...........................................................................


     time in total         cpu: 15 h 35 min  wall:  0 h 43 min  ratio: 21.6


     **********************************************************************
     *                                                                    *
     *   RHF  energy                             :  -3285.2270124450      *
     *   MP2 correlation energy (doubles)        :     -8.8619452027      *
     *                                                                    *
     *   Final MP2 energy                        :  -3294.0889576477      *
     *                                                                    *
     *    E(S)   =     -5.2803493450      E(T)   =     -3.5815958578      *
     *    E(OS)  =     -6.4742146309      E(SS)  =     -2.3877305719      *
     *                                                                    *
     *   SCS-MP2 energy                          :  -3293.7919801927      *
     *   (computed with  C(OS) =   1.2000  and  C(SS) =   0.3333)         *
     *                                                                    *
     *   SOS-MP2 energy                          :  -3293.6434914651      *
     *   (computed with  C(OS) =   1.3000)                                *
     *                                                                    *
     *   Norm of MP1 T2 amplitudes               :      0.8950878398      *
     *                                                                    *
     **********************************************************************



    ------------------------------------------------------------------------
         total  cpu-time : 16 hours 48 minutes and  6 seconds
         total wall-time : 51 minutes and 34 seconds
    ------------------------------------------------------------------------

   ****  ricc2 : all done  ****


    2018-04-05 14:55:00.538 

