Using Slurm to start processes with PMI2
STARTING ridft ON 8 PROCESSORS!
RUNNING PROGRAM /beegfs/modfac/apps/TURBOMOLE/7.0_intel_GA/bin/em64t-unknown-linux-gnu_mpi/ridft_mpi.
PLEASE WAIT UNTIL ridft HAS FINISHED.
Look for the output in slave1.output.
  this is node-proc. number 1 running on node c-9-411.local
  the total number of node-proc. spawned is            8
  parallel platform: MPP, or cluster with fast interconnect

 ridft (c-9-411.local) : TURBOMOLE V7.0.2( ) 15 Jan 2016 at 17:47:42
 Copyright (C) 2016 TURBOMOLE GmbH, Karlsruhe


    2017-11-08 17:40:45.597 



                                  r i d f t

                        DFT program with RI approximation 
                                for coulomb part 




                                                 
                                 References:     
                                                 
          TURBOMOLE:                             
              R. Ahlrichs, M. Baer, M. Haeser, H. Horn, and
              C. Koelmel
              Electronic structure calculations on workstation
              computers: the program system TURBOMOLE
              Chem. Phys. Lett. 162: 165 (1989)
          Density Functional:                              
              O. Treutler and R. Ahlrichs                      
              Efficient Molecular Numerical Integration Schemes
              J. Chem. Phys. 102: 346 (1995)                   
          Parallel Version:                                
              Performance of parallel TURBOMOLE for Density    
              Functional Calculations                          
              M. v. Arnim and R. Ahlrichs                      
              J. Comp. Chem. 19: 1746 (1998)                   
          RI-J Method:                                     
              Auxiliary Basis Sets to approximate Coulomb      
              Potentials                                       
              Chem. Phys. Lett. 240: 283 (1995)                
              K. Eichkorn, O. Treutler, H. Oehm, M. Haeser     
              and R. Ahlrichs                                  
              Chem. Phys. Lett. 242: 652 (1995)                
                                                           
              Auxiliary Basis Sets for Main Row Atoms and their
              Use to approximate Coulomb Potentials            
              K. Eichkorn, F. Weigend, O. Treutler and         
              R. Ahlrichs                                      
              Theo. Chem. Acc. 97: 119 (1997)                   
                                                           
              Accurate Coulomb-fitting basis sets for H to Rn 
              F. Weigend                                        
              Phys. Chem. Chem. Phys. 8: 1057 (2006)            
                                                           
          Multipole accelerated RI-J (MARI-J):             
              Fast evaluation of the Coulomb potential for     
              electron densities using multipole accelerated   
              resolution of identity approximation             
              M. Sierka, A. Hogekamp and R. Ahlrichs           
              J. Chem. Phys. 118: 9136 (2003)                  
          RI-JK Method:                                     
              A fully direct RI-HF algorithm: Implementation,
              optimised auxiliary basis sets, demonstration of
              accuracy and efficiency                         
              F. Weigend                                      
              Phys. Chem. Chem. Phys. 4: 4285 (2002)           
          Two-component HF and DFT with spin-orbit coupling:  
              Self-consistent treatment of spin-orbit         
              interactions with efficient Hartree-Fock and    
              density functional methods                      
              M. K. Armbruster, F. Weigend, C. van Wüllen and 
              W. Klopper                                      
              Phys. Chem. Chem. Phys. 10: 1748 (2008)         
          Relativistic all-electron 2c calculations           
              An efficient implementation of two-component    
              relativistic exact-decoupling methods for large 
              molecules                                       
              D. Peng, N. Middendorf, F. Weigend, M. Reiher   
              J. Chem. Phys. 138, 184105 (2013)               
                                         


 


              +--------------------------------------------------+
              |      general information about current run       |
              +--------------------------------------------------+

 

 SCF run will be profiled !


 DENSITY CONVERGENCE CHECK SWITCHED ON !
 SCF CONVERGENCE IF RMS(delta[D]) <     0.1000000000E-06

 PBE functional
 exchange:    LDA + PBE
 correlation: LDA (PW) + PBE
 A DFT calculation using the RI-J approximation will be carried out.
 Allocatable memory for RI due to $ricore (MB):       35000


              +--------------------------------------------------+
              | Atomic coordinate, charge and isotop information |
              +--------------------------------------------------+

                    atomic coordinates            atom    charge  isotop
          1.11256965   -0.03699403    8.43304176    c      6.000     0
         -0.99286022   -0.06614816    6.91307324    c      6.000     0
         -0.75453344   -0.04439855    4.23383521    c      6.000     0
          1.72968560    0.00926155    3.13041940    c      6.000     0
          3.86354583    0.03841454    4.76639235    c      6.000     0
          3.56546497    0.01582646    7.34917989    c      6.000     0
          1.97806724    0.03165726    0.48292329    c      6.000     0
         -0.10772818    0.00341984   -1.12527257    c      6.000     0
         -2.59220707   -0.05155872   -0.00694588    c      6.000     0
         -2.85484045   -0.07351469    2.61611947    c      6.000     0
          0.11071962    0.02692614   -3.87682645    c      6.000     0
         -2.12751944   -0.00797521   -5.37470030    c      6.000     0
         -4.56049290   -0.06402033   -4.17111634    c      6.000     0
         -4.78139564   -0.08394900   -1.61256189    c      6.000     0
         -1.94004727    0.01390725   -8.03459792    c      6.000     0
          0.38915905    0.07011224   -9.21970093    c      6.000     0
          2.60074598    0.10555292   -7.75516752    c      6.000     0
          2.45573747    0.08400702   -5.13837644    c      6.000     0
         -2.06707693   -6.18906568   -5.32903752    c      6.000     0
          0.18301072   -6.63474417   -6.67060154    c      6.000     0
          2.38678363   -7.15176058   -5.27556526    c      6.000     0
          2.34070644   -7.20407481   -2.65885563    c      6.000     0
          0.09622126   -6.72785249   -1.31521972    c      6.000     0
         -2.10794377   -6.23227502   -2.71166799    c      6.000     0
          0.24145579   -6.49707800   -9.43597063    c      6.000     0
         -1.98434963   -6.62308135  -10.89375999    c      6.000     0
         -1.89113927   -6.35445470  -13.47793931    c      6.000     0
          0.34077318   -5.99426988  -14.67755938    n      7.000     0
          2.53646052   -5.93806545  -13.35869891    c      6.000     0
          2.52337171   -6.18876805  -10.76963843    c      6.000     0
          0.38681466   -5.36488393  -17.43736682    c      6.000     0
          0.29187935   -2.52440653  -17.71236941    c      6.000     0
         -2.02423382   -1.24838899  -17.72695393    c      6.000     0
         -2.08279208    1.38405243  -17.71364384    c      6.000     0
          0.17427943    2.76159645  -17.68611204    c      6.000     0
          2.48924591    1.48593002  -17.75675322    c      6.000     0
          2.54789148   -1.14645754  -17.76961053    c      6.000     0
          0.14280075    5.60044585  -17.38166204    c      6.000     0
          0.07941045    6.19688215  -14.61478853    n      7.000     0
          2.28057535    6.22325536  -13.30413080    c      6.000     0
          2.26637236    6.44111697  -10.71213236    c      6.000     0
         -0.02187434    6.63001362   -9.36691475    c      6.000     0
         -2.25672777    6.67434924  -10.81568671    c      6.000     0
         -2.16172273    6.44174682  -13.40332517    c      6.000     0
         -0.07570753    6.72878866   -6.59967577    c      6.000     0
          2.10940755    7.32096836   -5.20512081    c      6.000     0
          2.07182619    7.33491189   -2.58780174    c      6.000     0
         -0.14495314    6.74453253   -1.24348118    c      6.000     0
         -2.33157150    6.17464990   -2.63891354    c      6.000     0
         -2.29930367    6.16872183   -5.25682447    c      6.000     0
         -0.16617930    6.70301072    1.53864128    c      6.000     0
          2.06953055    6.29228006    2.91178489    c      6.000     0
          2.05900591    6.23196171    5.52868161    c      6.000     0
         -0.19869469    6.55640293    6.89071759    c      6.000     0
         -2.43938983    6.97645428    5.52216489    c      6.000     0
         -2.41998763    7.05399125    2.90488796    c      6.000     0
         -0.21501550    6.40547712    9.65707823    c      6.000     0
          2.01578655    6.68288835   11.08543944    c      6.000     0
          1.97115840    6.43266196   13.67380148    c      6.000     0
         -0.21780039    5.94152289   14.90373730    n      7.000     0
         -2.41926198    5.71960971   13.61129709    c      6.000     0
         -2.45420415    5.94497807   11.01948479    c      6.000     0
         -0.20120349    5.35826648   17.67507812    c      6.000     0
         -0.11334332    2.52186957   17.98724330    c      6.000     0
          2.18663745    1.22268985   17.84478138    c      6.000     0
          2.21796967   -1.40895618   17.83150247    c      6.000     0
         -0.05049273   -2.76391363   17.95988233    c      6.000     0
         -2.34021114   -1.46616651   18.20187537    c      6.000     0
         -2.37151219    1.16748225   18.21589109    c      6.000     0
         -0.07045560   -5.59819915   17.61759775    c      6.000     0
         -0.06165439   -6.15061882   14.83983470    n      7.000     0
         -2.26372863   -5.97416262   13.54147039    c      6.000     0
         -2.28263175   -6.16729225   10.94678702    c      6.000     0
         -0.02586015   -6.54580780    9.58833679    c      6.000     0
          2.20659352   -6.77948755   11.02180556    c      6.000     0
          2.14495973   -6.56482355   13.61301277    c      6.000     0
          0.06354790   -6.72700287    1.46726727    c      6.000     0
         -2.18025244   -7.18264192    2.81909420    c      6.000     0
         -2.21257243   -7.14219705    5.43715310    c      6.000     0
          0.00577311   -6.65793017    6.82042790    c      6.000     0
          2.25472031   -6.22947577    5.47300461    c      6.000     0
          2.27697939   -6.25126545    2.85564547    c      6.000     0
          1.59705083   -6.50924670   18.41382460    h      1.000     0
         -1.79738467   -6.43895550   18.37921256    h      1.000     0
          4.00962771   -2.40429119   17.69319190    h      1.000     0
          3.95402762    2.26181755   17.71640511    h      1.000     0
         -4.14787743    2.19580016   18.36663889    h      1.000     0
         -4.09182192   -2.53786346   18.34022884    h      1.000     0
         -1.94436397    6.14963787   18.45282155    h      1.000     0
          1.44795257    6.29950543   18.47426012    h      1.000     0
          3.64648660    6.61495212   14.83405346    h      1.000     0
          3.80673556    7.11507533   10.19652758    h      1.000     0
         -4.24942602    5.70718759   10.06696757    h      1.000     0
         -4.10038181    5.39910139   14.75884859    h      1.000     0
          3.81184841    5.83405549    6.51055118    h      1.000     0
          3.82806642    5.93761418    1.92131253    h      1.000     0
         -4.17207065    7.43416938    1.91028031    h      1.000     0
         -4.20977994    7.29422193    6.50595820    h      1.000     0
          3.77871074    7.84952797   -1.57521845    h      1.000     0
          3.84809940    7.82353781   -6.16756967    h      1.000     0
         -4.00500053    5.63369255   -6.25770828    h      1.000     0
         -4.05534586    5.63900722   -1.67021668    h      1.000     0
          4.06863630    6.39555794   -9.74531105    h      1.000     0
          3.99868185    6.07735849  -14.43635152    h      1.000     0
         -3.83684419    6.43935688  -14.57819266    h      1.000     0
         -4.09310863    6.89599541   -9.94218877    h      1.000     0
         -1.52568513    6.46851007  -18.22276270    h      1.000     0
          1.86612912    6.45977462  -18.12892401    h      1.000     0
         -3.88941543    2.36142124  -17.70766304    h      1.000     0
         -3.78572143   -2.30500366  -17.73109640    h      1.000     0
          4.34122722   -2.15594640  -17.80694472    h      1.000     0
          4.23609192    2.57434651  -17.78435644    h      1.000     0
          2.14930647   -6.13804893  -18.18709941    h      1.000     0
         -1.23806523   -6.29784153  -18.29425974    h      1.000     0
         -3.56054431   -6.41449999  -14.65935168    h      1.000     0
         -3.81171235   -6.93811003  -10.03008976    h      1.000     0
          4.31835265   -6.07473574   -9.79504279    h      1.000     0
          4.25050997   -5.70136686  -14.48185083    h      1.000     0
         -3.79076247   -5.71429693   -6.32961860    h      1.000     0
         -3.85659939   -5.78532002   -1.74266953    h      1.000     0
          4.06460778   -7.65968193   -1.64694187    h      1.000     0
          4.14879357   -7.56597324   -6.23775239    h      1.000     0
         -3.91304022   -7.61508099    1.81221127    h      1.000     0
         -3.97304072   -7.54011820    6.40967042    h      1.000     0
          3.98710558   -5.77934868    6.46862496    h      1.000     0
          4.02451762   -5.81558947    1.87814173    h      1.000     0
         -4.08000017   -5.96771223    9.98933744    h      1.000     0
         -3.95717836   -5.71325229   14.68624040    h      1.000     0
          3.81994721   -6.71674676   14.77816216    h      1.000     0
          4.01201141   -7.15002071   10.13417927    h      1.000     0
          4.19636837    0.11259064   -4.05550554    h      1.000     0
          4.43747607    0.15003140   -8.67030633    h      1.000     0
          0.50882275    0.08681402  -11.26937839    h      1.000     0
         -3.67102110   -0.01388155   -9.14153070    h      1.000     0
         -6.23205638   -0.08960590   -5.36576378    h      1.000     0
         -6.63229679   -0.12540884   -0.72130317    h      1.000     0
         -4.74342897   -0.11484263    3.42748492    h      1.000     0
          5.21304915    0.03882839    8.57394749    h      1.000     0
          5.74243155    0.07937965    3.93572355    h      1.000     0
          3.87807140    0.07224631   -0.29127464    h      1.000     0
          0.90917049   -0.05396529   10.47668042    h      1.000     0
         -2.87591127   -0.10622358    7.73367907    h      1.000     0
          7.27996621   -6.26715918  -17.76848312    cl    17.000     0
          6.98253542    6.82663414  -17.72972390    cl    17.000     0
         -6.84502099   -6.78368558   18.05938775    cl    17.000     0
         -6.97968193    6.40160752   18.16055235    cl    17.000     0
 
       center of nuclear mass  :   -0.00646088    0.00385397    0.01333558
       center of nuclear charge:   -0.00535838    0.00345225    0.01207640

              +--------------------------------------------------+
              |               basis set information              |
              +--------------------------------------------------+

              we will work with the 1s 3p 5d 7f 9g ... basis set
              ...i.e. with spherical basis functions...

   type   atoms  prim   cont   basis
   ---------------------------------------------------------------------------
    c       78     77     57   def2-QZVP   [7s4p3d2f1g|15s8p3d2f1g]
    n        4     77     57   def2-QZVP   [7s4p3d2f1g|15s8p3d2f1g]
    h       60     33     30   def2-QZVP   [4s3p2d1f|7s3p2d1f]
    cl       4    105     70   def2-QZVP   [9s6p4d2f1g|20s14p4d2f1g]
   ---------------------------------------------------------------------------
   total:  146   8714   6754
   ---------------------------------------------------------------------------

   total number of primitive shells          :  112
   total number of contracted shells         : 2082
   total number of cartesian basis functions : 8348
   total number of SCF-basis functions       : 6754


 integral neglect threshold       :  0.40E-14
 integral storage threshold THIZE :  0.10E-04
 integral storage threshold THIME :         5

 RI-J AUXILIARY BASIS SET information:

              we will work with the 1s 3p 5d 7f 9g ... basis set
              ...i.e. with spherical basis functions...

   type   atoms  prim   cont   basis
   ---------------------------------------------------------------------------
    c       78     70     49   def2-QZVP   [6s4p3d1f1g|12s5p4d2f1g]
    n        4     70     49   def2-QZVP   [6s4p3d1f1g|12s5p4d2f1g]
    h       60     16     11   def2-QZVP   [3s1p1d|5s2p1d]
    cl       4     77     51   def2-QZVP   [8s4p3d1f1g|14s5p5d2f1g]
   ---------------------------------------------------------------------------
   total:  146   7008   4882
   ---------------------------------------------------------------------------

   total number of primitive shells          :   83
   total number of contracted shells         : 1598
   total number of cartesian basis functions : 5974
   total number of SCF-basis functions       : 4882


 symmetry group of the molecule :   c1 

 the group has the following generators :
   c1(z)

    1 symmetry operations found

 there are 1 real representations :   a   

 maximum number of shells which are related by symmetry :  1


    mo occupation :
   irrep   mo's   occupied
    a     6754      312
 
 number of basis functions   :         6754
 number of occupied orbitals :          312
 
  
           ------------------
           density functional
           ------------------
 PBE functional
 exchange:    LDA + PBE
 correlation: LDA (PW) + PBE
 grinp -> nfun, dfgga, dfhybrid 
           6 T F
 iterations will be done with small grid
  
 spherical integration : Lebedev's spherical grid
 spherical gridsize    :           5
    i.e. gridpoints    :         590
 value for diffuse not defined
 radial integration    : Chebyshev 2nd kind (scaling 3)
 radial gridsize       :           8
 integration cells     :         146
 partition function    : becke
 partition sharpness   :           3
  

 <rddim> : input of entry tasksize
           from data group '$pardft' failed !

               Default values taken

 <rddim> : input of entry memdiv
           from data group '$pardft' failed !

               Default values taken
  RIDFT: memory allocation for DFT gridpoints
  MEMORY is divided by 1 as DEFAULT
 Each node can hold at most  the            1 -th part
 of the gridpoints    

 biggest AO integral is expected to be    12.165751258
  
           ------------------------
               RI-J - INFORMATION
           ------------------------
 
 
 **************************************************
 *      MEMORY ALLOCATION FOR PARALLEL RI-DFT     *
 **************************************************
 
 
MEMORY FOR (MU NU/ ALPHA), SEQUENTIAL RUN              34799 MByte
 
            DIFFERENCE IN MEMORY NEED:       DIAG./SLAVE  
 
      TOTAL DIFFERENCE :                   2051 MByte
 
      difference in xcore:                  202 MByte
      difference in fatmat:                 621 MByte
      getcor calls skipped by slaves:      1228 MByte
 
 
           Integral memory available for diagonal.     34799 MByte
 
           Integral memory available for slave             0 MByte
 
         MEMORY FOR (MU NU/ ALPHA) ON DIAGONALIZER     34799 MByte
 
         MEMORY FOR (MU NU/ ALPHA) ON ONE SLAVE            0 MByte
 
         TOTAL MEMORY FOR (MU NU/ ALPHA),ALL NODES     34799 MByte
 
 Contributions to RI integral batches: 
  neglected integral batches:     1560631
  direct contribution:             453882
  memory contribution:      153890
 Memory core needed for (P|Q) and Cholesky    182 MByte
 Memory core minimum needed except of (P|Q)    25 MByte
 Total minimum memory core needed (sum)       207 MByte
     number of direct tasks:         160
  
 ****************************************
 Memory allocated for RI-J 35005 MByte
 ****************************************
                                            

          ------------------------
          nuclear repulsion energy  :   15632.5662048    
          ------------------------

 
          -----------------
          -S integrals
          -----------------

 1e-integrals will be neglected if expon. factor < 0.400331E-15
 
          -----------------
          -T+V integrals
          -----------------

 1e-integrals will be neglected if expon. factor < 0.400331E-15
 Difference densities >>NOT<< switched on in parallel ridft!

 automatic virtual orbital shift switched on 
      shift if e(lumo)-e(homo) < 0.10000000    


 DIIS switched on: error vector is FDS-SDF
 Max. Iterations for DIIS is     :   4
 DIIS matrix (see manual) 
    Scaling factor of diagonals  :  1.200
    threshold for scaling factor :  0.000

 scf convergence criterion : increment of total energy < .1000000D-08
                  and increment of one-electron energy < .1000000D-05


 <geterg> : there is no data group $energy 

  MOs are in ASCII format !


 reading orbital data $scfmo  from file mos . 

 orbital characterization : scfdump=1
 

 DSCF restart information will be dumped onto file mos


 Starting SCF iterations


 ITERATION  ENERGY          1e-ENERGY        2e-ENERGY     RMS[dD(SAO)]   TOL
   1  -5062.5338167142    -38019.484979     17324.384957    0.000D+00 0.399D-14
                            Exc = -577.942829435     Coul =  17902.3277867    
                              N = 623.99521720    
                            current damping = 0.700
 
          max. resid. norm for Fia-block=  1.350D-01 for orbital      7a         
          max. resid. fock norm         =  1.564D-01 for orbital   6477a         

 ITERATION  ENERGY          1e-ENERGY        2e-ENERGY     RMS[dD(SAO)]   TOL
   2  -5064.3119831621    -38055.703079     17358.824891    0.320D-02 0.399D-14
                            Exc = -580.766918888     Coul =  17939.5918102    
                              N = 623.99593630    
                            current damping = 0.650
 
          Norm of current diis error:  4.6688    
          max. resid. norm for Fia-block=  5.755D-02 for orbital      6a         
          max. resid. fock norm         =  1.924D-01 for orbital   6634a         

 ITERATION  ENERGY          1e-ENERGY        2e-ENERGY     RMS[dD(SAO)]   TOL
   3  -5064.6868038798    -38054.058389     17356.805381    0.113D-02 0.399D-14
                            Exc = -581.047316579     Coul =  17937.8526974    
                              N = 623.99616025    
                            current damping = 0.600
 
          Norm of current diis error:  2.2200    
          max. resid. norm for Fia-block=  2.571D-02 for orbital    112a         
          max. resid. fock norm         =  4.320D-02 for orbital   6475a         
          irrep a   : virtual orbitals shifted by    0.10575

 ITERATION  ENERGY          1e-ENERGY        2e-ENERGY     RMS[dD(SAO)]   TOL
   4  -5064.7884312099    -38064.144796     17366.790160    0.573D-03 0.399D-14
                            Exc = -581.506855444     Coul =  17948.2970152    
                              N = 623.99625680    
                            current damping = 0.650
 
          Norm of current diis error: 0.90986    
          max. resid. norm for Fia-block=  1.070D-02 for orbital    112a         
          max. resid. fock norm         =  2.944D-02 for orbital   3464a         
          irrep a   : virtual orbitals shifted by    0.07149

 ITERATION  ENERGY          1e-ENERGY        2e-ENERGY     RMS[dD(SAO)]   TOL
   5  -5064.8081658189    -38063.204831     17365.830461    0.309D-03 0.399D-14
                            Exc = -581.596382432     Coul =  17947.4268432    
                              N = 623.99630839    
                            current damping = 0.700
 
          Norm of current diis error: 0.42562    
          max. resid. norm for Fia-block=  4.863D-03 for orbital    118a         
          max. resid. fock norm         =  1.004D-02 for orbital   3488a         
          irrep a   : virtual orbitals shifted by    0.10165
          mo-orthogonalization: Cholesky decomposition

 ITERATION  ENERGY          1e-ENERGY        2e-ENERGY     RMS[dD(SAO)]   TOL
   6  -5064.8139739975    -38065.031613     17367.651434    0.167D-03 0.399D-14
                            Exc = -581.648745846     Coul =  17949.3001797    
                              N = 623.99632240    
                            current damping = 0.750
 
          Norm of current diis error: 0.19886    
          max. resid. norm for Fia-block=  3.189D-03 for orbital    301a         
          max. resid. fock norm         =  9.150D-03 for orbital   6611a         
          irrep a   : virtual orbitals shifted by    0.06241

 ITERATION  ENERGY          1e-ENERGY        2e-ENERGY     RMS[dD(SAO)]   TOL
   7  -5064.8157375610    -38065.545568     17368.163625    0.718D-04 0.399D-14
                            Exc = -581.677056180     Coul =  17949.8406816    
                              N = 623.99632998    
                            current damping = 0.650
 
          Norm of current diis error: 0.10049    
          max. resid. norm for Fia-block=  2.422D-03 for orbital    301a         
          max. resid. fock norm         =  4.709D-03 for orbital   6434a         
          irrep a   : virtual orbitals shifted by    0.09029

 ITERATION  ENERGY          1e-ENERGY        2e-ENERGY     RMS[dD(SAO)]   TOL
   8  -5064.8164624969    -38065.831771     17368.449104    0.369D-04 0.399D-14
                            Exc = -581.689165759     Coul =  17950.1382697    
                              N = 623.99633422    
                            current damping = 0.500
 
          Norm of current diis error: 0.56166E-01
          max. resid. norm for Fia-block=  1.707D-03 for orbital    301a         
          max. resid. fock norm         =  2.816D-03 for orbital   3296a         
          irrep a   : virtual orbitals shifted by    0.09932

 ITERATION  ENERGY          1e-ENERGY        2e-ENERGY     RMS[dD(SAO)]   TOL
   9  -5064.8168180351    -38066.022608     17368.639585    0.208D-04 0.399D-14
                            Exc = -581.691752464     Coul =  17950.3313377    
                              N = 623.99633601    
                            current damping = 0.350
 
          Norm of current diis error: 0.29631E-01
          max. resid. norm for Fia-block=  1.281D-03 for orbital    301a         
          max. resid. fock norm         =  1.640D-03 for orbital    313a         
          irrep a   : virtual orbitals shifted by    0.10114

 ITERATION  ENERGY          1e-ENERGY        2e-ENERGY     RMS[dD(SAO)]   TOL
  10  -5064.8170012417    -38066.194451     17368.811245    0.149D-04 0.399D-14
                            Exc = -581.695360577     Coul =  17950.5066053    
                              N = 623.99633693    
                            current damping = 0.200
 
          Norm of current diis error: 0.19563E-01
          max. resid. norm for Fia-block=  9.476D-04 for orbital    301a         
          max. resid. fock norm         =  1.170D-03 for orbital    313a         
          irrep a   : virtual orbitals shifted by    0.08541
          mo-orthogonalization: Cholesky decomposition

 ITERATION  ENERGY          1e-ENERGY        2e-ENERGY     RMS[dD(SAO)]   TOL
  11  -5064.8171071320    -38066.283311     17368.899999    0.130D-04 0.399D-14
                            Exc = -581.697540576     Coul =  17950.5975397    
                              N = 623.99633754    
                            current damping = 0.050
 
          Norm of current diis error: 0.13720E-01
          max. resid. norm for Fia-block=  6.677D-04 for orbital    301a         
          max. resid. fock norm         =  8.928D-04 for orbital    313a         
          irrep a   : virtual orbitals shifted by    0.09901

 ITERATION  ENERGY          1e-ENERGY        2e-ENERGY     RMS[dD(SAO)]   TOL
  12  -5064.8171721521    -38066.335116     17368.951739    0.101D-04 0.399D-14
                            Exc = -581.697001385     Coul =  17950.6487401    
                              N = 623.99633788    
                            current damping = 0.050
 
          Norm of current diis error: 0.11035E-01
          max. resid. norm for Fia-block=  4.951D-04 for orbital    301a         
          max. resid. fock norm         =  6.908D-04 for orbital    313a         
          irrep a   : virtual orbitals shifted by    0.09915

 ITERATION  ENERGY          1e-ENERGY        2e-ENERGY     RMS[dD(SAO)]   TOL
  13  -5064.8172146886    -38066.390728     17369.007308    0.733D-05 0.399D-14
                            Exc = -581.697603612     Coul =  17950.7049118    
                              N = 623.99633806    
                            current damping = 0.050
 
          Norm of current diis error: 0.95183E-02
          max. resid. norm for Fia-block=  3.730D-04 for orbital    312a         
          max. resid. fock norm         =  5.676D-04 for orbital    314a         
          irrep a   : virtual orbitals shifted by    0.09887

 ITERATION  ENERGY          1e-ENERGY        2e-ENERGY     RMS[dD(SAO)]   TOL
  14  -5064.8172445219    -38066.435057     17369.051608    0.576D-05 0.399D-14
                            Exc = -581.698502226     Coul =  17950.7501104    
                              N = 623.99633827    
                            current damping = 0.050
 
          Norm of current diis error: 0.86185E-02
          max. resid. norm for Fia-block=  3.323D-04 for orbital    312a         
          max. resid. fock norm         =  4.858D-04 for orbital    314a         
          irrep a   : virtual orbitals shifted by    0.09853

 ITERATION  ENERGY          1e-ENERGY        2e-ENERGY     RMS[dD(SAO)]   TOL
  15  -5064.8172667139    -38066.459536     17369.076065    0.480D-05 0.399D-14
                            Exc = -581.698727434     Coul =  17950.7747923    
                              N = 623.99633839    
                            current damping = 0.050
 
          Norm of current diis error: 0.63874E-02
          max. resid. norm for Fia-block=  2.984D-04 for orbital    312a         
          max. resid. fock norm         =  4.367D-04 for orbital    314a         
          irrep a   : virtual orbitals shifted by    0.09838
          mo-orthogonalization: Cholesky decomposition

 ITERATION  ENERGY          1e-ENERGY        2e-ENERGY     RMS[dD(SAO)]   TOL
  16  -5064.8172832131    -38066.471292     17369.087804    0.372D-05 0.399D-14
                            Exc = -581.698410406     Coul =  17950.7862146    
                              N = 623.99633848    
                            current damping = 0.050
 
          Norm of current diis error: 0.53699E-02
          max. resid. norm for Fia-block=  2.717D-04 for orbital    312a         
          max. resid. fock norm         =  3.775D-04 for orbital    314a         
          irrep a   : virtual orbitals shifted by    0.09814

 ITERATION  ENERGY          1e-ENERGY        2e-ENERGY     RMS[dD(SAO)]   TOL
  17  -5064.8172960365    -38066.479071     17369.095570    0.345D-05 0.399D-14
                            Exc = -581.698852654     Coul =  17950.7944229    
                              N = 623.99633855    
                            current damping = 0.050
 
          Norm of current diis error: 0.44097E-02
          max. resid. norm for Fia-block=  2.480D-04 for orbital    312a         
          max. resid. fock norm         =  3.535D-04 for orbital    314a         
          irrep a   : virtual orbitals shifted by    0.09808

 ITERATION  ENERGY          1e-ENERGY        2e-ENERGY     RMS[dD(SAO)]   TOL
  18  -5064.8173061623    -38066.492727     17369.109216    0.269D-05 0.399D-14
                            Exc = -581.698959708     Coul =  17950.8081762    
                              N = 623.99633864    
                            current damping = 0.050
 
          Norm of current diis error: 0.40953E-02
          max. resid. norm for Fia-block=  2.284D-04 for orbital    312a         
          max. resid. fock norm         =  3.233D-04 for orbital    314a         
          irrep a   : virtual orbitals shifted by    0.09798

 ITERATION  ENERGY          1e-ENERGY        2e-ENERGY     RMS[dD(SAO)]   TOL
  19  -5064.8173144018    -38066.497733     17369.114214    0.242D-05 0.399D-14
                            Exc = -581.698873263     Coul =  17950.8130870    
                              N = 623.99633868    
                            current damping = 0.050
 
          Norm of current diis error: 0.36834E-02
          max. resid. norm for Fia-block=  2.143D-04 for orbital    312a         
          max. resid. fock norm         =  3.049D-04 for orbital    314a         
          irrep a   : virtual orbitals shifted by    0.09795

 ITERATION  ENERGY          1e-ENERGY        2e-ENERGY     RMS[dD(SAO)]   TOL
  20  -5064.8173212478    -38066.504999     17369.121473    0.216D-05 0.399D-14
                            Exc = -581.698943519     Coul =  17950.8204165    
                              N = 623.99633873    
                            current damping = 0.050
 
          Norm of current diis error: 0.32123E-02
          max. resid. norm for Fia-block=  1.975D-04 for orbital    312a         
          max. resid. fock norm         =  2.759D-04 for orbital    314a         
          irrep a   : virtual orbitals shifted by    0.09782
          mo-orthogonalization: Cholesky decomposition

 ITERATION  ENERGY          1e-ENERGY        2e-ENERGY     RMS[dD(SAO)]   TOL
  21  -5064.8173269368    -38066.509408     17369.125876    0.207D-05 0.399D-14
                            Exc = -581.699227277     Coul =  17950.8251034    
                              N = 623.99633876    
                            current damping = 0.050
 
          Norm of current diis error: 0.26991E-02
          max. resid. norm for Fia-block=  1.848D-04 for orbital    312a         
          max. resid. fock norm         =  2.610D-04 for orbital    314a         
          irrep a   : virtual orbitals shifted by    0.09782

 ITERATION  ENERGY          1e-ENERGY        2e-ENERGY     RMS[dD(SAO)]   TOL
  22  -5064.8173316860    -38066.514440     17369.130904    0.176D-05 0.399D-14
                            Exc = -581.699065055     Coul =  17950.8299687    
                              N = 623.99633881    
                            current damping = 0.050
 
          Norm of current diis error: 0.25850E-02
          max. resid. norm for Fia-block=  1.714D-04 for orbital    312a         
          max. resid. fock norm         =  2.423D-04 for orbital    314a         
          irrep a   : virtual orbitals shifted by    0.09776

 ITERATION  ENERGY          1e-ENERGY        2e-ENERGY     RMS[dD(SAO)]   TOL
  23  -5064.8173357396    -38066.516989     17369.133449    0.165D-05 0.399D-14
                            Exc = -581.699106187     Coul =  17950.8325549    
                              N = 623.99633883    
                            current damping = 0.050
 
          Norm of current diis error: 0.23425E-02
          max. resid. norm for Fia-block=  1.595D-04 for orbital    312a         
          max. resid. fock norm         =  2.264D-04 for orbital    314a         
          irrep a   : virtual orbitals shifted by    0.09772

 ITERATION  ENERGY          1e-ENERGY        2e-ENERGY     RMS[dD(SAO)]   TOL
  24  -5064.8173392012    -38066.520843     17369.137299    0.152D-05 0.399D-14
                            Exc = -581.699274055     Coul =  17950.8365726    
                              N = 623.99633886    
                            current damping = 0.050
 
          Norm of current diis error: 0.21949E-02
          max. resid. norm for Fia-block=  1.486D-04 for orbital    312a         
          max. resid. fock norm         =  2.112D-04 for orbital    314a         
          irrep a   : virtual orbitals shifted by    0.09768

 ITERATION  ENERGY          1e-ENERGY        2e-ENERGY     RMS[dD(SAO)]   TOL
  25  -5064.8173421727    -38066.524731     17369.141184    0.139D-05 0.399D-14
                            Exc = -581.699293205     Coul =  17950.8404773    
                              N = 623.99633888    
                            current damping = 0.050
 
          Norm of current diis error: 0.20405E-02
          max. resid. norm for Fia-block=  1.407D-04 for orbital    312a         
          max. resid. fock norm         =  1.993D-04 for orbital    314a         
          irrep a   : virtual orbitals shifted by    0.09768
          mo-orthogonalization: Cholesky decomposition

 ITERATION  ENERGY          1e-ENERGY        2e-ENERGY     RMS[dD(SAO)]   TOL
  26  -5064.8173447456    -38066.526437     17369.142888    0.128D-05 0.399D-14
                            Exc = -581.699205163     Coul =  17950.8420929    
                              N = 623.99633890    
                            current damping = 0.050
 
          Norm of current diis error: 0.18154E-02
          max. resid. norm for Fia-block=  1.300D-04 for orbital    312a         
          max. resid. fock norm         =  1.835D-04 for orbital    314a         
          irrep a   : virtual orbitals shifted by    0.09762

 ITERATION  ENERGY          1e-ENERGY        2e-ENERGY     RMS[dD(SAO)]   TOL
  27  -5064.8173469568    -38066.527586     17369.144035    0.122D-05 0.399D-14
                            Exc = -581.699354984     Coul =  17950.8433895    
                              N = 623.99633892    
                            current damping = 0.050
 
          Norm of current diis error: 0.16761E-02
          max. resid. norm for Fia-block=  1.219D-04 for orbital    312a         
          max. resid. fock norm         =  1.735D-04 for orbital    314a         
          irrep a   : virtual orbitals shifted by    0.09761

 ITERATION  ENERGY          1e-ENERGY        2e-ENERGY     RMS[dD(SAO)]   TOL
  28  -5064.8173488764    -38066.531403     17369.147849    0.110D-05 0.399D-14
                            Exc = -581.699351315     Coul =  17950.8472007    
                              N = 623.99633894    
                            current damping = 0.050
 
          Norm of current diis error: 0.15907E-02
          max. resid. norm for Fia-block=  1.143D-04 for orbital    312a         
          max. resid. fock norm         =  1.624D-04 for orbital    314a         
          irrep a   : virtual orbitals shifted by    0.09759

 ITERATION  ENERGY          1e-ENERGY        2e-ENERGY     RMS[dD(SAO)]   TOL
  29  -5064.8173505477    -38066.532794     17369.149239    0.102D-05 0.399D-14
                            Exc = -581.699317104     Coul =  17950.8485561    
                              N = 623.99633895    
                            current damping = 0.050
 
          Norm of current diis error: 0.14625E-02
          max. resid. norm for Fia-block=  1.065D-04 for orbital    312a         
          max. resid. fock norm         =  1.516D-04 for orbital    314a         
          irrep a   : virtual orbitals shifted by    0.09756

 ITERATION  ENERGY          1e-ENERGY        2e-ENERGY     RMS[dD(SAO)]   TOL
  30  -5064.8173520014    -38066.533279     17369.149723    0.959D-06 0.399D-14
                            Exc = -581.699386057     Coul =  17950.8491086    
                              N = 623.99633897    
                            current damping = 0.050
 
          Norm of current diis error: 0.14001E-02
          max. resid. norm for Fia-block=  9.954D-05 for orbital    312a         
          max. resid. fock norm         =  1.421D-04 for orbital    314a         
          irrep a   : virtual orbitals shifted by    0.09754
          mo-orthogonalization: Cholesky decomposition

 ITERATION  ENERGY          1e-ENERGY        2e-ENERGY     RMS[dD(SAO)]   TOL
  31  -5064.8173532714    -38066.536346     17369.152788    0.891D-06 0.399D-14
                            Exc = -581.699434742     Coul =  17950.8522229    
                              N = 623.99633898    
                            current damping = 0.050
 
          Norm of current diis error: 0.12919E-02
          max. resid. norm for Fia-block=  9.425D-05 for orbital    312a         
          max. resid. fock norm         =  1.333D-04 for orbital    314a         
          irrep a   : virtual orbitals shifted by    0.09754

 ITERATION  ENERGY          1e-ENERGY        2e-ENERGY     RMS[dD(SAO)]   TOL
  32  -5064.8173543770    -38066.537081     17369.153522    0.827D-06 0.399D-14
                            Exc = -581.699383824     Coul =  17950.8529058    
                              N = 623.99633900    
                            current damping = 0.050
 
          Norm of current diis error: 0.11758E-02
          max. resid. norm for Fia-block=  8.714D-05 for orbital    312a         
          max. resid. fock norm         =  1.239D-04 for orbital    314a         
          irrep a   : virtual orbitals shifted by    0.09751

 ITERATION  ENERGY          1e-ENERGY        2e-ENERGY     RMS[dD(SAO)]   TOL
  33  -5064.8173553394    -38066.537520     17369.153960    0.777D-06 0.399D-14
                            Exc = -581.699440980     Coul =  17950.8534010    
                              N = 623.99633901    
                            current damping = 0.050
 
          Norm of current diis error: 0.11115E-02
          max. resid. norm for Fia-block=  8.178D-05 for orbital    312a         
          max. resid. fock norm         =  1.167D-04 for orbital    314a         
          irrep a   : virtual orbitals shifted by    0.09750

 ITERATION  ENERGY          1e-ENERGY        2e-ENERGY     RMS[dD(SAO)]   TOL
  34  -5064.8173561821    -38066.539505     17369.155944    0.718D-06 0.399D-14
                            Exc = -581.699464445     Coul =  17950.8554087    
                              N = 623.99633902    
                            current damping = 0.050
 
          Norm of current diis error: 0.10339E-02
          max. resid. norm for Fia-block=  7.695D-05 for orbital    312a         
          max. resid. fock norm         =  1.093D-04 for orbital    314a         
          irrep a   : virtual orbitals shifted by    0.09749

 ITERATION  ENERGY          1e-ENERGY        2e-ENERGY     RMS[dD(SAO)]   TOL
  35  -5064.8173569178    -38066.540591     17369.157030    0.670D-06 0.399D-14
                            Exc = -581.699447215     Coul =  17950.8564770    
                              N = 623.99633903    
                            current damping = 0.050
 
          Norm of current diis error: 0.97200E-03
          max. resid. norm for Fia-block=  7.187D-05 for orbital    312a         
          max. resid. fock norm         =  1.024D-04 for orbital    314a         
          irrep a   : virtual orbitals shifted by    0.09748
          mo-orthogonalization: Cholesky decomposition

 ITERATION  ENERGY          1e-ENERGY        2e-ENERGY     RMS[dD(SAO)]   TOL
  36  -5064.8173575614    -38066.540670     17369.157108    0.626D-06 0.399D-14
                            Exc = -581.699468276     Coul =  17950.8565759    
                              N = 623.99633904    
                            current damping = 0.050
 
          Norm of current diis error: 0.92234E-03
          max. resid. norm for Fia-block=  6.717D-05 for orbital    312a         
          max. resid. fock norm         =  9.594D-05 for orbital    314a         
          irrep a   : virtual orbitals shifted by    0.09747

 ITERATION  ENERGY          1e-ENERGY        2e-ENERGY     RMS[dD(SAO)]   TOL
  37  -5064.8173581264    -38066.542462     17369.158899    0.588D-06 0.399D-14
                            Exc = -581.699505122     Coul =  17950.8584045    
                              N = 623.99633904    
                            current damping = 0.050
 
          Norm of current diis error: 0.85678E-03
          max. resid. norm for Fia-block=  6.344D-05 for orbital    312a         
          max. resid. fock norm         =  8.988D-05 for orbital    314a         
          irrep a   : virtual orbitals shifted by    0.09746

 ITERATION  ENERGY          1e-ENERGY        2e-ENERGY     RMS[dD(SAO)]   TOL
  38  -5064.8173586189    -38066.542778     17369.159214    0.547D-06 0.399D-14
                            Exc = -581.699486203     Coul =  17950.8587005    
                              N = 623.99633905    
                            current damping = 0.050
 
          Norm of current diis error: 0.79030E-03
          max. resid. norm for Fia-block=  5.900D-05 for orbital    312a         
          max. resid. fock norm         =  8.400D-05 for orbital    314a         
          irrep a   : virtual orbitals shifted by    0.09745

 ITERATION  ENERGY          1e-ENERGY        2e-ENERGY     RMS[dD(SAO)]   TOL
  39  -5064.8173590497    -38066.543389     17369.159825    0.511D-06 0.399D-14
                            Exc = -581.699505118     Coul =  17950.8593305    
                              N = 623.99633906    
                            current damping = 0.050
 
          Norm of current diis error: 0.74109E-03
          max. resid. norm for Fia-block=  5.521D-05 for orbital    312a         
          max. resid. fock norm         =  7.878D-05 for orbital    314a         
          irrep a   : virtual orbitals shifted by    0.09744

 ITERATION  ENERGY          1e-ENERGY        2e-ENERGY     RMS[dD(SAO)]   TOL
  40  -5064.8173594275    -38066.544152     17369.160587    0.479D-06 0.399D-14
                            Exc = -581.699523002     Coul =  17950.8601104    
                              N = 623.99633906    
                            current damping = 0.050
 
          Norm of current diis error: 0.68954E-03
          max. resid. norm for Fia-block=  5.190D-05 for orbital    312a         
          max. resid. fock norm         =  7.387D-05 for orbital    314a         
          irrep a   : virtual orbitals shifted by    0.09743
          mo-orthogonalization: Cholesky decomposition

 ITERATION  ENERGY          1e-ENERGY        2e-ENERGY     RMS[dD(SAO)]   TOL
  41  -5064.8173597576    -38066.544911     17369.161347    0.445D-06 0.399D-14
                            Exc = -581.699523106     Coul =  17950.8608700    
                              N = 623.99633907    
                            current damping = 0.050
 
          Norm of current diis error: 0.65612E-03
          max. resid. norm for Fia-block=  4.870D-05 for orbital    312a         
          max. resid. fock norm         =  6.934D-05 for orbital    314a         
          irrep a   : virtual orbitals shifted by    0.09743

 ITERATION  ENERGY          1e-ENERGY        2e-ENERGY     RMS[dD(SAO)]   TOL
  42  -5064.8173600462    -38066.545105     17369.161541    0.416D-06 0.399D-14
                            Exc = -581.699525215     Coul =  17950.8610658    
                              N = 623.99633908    
                            current damping = 0.050
 
          Norm of current diis error: 0.61251E-03
          max. resid. norm for Fia-block=  4.545D-05 for orbital    312a         
          max. resid. fock norm         =  6.487D-05 for orbital    314a         
          irrep a   : virtual orbitals shifted by    0.09742

 ITERATION  ENERGY          1e-ENERGY        2e-ENERGY     RMS[dD(SAO)]   TOL
  43  -5064.8173603016    -38066.546067     17369.162502    0.393D-06 0.399D-14
                            Exc = -581.699547827     Coul =  17950.8620500    
                              N = 623.99633908    
                            current damping = 0.050
 
          Norm of current diis error: 0.57743E-03
          max. resid. norm for Fia-block=  4.282D-05 for orbital    312a         
          max. resid. fock norm         =  6.087D-05 for orbital    314a         
          irrep a   : virtual orbitals shifted by    0.09741

 ITERATION  ENERGY          1e-ENERGY        2e-ENERGY     RMS[dD(SAO)]   TOL
  44  -5064.8173605244    -38066.546145     17369.162580    0.365D-06 0.399D-14
                            Exc = -581.699544185     Coul =  17950.8621241    
                              N = 623.99633909    
                            current damping = 0.050
 
          Norm of current diis error: 0.53476E-03
          max. resid. norm for Fia-block=  4.005D-05 for orbital    312a         
          max. resid. fock norm         =  5.695D-05 for orbital    314a         
          irrep a   : virtual orbitals shifted by    0.09741

 ITERATION  ENERGY          1e-ENERGY        2e-ENERGY     RMS[dD(SAO)]   TOL
  45  -5064.8173607179    -38066.546787     17369.163221    0.341D-06 0.399D-14
                            Exc = -581.699551121     Coul =  17950.8627722    
                              N = 623.99633909    
                            current damping = 0.050
 
          Norm of current diis error: 0.49503E-03
          max. resid. norm for Fia-block=  3.739D-05 for orbital    312a         
          max. resid. fock norm         =  5.334D-05 for orbital    314a         
          irrep a   : virtual orbitals shifted by    0.09740
          mo-orthogonalization: Cholesky decomposition

 ITERATION  ENERGY          1e-ENERGY        2e-ENERGY     RMS[dD(SAO)]   TOL
  46  -5064.8173608895    -38066.547034     17369.163468    0.321D-06 0.399D-14
                            Exc = -581.699558595     Coul =  17950.8630271    
                              N = 623.99633909    
                            current damping = 0.050
 
          Norm of current diis error: 0.46604E-03
          max. resid. norm for Fia-block=  3.508D-05 for orbital    312a         
          max. resid. fock norm         =  5.011D-05 for orbital    314a         
          irrep a   : virtual orbitals shifted by    0.09740

 ITERATION  ENERGY          1e-ENERGY        2e-ENERGY     RMS[dD(SAO)]   TOL
  47  -5064.8173610379    -38066.547519     17369.163953    0.298D-06 0.399D-14
                            Exc = -581.699566513     Coul =  17950.8635196    
                              N = 623.99633910    
                            current damping = 0.050
 
          Norm of current diis error: 0.44193E-03
          max. resid. norm for Fia-block=  3.302D-05 for orbital    312a         
          max. resid. fock norm         =  4.702D-05 for orbital    314a         
          irrep a   : virtual orbitals shifted by    0.09739

 ITERATION  ENERGY          1e-ENERGY        2e-ENERGY     RMS[dD(SAO)]   TOL
  48  -5064.8173611690    -38066.547723     17369.164158    0.279D-06 0.399D-14
                            Exc = -581.699564564     Coul =  17950.8637221    
                              N = 623.99633910    
                            current damping = 0.050
 
          Norm of current diis error: 0.41053E-03
          max. resid. norm for Fia-block=  3.081D-05 for orbital    312a         
          max. resid. fock norm         =  4.402D-05 for orbital    314a         
          irrep a   : virtual orbitals shifted by    0.09739

 ITERATION  ENERGY          1e-ENERGY        2e-ENERGY     RMS[dD(SAO)]   TOL
  49  -5064.8173612845    -38066.548302     17369.164736    0.263D-06 0.399D-14
                            Exc = -581.699575847     Coul =  17950.8643121    
                              N = 623.99633910    
                            current damping = 0.050
 
          Norm of current diis error: 0.39023E-03
          max. resid. norm for Fia-block=  2.898D-05 for orbital    312a         
          max. resid. fock norm         =  4.133D-05 for orbital    314a         
          irrep a   : virtual orbitals shifted by    0.09738

 ITERATION  ENERGY          1e-ENERGY        2e-ENERGY     RMS[dD(SAO)]   TOL
  50  -5064.8173613857    -38066.548258     17369.164692    0.245D-06 0.399D-14
                            Exc = -581.699577275     Coul =  17950.8642688    
                              N = 623.99633911    
                            current damping = 0.100
 
          Norm of current diis error: 0.36152E-03
          max. resid. norm for Fia-block=  2.715D-05 for orbital    312a         
          max. resid. fock norm         =  3.868D-05 for orbital    314a         
          irrep a   : virtual orbitals shifted by    0.09725
          mo-orthogonalization: Cholesky decomposition

 ITERATION  ENERGY          1e-ENERGY        2e-ENERGY     RMS[dD(SAO)]   TOL
  51  -5064.8173614748    -38066.548774     17369.165207    0.229D-06 0.399D-14
                            Exc = -581.699582446     Coul =  17950.8647898    
                              N = 623.99633911    
                            current damping = 0.150
 
          Norm of current diis error: 0.32901E-03
          max. resid. norm for Fia-block=  2.537D-05 for orbital    312a         
          max. resid. fock norm         =  3.621D-05 for orbital    314a         
          irrep a   : virtual orbitals shifted by    0.09713

 ITERATION  ENERGY          1e-ENERGY        2e-ENERGY     RMS[dD(SAO)]   TOL
  52  -5064.8173615527    -38066.548870     17369.165304    0.215D-06 0.399D-14
                            Exc = -581.699583015     Coul =  17950.8648870    
                              N = 623.99633911    
                            current damping = 0.050
 
          Norm of current diis error: 0.30835E-03
          max. resid. norm for Fia-block=  2.377D-05 for orbital    312a         
          max. resid. fock norm         =  3.404D-05 for orbital    314a         
          irrep a   : virtual orbitals shifted by    0.09737

 ITERATION  ENERGY          1e-ENERGY        2e-ENERGY     RMS[dD(SAO)]   TOL
  53  -5064.8173616206    -38066.549144     17369.165577    0.201D-06 0.399D-14
                            Exc = -581.699591337     Coul =  17950.8651687    
                              N = 623.99633911    
                            current damping = 0.050
 
          Norm of current diis error: 0.30111E-03
          max. resid. norm for Fia-block=  2.238D-05 for orbital    312a         
          max. resid. fock norm         =  3.201D-05 for orbital    314a         
          irrep a   : virtual orbitals shifted by    0.09737

 ITERATION  ENERGY          1e-ENERGY        2e-ENERGY     RMS[dD(SAO)]   TOL
  54  -5064.8173616812    -38066.549322     17369.165755    0.188D-06 0.399D-14
                            Exc = -581.699590421     Coul =  17950.8653458    
                              N = 623.99633912    
                            current damping = 0.050
 
          Norm of current diis error: 0.27565E-03
          max. resid. norm for Fia-block=  2.090D-05 for orbital    312a         
          max. resid. fock norm         =  2.993D-05 for orbital    314a         
          irrep a   : virtual orbitals shifted by    0.09737

 ITERATION  ENERGY          1e-ENERGY        2e-ENERGY     RMS[dD(SAO)]   TOL
  55  -5064.8173617335    -38066.549666     17369.166100    0.177D-06 0.399D-14
                            Exc = -581.699595469     Coul =  17950.8656954    
                              N = 623.99633912    
                            current damping = 0.050
 
          Norm of current diis error: 0.26421E-03
          max. resid. norm for Fia-block=  1.964D-05 for orbital    312a         
          max. resid. fock norm         =  2.815D-05 for orbital    314a         
          irrep a   : virtual orbitals shifted by    0.09736
          mo-orthogonalization: Cholesky decomposition

 ITERATION  ENERGY          1e-ENERGY        2e-ENERGY     RMS[dD(SAO)]   TOL
  56  -5064.8173617797    -38066.549609     17369.166042    0.166D-06 0.399D-14
                            Exc = -581.699596970     Coul =  17950.8656390    
                              N = 623.99633912    
                            current damping = 0.100
 
          Norm of current diis error: 0.24569E-03
          max. resid. norm for Fia-block=  1.842D-05 for orbital    312a         
          max. resid. fock norm         =  2.638D-05 for orbital    314a         
          irrep a   : virtual orbitals shifted by    0.09724

 ITERATION  ENERGY          1e-ENERGY        2e-ENERGY     RMS[dD(SAO)]   TOL
  57  -5064.8173618202    -38066.549986     17369.166419    0.155D-06 0.399D-14
                            Exc = -581.699601820     Coul =  17950.8660211    
                              N = 623.99633912    
                            current damping = 0.150
 
          Norm of current diis error: 0.22338E-03
          max. resid. norm for Fia-block=  1.723D-05 for orbital    312a         
          max. resid. fock norm         =  2.469D-05 for orbital    314a         
          irrep a   : virtual orbitals shifted by    0.09711

 ITERATION  ENERGY          1e-ENERGY        2e-ENERGY     RMS[dD(SAO)]   TOL
  58  -5064.8173618561    -38066.550020     17369.166453    0.145D-06 0.399D-14
                            Exc = -581.699600615     Coul =  17950.8660539    
                              N = 623.99633912    
                            current damping = 0.050
 
          Norm of current diis error: 0.20760E-03
          max. resid. norm for Fia-block=  1.614D-05 for orbital    312a         
          max. resid. fock norm         =  2.322D-05 for orbital    314a         
          irrep a   : virtual orbitals shifted by    0.09736

 ITERATION  ENERGY          1e-ENERGY        2e-ENERGY     RMS[dD(SAO)]   TOL
  59  -5064.8173618870    -38066.550190     17369.166623    0.136D-06 0.399D-14
                            Exc = -581.699606491     Coul =  17950.8662300    
                              N = 623.99633912    
                            current damping = 0.050
 
          Norm of current diis error: 0.20530E-03
          max. resid. norm for Fia-block=  1.520D-05 for orbital    312a         
          max. resid. fock norm         =  2.187D-05 for orbital    314a         
          irrep a   : virtual orbitals shifted by    0.09736

 ITERATION  ENERGY          1e-ENERGY        2e-ENERGY     RMS[dD(SAO)]   TOL
  60  -5064.8173619144    -38066.550322     17369.166756    0.127D-06 0.399D-14
                            Exc = -581.699606315     Coul =  17950.8663619    
                              N = 623.99633913    
                            current damping = 0.050
 
          Norm of current diis error: 0.18600E-03
          max. resid. norm for Fia-block=  1.418D-05 for orbital    312a         
          max. resid. fock norm         =  2.041D-05 for orbital    314a         
          irrep a   : virtual orbitals shifted by    0.09735
          mo-orthogonalization: Cholesky decomposition

 ITERATION  ENERGY          1e-ENERGY        2e-ENERGY     RMS[dD(SAO)]   TOL
  61  -5064.8173619390    -38066.550517     17369.166950    0.120D-06 0.399D-14
                            Exc = -581.699609169     Coul =  17950.8665591    
                              N = 623.99633913    
                            current damping = 0.050
 
          Norm of current diis error: 0.17923E-03
          max. resid. norm for Fia-block=  1.334D-05 for orbital    312a         
          max. resid. fock norm         =  1.924D-05 for orbital    314a         
          irrep a   : virtual orbitals shifted by    0.09735

 ITERATION  ENERGY          1e-ENERGY        2e-ENERGY     RMS[dD(SAO)]   TOL
  62  -5064.8173619605    -38066.550489     17369.166922    0.112D-06 0.399D-14
                            Exc = -581.699609847     Coul =  17950.8665316    
                              N = 623.99633913    
                            current damping = 0.100
 
          Norm of current diis error: 0.16792E-03
          max. resid. norm for Fia-block=  1.252D-05 for orbital    312a         
          max. resid. fock norm         =  1.804D-05 for orbital    314a         
          irrep a   : virtual orbitals shifted by    0.09722

 ITERATION  ENERGY          1e-ENERGY        2e-ENERGY     RMS[dD(SAO)]   TOL
  63  -5064.8173619797    -38066.550743     17369.167176    0.105D-06 0.399D-14
                            Exc = -581.699613546     Coul =  17950.8667898    
                              N = 623.99633913    
                            current damping = 0.150
 
          Norm of current diis error: 0.15132E-03
          max. resid. norm for Fia-block=  1.169D-05 for orbital    312a         
          max. resid. fock norm         =  1.688D-05 for orbital    314a         
          irrep a   : virtual orbitals shifted by    0.09710

 DENSITY CONVERGED !


 ITERATION  ENERGY          1e-ENERGY        2e-ENERGY     RMS[dD(SAO)]   TOL
  64  -5064.8173619955    -38066.550738     17369.167171    0.987D-07 0.399D-14
                            Exc = -581.699612588     Coul =  17950.8667840    
                              N = 623.99633913    
                            current damping = 0.200
 
          Norm of current diis error: 0.14149E-03
          max. resid. norm for Fia-block=  1.097D-05 for orbital    312a         
          max. resid. fock norm         =  1.589D-05 for orbital    314a         
          irrep a   : virtual orbitals shifted by    0.09697

 DENSITY CONVERGED !


 ITERATION  ENERGY          1e-ENERGY        2e-ENERGY     RMS[dD(SAO)]   TOL
  65  -5064.8173620109    -38066.550879     17369.167312    0.919D-07 0.399D-14
                            Exc = -581.699616016     Coul =  17950.8669279    
                              N = 623.99633913    
                            current damping = 0.250
 
          Norm of current diis error: 0.13365E-03
          max. resid. norm for Fia-block=  1.032D-05 for orbital    312a         
          max. resid. fock norm         =  1.492D-05 for orbital    314a         
          irrep a   : virtual orbitals shifted by    0.09684
          mo-orthogonalization: Cholesky decomposition

 DENSITY CONVERGED !


 ITERATION  ENERGY          1e-ENERGY        2e-ENERGY     RMS[dD(SAO)]   TOL
  66  -5064.8173620231    -38066.550947     17369.167381    0.861D-07 0.399D-14
                            Exc = -581.699616408     Coul =  17950.8669969    
                              N = 623.99633913    
                            current damping = 0.100
 
          Norm of current diis error: 0.12240E-03
          max. resid. norm for Fia-block=  9.622D-06 for orbital    312a         
          max. resid. fock norm         =  1.395D-05 for orbital    314a         
          irrep a   : virtual orbitals shifted by    0.09722

 DENSITY CONVERGED !


 ITERATION  ENERGY          1e-ENERGY        2e-ENERGY     RMS[dD(SAO)]   TOL
  67  -5064.8173620341    -38066.551054     17369.167487    0.817D-07 0.399D-14
                            Exc = -581.699618406     Coul =  17950.8671057    
                              N = 623.99633913    
                            current damping = 0.050
 
          Norm of current diis error: 0.12251E-03
          max. resid. norm for Fia-block=  9.089D-06 for orbital    312a         
          max. resid. fock norm         =  1.320D-05 for orbital    314a         
          irrep a   : virtual orbitals shifted by    0.09734

 DENSITY CONVERGED !


 ITERATION  ENERGY          1e-ENERGY        2e-ENERGY     RMS[dD(SAO)]   TOL
  68  -5064.8173620449    -38066.551059     17369.167493    0.763D-07 0.399D-14
                            Exc = -581.699618317     Coul =  17950.8671109    
                              N = 623.99633913    
                            current damping = 0.050
 
          Norm of current diis error: 0.11388E-03
          max. resid. norm for Fia-block=  8.524D-06 for orbital    312a         
          max. resid. fock norm         =  1.235D-05 for orbital    314a         
          irrep a   : virtual orbitals shifted by    0.09734

 DENSITY CONVERGED !


 ITERATION  ENERGY          1e-ENERGY        2e-ENERGY     RMS[dD(SAO)]   TOL
  69  -5064.8173620524    -38066.551213     17369.167647    0.718D-07 0.399D-14
                            Exc = -581.699620893     Coul =  17950.8672676    
                              N = 623.99633913    
                            current damping = 0.050
 
          Norm of current diis error: 0.10438E-03
          max. resid. norm for Fia-block=  7.927D-06 for orbital    312a         
          max. resid. fock norm         =  1.158D-05 for orbital    314a         
          irrep a   : virtual orbitals shifted by    0.09734

 DENSITY CONVERGED !


 ITERATION  ENERGY          1e-ENERGY        2e-ENERGY     RMS[dD(SAO)]   TOL
  70  -5064.8173620613    -38066.551190     17369.167623    0.674D-07 0.399D-14
                            Exc = -581.699620405     Coul =  17950.8672435    
                              N = 623.99633914    
                            current damping = 0.100
 
          Norm of current diis error: 0.99524E-04
          max. resid. norm for Fia-block=  7.480D-06 for orbital    312a         
          max. resid. fock norm         =  1.093D-05 for orbital    314a         
          irrep a   : virtual orbitals shifted by    0.09721
          mo-orthogonalization: Cholesky decomposition

 DENSITY CONVERGED !


 ITERATION  ENERGY          1e-ENERGY        2e-ENERGY     RMS[dD(SAO)]   TOL
  71  -5064.8173620679    -38066.551315     17369.167748    0.628D-07 0.399D-14
                            Exc = -581.699622557     Coul =  17950.8673709    
                              N = 623.99633914    
                            current damping = 0.150
 
          Norm of current diis error: 0.92185E-04
          max. resid. norm for Fia-block=  7.029D-06 for orbital    312a         
          max. resid. fock norm         =  1.025D-05 for orbital    314a         
          irrep a   : virtual orbitals shifted by    0.09709

 DENSITY CONVERGED !


 ITERATION  ENERGY          1e-ENERGY        2e-ENERGY     RMS[dD(SAO)]   TOL
  72  -5064.8173620749    -38066.551341     17369.167774    0.590D-07 0.399D-14
                            Exc = -581.699622651     Coul =  17950.8673966    
                              N = 623.99633914    
                            current damping = 0.050
 
          Norm of current diis error: 0.84791E-04
          max. resid. norm for Fia-block=  6.541D-06 for orbital    312a         
          max. resid. fock norm         =  9.599D-06 for orbital    314a         
          irrep a   : virtual orbitals shifted by    0.09734

 DENSITY CONVERGED !


 ITERATION  ENERGY          1e-ENERGY        2e-ENERGY     RMS[dD(SAO)]   TOL
  73  -5064.8173620795    -38066.551416     17369.167849    0.558D-07 0.399D-14
                            Exc = -581.699624347     Coul =  17950.8674730    
                              N = 623.99633914    
                            current damping = 0.050
 
          Norm of current diis error: 0.84352E-04
          max. resid. norm for Fia-block=  6.195D-06 for orbital    312a         
          max. resid. fock norm         =  9.077D-06 for orbital    314a         
          irrep a   : virtual orbitals shifted by    0.09734

 DENSITY CONVERGED !


 ITERATION  ENERGY          1e-ENERGY        2e-ENERGY     RMS[dD(SAO)]   TOL
  74  -5064.8173620843    -38066.551427     17369.167860    0.521D-07 0.399D-14
                            Exc = -581.699624217     Coul =  17950.8674840    
                              N = 623.99633914    
                            current damping = 0.050
 
          Norm of current diis error: 0.77246E-04
          max. resid. norm for Fia-block=  5.806D-06 for orbital    312a         
          max. resid. fock norm         =  8.478D-06 for orbital    314a         
          irrep a   : virtual orbitals shifted by    0.09734

 DENSITY CONVERGED !


 ITERATION  ENERGY          1e-ENERGY        2e-ENERGY     RMS[dD(SAO)]   TOL
  75  -5064.8173620889    -38066.551519     17369.167952    0.491D-07 0.399D-14
                            Exc = -581.699625661     Coul =  17950.8675778    
                              N = 623.99633914    
                            current damping = 0.050
 
          Norm of current diis error: 0.71493E-04
          max. resid. norm for Fia-block=  5.388D-06 for orbital    312a         
          max. resid. fock norm         =  7.965D-06 for orbital    314a         
          irrep a   : virtual orbitals shifted by    0.09734
          mo-orthogonalization: Cholesky decomposition

 DENSITY CONVERGED !


 ITERATION  ENERGY          1e-ENERGY        2e-ENERGY     RMS[dD(SAO)]   TOL
  76  -5064.8173620916    -38066.551495     17369.167928    0.460D-07 0.399D-14
                            Exc = -581.699625515     Coul =  17950.8675533    
                              N = 623.99633914    
                            current damping = 0.100
 
          Norm of current diis error: 0.68971E-04
          max. resid. norm for Fia-block=  5.100D-06 for orbital    312a         
          max. resid. fock norm         =  7.520D-06 for orbital    314a         
          irrep a   : virtual orbitals shifted by    0.09721

 DENSITY CONVERGED !


 ITERATION  ENERGY          1e-ENERGY        2e-ENERGY     RMS[dD(SAO)]   TOL
  77  -5064.8173620955    -38066.551593     17369.168026    0.430D-07 0.399D-14
                            Exc = -581.699626957     Coul =  17950.8676529    
                              N = 623.99633914    
                            current damping = 0.150
 
          Norm of current diis error: 0.62669E-04
          max. resid. norm for Fia-block=  4.785D-06 for orbital    312a         
          max. resid. fock norm         =  7.037D-06 for orbital    314a         
          irrep a   : virtual orbitals shifted by    0.09708

 ENERGY & DENSITY CONVERGED !


 ITERATION  ENERGY          1e-ENERGY        2e-ENERGY     RMS[dD(SAO)]   TOL
  78  -5064.8177598413    -38066.551593     17369.167629    0.404D-07 0.399D-14
                            Exc = -581.700024623     Coul =  17950.8676532    
                              N = 624.00020565    
                            current damping = 0.200
 
          Norm of current diis error: 0.58062E-04
          max. resid. norm for Fia-block=  4.449D-06 for orbital    312a         
          max. resid. fock norm         =  6.612D-06 for orbital    314a         

 End of SCF iterations

   convergence criteria satisfied after   78 iterations


                  ------------------------------------------ 
                 |  total energy      =  -5064.81775984131  |
                  ------------------------------------------ 
                 :  kinetic energy    =   5047.69730652962  :
                 :  potential energy  = -10112.51506637093  :
                 :  virial theorem    =      1.99661972965  :
                 :  wavefunction norm =      1.00000000000  :
                  .......................................... 


 <geterg> : there is no data group $energy 


 <skperg> : $end is missing 


 orbitals $scfmo  will be written to file mos

    irrep                308a        309a        310a        311a        312a   
 eigenvalues H         -0.16659    -0.16617    -0.16574    -0.16538    -0.16496
            eV          -4.5332     -4.5218     -4.5101     -4.5002     -4.4889
 occupation              2.0000      2.0000      2.0000      2.0000      2.0000 

    irrep                313a        314a        315a        316a        317a   
 eigenvalues H         -0.16243    -0.16089    -0.14676    -0.14643    -0.13790
            eV          -4.4199     -4.3781     -3.9937     -3.9845     -3.7525
 
 
 ! grave: sending quit signal to master process
 
 
 
 
 ==============================================================================
                           electrostatic moments
 ==============================================================================

 reference point for electrostatic moments:    0.00000   0.00000   0.00000

 
              nuc           elec       ->  total
 ------------------------------------------------------------------------------
                          charge      
 ------------------------------------------------------------------------------
         624.000000    -624.000000       0.000000
 
 ------------------------------------------------------------------------------
                       dipole moment  
 ------------------------------------------------------------------------------
   x      -3.343631       3.187290      -0.156342
   y       2.154204      -2.256075      -0.101871
   z       7.535677      -7.694953      -0.159277
 
   | dipole moment | =     0.2453 a.u. =     0.6236 debye 
 
 ------------------------------------------------------------------------------
                     quadrupole moment
 ------------------------------------------------------------------------------
  xx    6173.325175   -6638.852649    -465.527474
  yy   18023.606060  -18448.044859    -424.438800
  zz   89751.564657  -90456.659791    -705.095134
  xy    -142.157929     139.578413      -2.579515
  xz   -8833.157705    9126.967387     293.809682
  yz    -650.461897     657.140055       6.678159
 
     1/3  trace=    -531.687136
     anisotropy=     572.757020
 
 ==============================================================================
 

    ridft profiling
  --------------------------------------------------------------------
             module   cpu total (s)       %  wall total (s)       %

               RIDFT         44628.4  100.00         44966.7  100.00
         Ridft_b_scf           438.3    0.98           438.3    0.97
        b_scf_prelim             0.0    0.00             0.0    0.00
        b_scf_molinp             0.0    0.00             0.0    0.00
         b_scf_init0             0.0    0.00             0.0    0.00
        b_scf_auxbas             0.0    0.00             0.0    0.00
      b_scf_symmetry             0.0    0.00             0.0    0.00
         b_scf_cosmo             0.0    0.00             0.0    0.00
        b_scf_params            42.7    0.10            42.7    0.09
          b_scf_ri-j           166.0    0.37           166.0    0.37
    b_scf_ri-j_auxpq           165.8    0.37           165.8    0.37
     ri-j_auxpq_chol             6.7    0.01             6.7    0.01
         b_scf_1elec            23.0    0.05            23.0    0.05
       b_scf_moinput           206.6    0.46           206.6    0.46
     moinput_orthmos           155.6    0.35           155.5    0.35
    b_scf_dft-dstmax             0.0    0.00             0.0    0.00
           Ridft_scf         44183.9   99.00         44522.1   99.01
          Scf_b_loop             0.0    0.00             0.0    0.00
                noga             0.0    0.00             0.0    0.00
            Scf_loop         44158.7   98.95         44492.5   98.95
     scf_loop_mkdmat           405.3    0.91           405.6    0.90
       scf_loop_ri-j         14151.6   31.71         14149.8   31.47
      parlp1.bc.dens            13.9    0.03            13.9    0.03
        parlp1.gs.gp           105.6    0.24           105.6    0.23
        parlp2.bc.gq             0.0    0.00             0.0    0.00
        scf_loop_dft         14593.8   32.70         14598.6   32.47
      pardft.bc.dens             0.0    0.00             0.0    0.00
        dft_grid_con            10.7    0.02            10.8    0.02
           dft_xcrhf         14303.8   32.05         14308.4   31.82
          dft_getval           524.9    1.18           525.2    1.17
          funct2 dst             7.6    0.02             7.4    0.02
      funct2 f2loop1            95.5    0.21            95.5    0.21
      funct2 f2loop2           284.2    0.64           284.8    0.63
          funct2 s+c           132.7    0.30           132.9    0.30
        funct2 cmf_2           118.6    0.27           118.7    0.26
          dft_mkdens          5250.1   11.76          5252.3   11.68
         dft_gga-fun             3.9    0.01             3.9    0.01
          dft_mkfock          8519.5   19.09          8522.2   18.95
     pardft.red.fock           500.8    1.12           501.2    1.11
     scf_loop_energy             1.8    0.00             1.8    0.00
     scf_loop_mkfock             3.4    0.01             3.4    0.01
       scf_loop_diis          6967.0   15.61          6966.2   15.49
       scf_loop_diag          4503.5   10.09          4505.4   10.02
         diag_tritrn          1431.2    3.21          1431.8    3.18
          diag_rdiag          3059.5    6.86          3060.9    6.81
     scf_loop_modump          1872.5    4.20          2202.1    4.90
      scf_loop_ortho          1583.1    3.55          1583.0    3.52
          Scf_a_loop            25.2    0.06            29.5    0.07
         Ridft_a_scf             6.2    0.01             6.3    0.01
         a_scf_fanal             6.1    0.01             6.1    0.01
 


    ------------------------------------------------------------------------
         total  cpu-time : 12 hours 24 minutes and 24 seconds
         total wall-time : 12 hours 30 minutes and  2 seconds
    ------------------------------------------------------------------------


   ****  ridft : all done  ****


    2017-11-09 06:10:47.588 

