STARTING dscf ON 32 PROCESSORS!
RUNNING PROGRAM /beegfs/modfac/apps/TURBOMOLE/7.2.1-official/bin/em64t-unknown-linux-gnu_mpi/dscf_mpi.
PLEASE WAIT UNTIL dscf HAS FINISHED.
Look for the output in slave1.output.
MACHINEFILE is ./hostlist
 this is node-proc. number 1 running on node c-4-3.local
 the total number of node-proc. spawned is  33
  parallel platform: MPP or cluster with fast interconnect

 dscf (c-4-3.local) : TURBOMOLE V7.2 ( 21471 ) 7 Nov 2017 at 16:15:16
 Copyright (C) 2017 TURBOMOLE GmbH, Karlsruhe


    2018-02-19 18:27:44.843 


 SCF run will be profiled !



                             d s c f - program

                   idea & directorship : reinhart ahlrichs
                   program development : marco haeser
                                         michael baer
                           dft version : oliver treutler
           parallelized version : malte v. arnim, gina corongiu, GMD 


                          quantum chemistry group
                          universitaet  karlsruhe
                                  germany




                          References             
                                                 
          TURBOMOLE:                             
              R. Ahlrichs, M. Baer, M. Haeser, H. Horn, and
              C. Koelmel
              Electronic structure calculations on workstation
              computers: the program system TURBOMOLE
              Chem. Phys. Lett. 162: 165 (1989)
          Density Functional:                              
              O. Treutler and R. Ahlrichs                      
              Efficient Molecular Numerical Integration Schemes
              J. Chem. Phys. 102: 346 (1995)                   
          Parallel Version:                                
              Performance of parallel TURBOMOLE for Density    
              Functional Calculations                          
              M. v. Arnim and R. Ahlrichs                      
              J. Comp. Chem. 19: 1746 (1998)                   
                                         




              +--------------------------------------------------+
              | Atomic coordinate, charge and isotop information |
              +--------------------------------------------------+

                    atomic coordinates            atom    charge  isotop
          1.47196811   -1.86848036   -8.95518126    c      6.000     0
          2.29238430    2.36782832   -8.62296945    c      6.000     0
         -0.83269970   -0.55180433   -9.27896372    c      6.000     0
         -0.32736907    2.06501608   -9.07310178    c      6.000     0
          3.40238123   -0.06421552   -8.54018425    c      6.000     0
         -3.17627021   -1.65580103   -8.88876123    c      6.000     0
         -2.16060394    3.83039748   -8.44621261    c      6.000     0
          1.66818139   -4.37395809   -8.21335678    c      6.000     0
          3.32299130    4.51158891   -7.52354761    c      6.000     0
          5.67552383   -0.56730860   -7.33633322    c      6.000     0
          5.87616619    4.11964842   -6.57718596    c      6.000     0
          4.20841006   -5.06686530   -7.44264075    c      6.000     0
         -4.70735838    2.80673494   -8.51536936    c      6.000     0
         -5.19822113    0.18036242   -8.56507956    c      6.000     0
         -3.04528916   -4.38316550   -8.61798799    c      6.000     0
         -1.10696501    6.22523884   -7.59583483    c      6.000     0
         -0.75531554   -5.66891070   -8.12348814    c      6.000     0
          1.52749423    6.57851354   -7.31713208    c      6.000     0
          6.14157074   -8.60084304   -4.25356304    c      6.000     0
          9.17981129    5.21620448   -2.62548068    c      6.000     0
          6.07924720   -3.24966685   -6.86418050    c      6.000     0
          7.03389432    1.71109951   -6.62484464    c      6.000     0
          7.87357466   -6.79491205   -3.40651793    c      6.000     0
         10.41571202    2.90225688   -2.93064839    c      6.000     0
         -9.02992579    3.90881616   -5.99137512    c      6.000     0
         -9.48499554    1.31860859   -5.75331147    c      6.000     0
         -5.93242750   -7.79904374   -6.13828358    c      6.000     0
         -1.58120953   10.10491523   -4.07726456    c      6.000     0
         -3.71651613   -8.99435180   -5.34067377    c      6.000     0
          1.02091812   10.55498186   -4.11299880    c      6.000     0
         -3.70062764  -10.36040849   -3.07738833    c      6.000     0
          2.21332825   11.68536108   -2.04643808    c      6.000     0
         -3.01292209   10.82503072   -1.97555398    c      6.000     0
         -8.12151385   -7.91449618   -4.66836397    c      6.000     0
        -10.92615610    0.41517518   -3.72912132    c      6.000     0
         -9.96387225    5.60254648   -4.19426702    c      6.000     0
          5.40438253  -10.59068716   -2.68307755    c      6.000     0
          9.31933651    6.48714218   -0.31178830    c      6.000     0
          8.91781767   -7.01031331   -0.98780118    c      6.000     0
         11.75130533    1.82315755   -0.92496869    c      6.000     0
         10.73861358    5.46083547    1.65610150    c      6.000     0
          6.49678069  -10.82827150   -0.29615734    c      6.000     0
          8.25832245   -9.05164919    0.54144338    c      6.000     0
         11.93828924    3.13007764    1.35620050    c      6.000     0
        -11.93489824    2.11397082   -1.98782252    c      6.000     0
        -11.44523089    4.69811631   -2.21168724    c      6.000     0
         -1.83710743   12.03308399    0.04788371    c      6.000     0
         -8.10831238   -9.31789760   -2.43838714    c      6.000     0
         -5.90768907  -10.54598561   -1.65277144    c      6.000     0
          0.76837461   12.45596663    0.01729342    c      6.000     0
          7.55003503    6.65665610   -5.16761445    s     16.000     0
          5.02139032   -8.30932055   -7.38255204    s     16.000     0
         -8.34259492   -0.85195031   -8.03158400    s     16.000     0
         -7.29464587    4.92191588   -8.65764300    s     16.000     0
         -0.92465936   -8.88238093   -7.18698146    s     16.000     0
          2.68850977    9.68523152   -6.86828286    s     16.000     0
         -5.83235443   -6.18039006   -9.05502758    s     16.000     0
         -3.13866991    8.73573088   -6.70588781    s     16.000     0
          8.89895234   -4.30007297   -5.39007128    s     16.000     0
         10.30070969    1.47989545   -5.94713690    s     16.000     0
         10.23049320   -5.58269195   -0.31853914    h      1.000     0
         12.65382913   -0.00174400   -1.17541946    h      1.000     0
         -1.96399045  -11.24605416   -2.43842444    h      1.000     0
          4.24408719   11.97216151   -2.08303894    h      1.000     0
         -9.54590362    7.60246883   -4.37558665    h      1.000     0
        -11.23188957   -1.60285325   -3.52185806    h      1.000     0
         -9.80877082   -6.92614166   -5.28759878    h      1.000     0
         -5.02428054   10.42339876   -1.93061810    h      1.000     0
          8.31838214    8.26108966   -0.06677109    h      1.000     0
          4.01522629  -11.94421365   -3.35074951    h      1.000     0
          9.08169904   -9.22116715    2.41302596    h      1.000     0
         13.00207849    2.31491749    2.90982205    h      1.000     0
         10.85729929    6.45680509    3.44586710    h      1.000     0
          5.95634315  -12.39126578    0.91836193    h      1.000     0
        -12.19908945    6.01000643   -0.82572254    h      1.000     0
        -13.05961668    1.41179184   -0.42228647    h      1.000     0
         -9.81150103   -9.43506501   -1.30005183    h      1.000     0
         -2.95174002   12.59985992    1.67426549    h      1.000     0
          1.68035037   13.36225354    1.61639387    h      1.000     0
         -5.89347655  -11.60913836    0.10158531    h      1.000     0
 
       center of nuclear mass  :    0.64679301    0.22713068   -5.41522216
       center of nuclear charge:    0.63182498    0.22287770   -5.31711815

              +--------------------------------------------------+
              |               basis set information              |
              +--------------------------------------------------+

              we will work with the 1s 3p 5d 7f 9g ... basis set
              ...i.e. with spherical basis functions...

   type   atoms  prim   cont   basis
   ---------------------------------------------------------------------------
    c       50     50     30   cc-pVTZ   [4s3p2d1f|18s5p2d1f]
    s       10    106     34   cc-pVTZ   [5s4p2d1f|41s16p2d1f]
    h       20     16     14   cc-pVTZ   [3s2p1d|5s2p1d]
   ---------------------------------------------------------------------------
   total:   80   3880   2120
   ---------------------------------------------------------------------------

   total number of primitive shells          :   94
   total number of contracted shells         :  740
   total number of cartesian basis functions : 2440
   total number of SCF-basis functions       : 2120


 integral neglect threshold       :  0.14E-11
 integral storage threshold THIZE :  0.10E-04
 integral storage threshold THIME :         5


 DENSITY CONVERGENCE CHECK SWITCHED ON !
 SCF CONVERGENCE IF RMS(delta[D]) <     0.1000000000E-06


 symmetry group of the molecule :   c1 

 the group has the following generators :
   c1(z)

    1 symmetry operations found

 there are 1 real representations :   a   

 maximum number of shells which are related by symmetry :  1


    mo occupation :
   irrep   mo's   occupied
    a     2120      240
 
 number of basis functions   :                   2120
 number of occupied orbitals :                    240
 

 automatic virtual orbital shift switched on 
      shift if e(lumo)-e(homo) < 0.10000000    


 keyword $2e-ints_shell_statistics missing in file <control>

 ! One task per shell generated
  No pre-computed optimal task distribution found
  ... using automatic task generation

          ------------------------
          nuclear repulsion energy  :   11019.9136690    
          ------------------------


         -----------------
         -S,T+V- integrals
         -----------------

 1e-integrals will be neglected if expon. factor < 0.136966E-12
 
   Difference densities algorithm switched on.
   The maximal number of linear combinations of
   difference densities is                    20 .

 DIIS switched on: error vector is FDS-SDF
 Max. Iterations for DIIS is     :   5
 DIIS matrix (see manual) 
    Scaling factor of diagonals  :  1.200
    threshold for scaling factor :  0.000

 scf convergence criterion : increment of total energy < .1000000D-06
                  and increment of one-electron energy < .1000000D-03

  MOs are in ASCII format !


 reading orbital data $scfmo  from file mos
 orbital characterization : expanded
 mo provided and orthogonalized by Cholesky decomposition

 DSCF restart information will be dumped onto file mos

 
                                              current damping :  0.300
 ITERATION  ENERGY          1e-ENERGY        2e-ENERGY     RMS[dD(SAO)]   TOL
   1  -5871.3346190606    -29998.080871     13106.832583    0.000D+00 0.137D-11
          max. resid. norm for Fia-block=  2.033D+00 for orbital      1a         
          max. resid. fock norm         =  4.789D+00 for orbital   2012a         
          Delta Eig. =   286.6353514275 eV 
 
                                              current damping :  0.250
 ITERATION  ENERGY          1e-ENERGY        2e-ENERGY     RMS[dD(SAO)]   TOL
   2  -5879.6731245316    -30055.913648     13156.326854    0.920D-02 0.117D-11
          Norm of current diis error:  5.0014    
          max. resid. norm for Fia-block=  4.597D-01 for orbital     10a         
          max. resid. fock norm         =  5.428D-01 for orbital     10a         
          Delta Eig. =    75.3585602638 eV 
 
                                              current damping :  0.200
 ITERATION  ENERGY          1e-ENERGY        2e-ENERGY     RMS[dD(SAO)]   TOL
   3  -5880.7197649244    -30054.549962     13153.916528    0.155D-02 0.792D-12
          Norm of current diis error:  1.9758    
          max. resid. norm for Fia-block=  9.422D-02 for orbital     10a         
          max. resid. fock norm         =  1.115D-01 for orbital     10a         
          Delta Eig. =    14.5412008278 eV 
 
                                              current damping :  0.250
 ITERATION  ENERGY          1e-ENERGY        2e-ENERGY     RMS[dD(SAO)]   TOL
   4  -5880.9463610995    -30065.685344     13164.825314    0.780D-03 0.687D-12
          Norm of current diis error: 0.61831    
          max. resid. norm for Fia-block=  1.839D-02 for orbital    238a         
          max. resid. fock norm         =  2.263D-02 for orbital    241a         
          Delta Eig. =     2.8069618612 eV 
 
                                              current damping :  0.300
 ITERATION  ENERGY          1e-ENERGY        2e-ENERGY     RMS[dD(SAO)]   TOL
   5  -5880.9808409219    -30063.286845     13162.392335    0.391D-03 0.616D-12
          Norm of current diis error: 0.23688    
          max. resid. norm for Fia-block=  8.629D-03 for orbital    235a         
          max. resid. fock norm         =  1.087D-02 for orbital    241a         
 mo-orthogonalization: Cholesky decomposition
          Delta Eig. =     0.4947197275 eV 
 
                                              current damping :  0.350
 ITERATION  ENERGY          1e-ENERGY        2e-ENERGY     RMS[dD(SAO)]   TOL
   6  -5880.9886855675    -30064.123768     13163.221413    0.175D-03 0.568D-12
          Norm of current diis error: 0.11441    
          max. resid. norm for Fia-block=  5.382D-03 for orbital    209a         
          max. resid. fock norm         =  6.150D-03 for orbital    241a         
          Delta Eig. =     0.1149912029 eV 
 
                                              current damping :  0.400
 ITERATION  ENERGY          1e-ENERGY        2e-ENERGY     RMS[dD(SAO)]   TOL
   7  -5880.9908829805    -30064.117091     13163.212539    0.969D-04 0.526D-12
          Norm of current diis error: 0.51424E-01
          max. resid. norm for Fia-block=  2.929D-03 for orbital    235a         
          max. resid. fock norm         =  3.495D-03 for orbital    241a         
          Delta Eig. =     0.0457571942 eV 
 
                                              current damping :  0.450
 ITERATION  ENERGY          1e-ENERGY        2e-ENERGY     RMS[dD(SAO)]   TOL
   8  -5880.9914079761    -30064.147559     13163.242482    0.453D-04 0.493D-12
          Norm of current diis error: 0.24043E-01
          max. resid. norm for Fia-block=  1.449D-03 for orbital    238a         
          max. resid. fock norm         =  1.673D-03 for orbital    241a         
          Delta Eig. =     0.0227453447 eV 
 
                                              current damping :  0.300
 ITERATION  ENERGY          1e-ENERGY        2e-ENERGY     RMS[dD(SAO)]   TOL
   9  -5880.9915194404    -30064.149158     13163.243970    0.195D-04 0.469D-12
          Norm of current diis error: 0.10672E-01
          max. resid. norm for Fia-block=  7.192D-04 for orbital    238a         
          max. resid. fock norm         =  8.230D-04 for orbital    241a         
          Delta Eig. =     0.0112744268 eV 
 
                                              current damping :  0.150
 ITERATION  ENERGY          1e-ENERGY        2e-ENERGY     RMS[dD(SAO)]   TOL
  10  -5880.9915437584    -30064.164968     13163.259755    0.942D-05 0.450D-12
          Norm of current diis error: 0.45859E-02
          max. resid. norm for Fia-block=  3.070D-04 for orbital    238a         
          max. resid. fock norm         =  3.438D-04 for orbital    241a         
 mo-orthogonalization: Cholesky decomposition
          Delta Eig. =     0.0076522030 eV 
 
                                              current damping :  0.200
 ITERATION  ENERGY          1e-ENERGY        2e-ENERGY     RMS[dD(SAO)]   TOL
  11  -5880.9915479512    -30064.157640     13163.252423    0.417D-05 0.435D-12
          Norm of current diis error: 0.19110E-02
          max. resid. norm for Fia-block=  1.125D-04 for orbital    238a         
          max. resid. fock norm         =  1.310D-04 for orbital    241a         
          Delta Eig. =     0.0038856617 eV 
 
                                              current damping :  0.250
 ITERATION  ENERGY          1e-ENERGY        2e-ENERGY     RMS[dD(SAO)]   TOL
  12  -5880.9915485059    -30064.163586     13163.258368    0.124D-05 0.425D-12
          Norm of current diis error: 0.98885E-03
          max. resid. norm for Fia-block=  5.933D-05 for orbital    238a         
          max. resid. fock norm         =  6.838D-05 for orbital    241a         
          Delta Eig. =     0.0022037567 eV 
 
                                              current damping :  0.300
 ITERATION  ENERGY          1e-ENERGY        2e-ENERGY     RMS[dD(SAO)]   TOL
  13  -5880.9915486606    -30064.161477     13163.256260    0.665D-06 0.416D-12
          Norm of current diis error: 0.49690E-03
          max. resid. norm for Fia-block=  3.873D-05 for orbital    238a         
          max. resid. fock norm         =  4.127D-05 for orbital    241a         
          Delta Eig. =     0.0009501884 eV 
 
                                              current damping :  0.150
 ITERATION  ENERGY          1e-ENERGY        2e-ENERGY     RMS[dD(SAO)]   TOL
  14  -5880.9915487103    -30064.161474     13163.256256    0.368D-06 0.407D-12
          Norm of current diis error: 0.26728E-03
          max. resid. norm for Fia-block=  2.213D-05 for orbital    238a         
          max. resid. fock norm         =  2.331D-05 for orbital    241a         
          Delta Eig. =     0.0004717549 eV 
 
                                              current damping :  0.200
 ITERATION  ENERGY          1e-ENERGY        2e-ENERGY     RMS[dD(SAO)]   TOL
  15  -5880.9915487286    -30064.161669     13163.256451    0.240D-06 0.395D-12
          Norm of current diis error: 0.12277E-03
          max. resid. norm for Fia-block=  9.966D-06 for orbital    237a         
          max. resid. fock norm         =  1.046D-05 for orbital    241a         
 mo-orthogonalization: Cholesky decomposition
          Delta Eig. =     0.0002774299 eV 

 DENSITY CONVERGED !

 
                                              current damping :  0.250
 ITERATION  ENERGY          1e-ENERGY        2e-ENERGY     RMS[dD(SAO)]   TOL
  16  -5880.9915487310    -30064.161368     13163.256150    0.971D-07 0.390D-12
          Norm of current diis error: 0.60518E-04
          max. resid. norm for Fia-block=  5.145D-06 for orbital    237a         
          max. resid. fock norm         =  5.286D-06 for orbital    237a         
          Delta Eig. =     0.0000994795 eV 

 ENERGY & DENSITY CONVERGED !

 
                                              current damping :  0.300
 ITERATION  ENERGY          1e-ENERGY        2e-ENERGY     RMS[dD(SAO)]   TOL
  17  -5880.9915487300    -30064.161487     13163.256270    0.497D-07 0.389D-12
          max. resid. norm for Fia-block=  1.484D-06 for orbital    237a         
          max. resid. fock norm         =  1.673D-06 for orbital    242a         

 convergence criteria satisfied after    17 iterations


                  ------------------------------------------ 
                 |  total energy      =  -5880.99154872996  |
                  ------------------------------------------ 
                 :  kinetic energy    =   5877.94188087293  :
                 :  potential energy  = -11758.93342960289  :
                 :  virial theorem    =      1.99948143645  :
                 :  wavefunction norm =      1.00000000000  :
                  .......................................... 


 <geterg> : there is no data group $energy 


 <skperg> : $end is missing 


 orbitals $scfmo  will be written to file mos

    irrep                236a        237a        238a        239a        240a   
 eigenvalues H         -0.32341    -0.28976    -0.28952    -0.28383    -0.28271
            eV          -8.8006     -7.8849     -7.8782     -7.7235     -7.6930
 occupation              2.0000      2.0000      2.0000      2.0000      2.0000 

    irrep                241a        242a        243a        244a        245a   
 eigenvalues H          0.01786     0.01813     0.07938     0.09838     0.09971
            eV           0.4859      0.4934      2.1602      2.6771      2.7132
 
 
 
 
 ==============================================================================
                           electrostatic moments
 ==============================================================================

 reference point for electrostatic moments:    0.00000   0.00000   0.00000

 
              nuc           elec       ->  total
 ------------------------------------------------------------------------------
                          charge      
 ------------------------------------------------------------------------------
         480.000000    -480.000000      -0.000000
 
 ------------------------------------------------------------------------------
                       dipole moment  
 ------------------------------------------------------------------------------
   x     303.275992    -303.847784      -0.571793
   y     106.981297    -107.158097      -0.176800
   z   -2552.216714    2556.060297       3.843584
 
   | dipole moment | =     3.8899 a.u. =     9.8871 debye 
 
 ------------------------------------------------------------------------------
                     quadrupole moment
 ------------------------------------------------------------------------------
  xx   21797.692874  -22094.742648    -297.049774
  yy   22082.842196  -22379.102670    -296.260474
  zz   18060.564006  -18398.245102    -337.681096
  xy     -18.740439      18.625689      -0.114750
  xz    1194.417140   -1188.788522       5.628618
  yz     333.303071    -331.309455       1.993616
 
     1/3  trace=    -310.330448
     anisotropy=      42.315537
 
 ==============================================================================
 

    dscf profiling
  --------------------------------------------------------------------
             module   cpu total (s)       %  wall total (s)       %

          dscf.total          4216.0  100.00          3864.0  100.00
        dscf.prepare            11.7    0.28            11.7    0.30
      prepare.oneint             0.2    0.00             0.2    0.00
     prepare.moinput             0.4    0.01             0.4    0.01
     moinput_orthmos            10.8    0.26            10.8    0.28
            dscf.scf          4203.1   99.69          3850.7   99.66
             scf.pre             0.0    0.00             0.0    0.00
        scf.makedmat            10.7    0.25            11.0    0.28
          scf.shloop          3507.0   83.18          3505.4   90.72
          shloop_omp          3506.1   83.16          3504.5   90.70
          scf.symcar             1.1    0.03             1.1    0.03
        scf.makefock             2.4    0.06             3.0    0.08
          scf.newerg             0.1    0.00             0.1    0.00
          scf.newcnv           112.9    2.68            14.3    0.37
           scf.fdiag           247.6    5.87            31.3    0.81
         diag_tritrn            73.4    1.74             9.2    0.24
          diag_rdiag           163.9    3.89            20.9    0.54
          scf.modump           276.1    6.55           258.1    6.68
           ortho_all            24.7    0.59             9.7    0.25
            scf.post            17.6    0.42            16.4    0.42
        dscf.postscf             1.3    0.03             1.5    0.04
 


    ------------------------------------------------------------------------
         total  cpu-time :  1 hours 10 minutes and 16 seconds
         total wall-time :  1 hours  4 minutes and 25 seconds
    ------------------------------------------------------------------------

   ****  dscf : all done  ****


    2018-02-19 19:32:08.944 

