 this is node-proc. number 0 running on node c-4-3.local
 the total number of node-proc. spawned is  33

 dscfserver (c-4-3.local) : TURBOMOLE V7.2 ( 21471 ) 7 Nov 2017 at 16:15:16
 Copyright (C) 2017 TURBOMOLE GmbH, Karlsruhe


    2018-02-19 18:27:44.752 

 
    0:00:12 ---- Start global counter...
    0:05:49 ---- ... finished.
 
    0:06:10 ---- Start global counter...
    0:11:41 ---- ... finished.
 
    0:12:00 ---- Start global counter...
    0:17:14 ---- ... finished.
 
    0:17:34 ---- Start global counter...
    0:22:31 ---- ... finished.
 
    0:22:52 ---- Start global counter...
    0:27:33 ---- ... finished.
 
    0:27:56 ---- Start global counter...
    0:32:07 ---- ... finished.
 
    0:32:28 ---- Start global counter...
    0:36:21 ---- ... finished.
 
    0:36:41 ---- Start global counter...
    0:40:10 ---- ... finished.
 
    0:40:31 ---- Start global counter...
    0:43:46 ---- ... finished.
 
    0:44:06 ---- Start global counter...
    0:47:00 ---- ... finished.
 
    0:47:23 ---- Start global counter...
    0:50:04 ---- ... finished.
 
    0:50:24 ---- Start global counter...
    0:52:51 ---- ... finished.
 
    0:53:10 ---- Start global counter...
    0:55:21 ---- ... finished.
 
    0:55:40 ---- Start global counter...
    0:57:36 ---- ... finished.
 
    0:57:55 ---- Start global counter...
    0:59:37 ---- ... finished.
 
    1:00:00 ---- Start global counter...
    1:01:50 ---- ... finished.
 
    1:02:10 ---- Start global counter...
    1:04:05 ---- ... finished.
 
    1:04:24 ---- ByeBye Tag received


 ! Total wall-clock time in seconds  :     3863.8
 ! Time (sec) spent in global counter:     3503.0
 ! So-called SERIAL wall-clock time  :      360.7

  *** Regular termination of server ***
 total turnaround time of dscfserver  3864.11 sec
 cpu elapsed by dscfserver process    3504.79 sec 

   ***  dscf server : all done  ***


    2018-02-19 19:32:08.862 

