
   OpenMP run-time library returned nthreads = 28

 rirpa (c-15-42) : TURBOMOLE V7.3.1 () 25 Feb 2019 at 10:13:53
 Copyright (C) 2019 TURBOMOLE GmbH, Karlsruhe


    2019-11-27 02:05:24.669 

 
 
    *************************************************************************
    *************************** PROGRAM RIRPA *******************************
    ******                                                             ******
    ******              H. Eshuis, J. E. Bates and F. Furche           ******
    ******                                                             ******
    ****** Nov 2011                                                    ******
    ****** Copyright TURBOMOLE GmbH                                    ******
    *************************************************************************
    
    
                                References:                                  
    
                   RIRPA:                                                    
                     H. Eshuis, J. Yarkony and F. Furche                     
                     Fast computation of molecular random phase              
                     approximation correlation energies using resolution     
                     of the identity imaginary frequency integration         
                     J. Chem. Phys. 132: 234114 (2010)                       
    
                     H. Eshuis, J. E. Bates and F. Furche                    
                     Electron correlation methods based on                   
                     the random phase approximation                          
                     Theor. Chem. Acc.  131: 1084 (2012)                     
    
                   TWO-COMPONENT RIRPA:                                      
                     M. Kuehn                                                
                     Correlation energies from the                           
                     two-component random-phase approximation                
                     J. Chem. Theory Comput. 10: 623 (2014)                  
    
                   RIRPA GRADIENTS:                                          
                     Asbjoern M. Burow, Jefferson E. Bates, Filipp Furche*,  
                     and Henk Eshuis                                         
                     Analytical First-Order Molecular Properties and Forces  
                     within the Adiabatic Connection Random Phase            
                     Approximation                                           
                     J. Chem. Theory Comput. 10: 180 (2014)                  
    
    
    
      ... OpenMP parallelization enabled, threads:   28

   *-----------------------------------------------------------------------*
   |                     program will use 28 thread(s)                     |
   *-----------------------------------------------------------------------*
 
                FOUND RI-J FLAG
 
  HF exact exchange energy will be computed using RI-J.
 
  The HXX energy will NOT be computed due to nohxx option. 
 


              +--------------------------------------------------+
              | Atomic coordinate, charge and isotop information |
              +--------------------------------------------------+

                    atomic coordinates            atom    charge  isotop
          1.47426450   -1.15257181   -2.28195181    c      0.000     0
          1.69355668   -2.14982727   -4.05184613    h      0.000     0
          0.90318091    1.41917229   -2.28259152    c      0.000     0
          0.67456464    2.41538710   -4.05167501    h      0.000     0
          0.61848710    2.70583813    0.00000000    c      0.000     0
          0.17284385    4.70001197    0.00000000    h      0.000     0
          0.90318091    1.41917229    2.28259152    c      0.000     0
          0.67456464    2.41538710    4.05167501    h      0.000     0
          1.47426450   -1.15257181    2.28195181    c      0.000     0
          1.69355668   -2.14982727    4.05184613    h      0.000     0
          1.76056016   -2.43771145    0.00000000    c      0.000     0
          2.20811802   -4.43181160    0.00000000    h      0.000     0
         -5.18508954   -0.50883251    0.00000000    o      8.000     0
         -4.87365513   -2.29409747    0.00000000    h      1.000     0
         -3.50833376    0.19337144    0.00000000    h      1.000     0
 
       center of nuclear mass  :    0.01512133    0.00179001    0.00000000
       center of nuclear charge:   -4.98627052   -0.61713861    0.00000000
              +-------------------------------------------------+
              |        Rotational Constants Section             |
              +-------------------------------------------------+
                                   Center of Mass [a.u]:
               0.01512132651976         0.00179000603336         0.00000000000000
                     Principal Moments of Inertia [a.u.]
             628.66844444655931       903.98438221070921       908.20275166662032
                       Rotational constants A,B,C [a.u.]
               0.00079533179121         0.00055310690078         0.00055053786072
                     Rotational constants A,B,C [cm**-1]
               0.09575744898322         0.06659372405221         0.06628441323920
                        Rotational constants A,B,C [MHz]
            2870.73610024890286      1996.42962209870757      1987.15671720683940

   * BASIS SET information:

              +--------------------------------------------------+
              |               basis set information              |
              +--------------------------------------------------+

              we will work with the 1s 3p 5d 7f 9g ... basis set
              ...i.e. with spherical basis functions...

   type   atoms  prim   cont   basis
   ---------------------------------------------------------------------------
    c        6     77     55   cc-pVQZ   [5s4p3d2f1g|21s6p3d2f1g]
    h        8     32     30   cc-pVQZ   [4s3p2d1f|6s3p2d1f]
    o        1     77     55   cc-pVQZ   [5s4p3d2f1g|21s6p3d2f1g]
   ---------------------------------------------------------------------------
   total:   15    795    625
   ---------------------------------------------------------------------------

   total number of primitive shells          :   78
   total number of contracted shells         :  185
   total number of cartesian basis functions :  770
   total number of SCF-basis functions       :  625


   * AUXILIARY BASIS SET information:

              +--------------------------------------------------+
              |               basis set information              |
              +--------------------------------------------------+

              we will work with the 1s 3p 5d 7f 9g ... basis set
              ...i.e. with spherical basis functions...

   type   atoms  prim   cont   basis
   ---------------------------------------------------------------------------
    c        6    132    132   cc-pVQZ   [8s7p6d5f3g1h|8s7p6d5f3g1h]
    h        8     55     55   cc-pVQZ   [5s4p3d2f1g|5s4p3d2f1g]
    o        1    132    132   cc-pVQZ   [8s7p6d5f3g1h|8s7p6d5f3g1h]
   ---------------------------------------------------------------------------
   total:   15   1364   1364
   ---------------------------------------------------------------------------

   total number of primitive shells          :   75
   total number of contracted shells         :  330
   total number of cartesian basis functions : 1827
   total number of SCF-basis functions       : 1364


   * RIJ AUXILIARY BASIS SET information:

              +--------------------------------------------------+
              |               basis set information              |
              +--------------------------------------------------+

              we will work with the 1s 3p 5d 7f 9g ... basis set
              ...i.e. with spherical basis functions...

   type   atoms  prim   cont   basis
   ---------------------------------------------------------------------------
    c        6     70     49   cc-pVQZ   [6s4p3d1f1g|12s5p4d2f1g]
    h        8     16     11   cc-pVQZ   [3s1p1d|5s2p1d]
    o        1     70     49   cc-pVQZ   [6s4p3d1f1g|12s5p4d2f1g]
   ---------------------------------------------------------------------------
   total:   15    618    431
   ---------------------------------------------------------------------------

   total number of primitive shells          :   56
   total number of contracted shells         :  145
   total number of cartesian basis functions :  523
   total number of SCF-basis functions       :  431

  No keyword $dft found! - HARTREE FOCK CALCULATION

 reading orbital data $scfmo  from file mos
 orbital characterization : scfconv=9

 integral neglect threshold       :  0.32E+02

 scfconv                     9

 MAXIMUM CORE MEMORY WHICH CAN BE ALLOCATED DYNAMICALLY = 140000 MiB
              ( or 18350080000 double words per process)


 there are 1 real representations :   a   

 maximum number of shells which are related by symmetry :  1

 time elapsed for calculating density matrices :   0.032 sec

     total memory allocated for calculation of (Q|P)**(-1/2) : 22 MiB


     calculation of (P|Q) ...
     time in lp2sym        cpu:  1.90 sec    wall:  0.07 sec    ratio: 28.0


     calculation of the Cholesky decomposition of (P|Q)**(-1) ...
     time in invmetri      cpu:  8.30 sec    wall:  0.30 sec    ratio: 27.9

   threshold for RMS(d[D]) in SCF was     :  0.10E-06
   integral neglect threshold             :  0.18E-13
   derivative integral neglect threshold  :  0.10E-06


 setting up bound for integral derivative estimation

 increment for numerical differentiation : 0.00050000
 total memory allocated for calculation of (Q|P)**(-1/2) : 22 MiB
 Dividing biap into                  10848  block chunks,
 using                     6 MiB per block
 Reserved                  69991 MiB for BLAS routines
 Estimated total memory usage:                 139997 MiB
 number of passes for ispin    1
 =    1
 
 Number of eigenvalues < 6e-3:                      0
 
 
            -----------------------------
            Complex frequency integration
            -----------------------------
 
 Number of Clenshaw-Curtis nodes:                    100
 Optimized scaling parameter    :    2.62130489827131     
 Sensitivity measure            :  -3.247234078851413E-012
 
 Done with rirpa frequency point #                     1
 Done with rirpa frequency point #                     2
 Done with rirpa frequency point #                     3
 Done with rirpa frequency point #                     4
 Done with rirpa frequency point #                     5
 Done with rirpa frequency point #                     6
 Done with rirpa frequency point #                     7
 Done with rirpa frequency point #                     8
 Done with rirpa frequency point #                     9
 Done with rirpa frequency point #                    10
 Done with rirpa frequency point #                    11
 Done with rirpa frequency point #                    12
 Done with rirpa frequency point #                    13
 Done with rirpa frequency point #                    14
 Done with rirpa frequency point #                    15
 Done with rirpa frequency point #                    16
 Done with rirpa frequency point #                    17
 Done with rirpa frequency point #                    18
 Done with rirpa frequency point #                    19
 Done with rirpa frequency point #                    20
 Done with rirpa frequency point #                    21
 Done with rirpa frequency point #                    22
 Done with rirpa frequency point #                    23
 Done with rirpa frequency point #                    24
 Done with rirpa frequency point #                    25
 Done with rirpa frequency point #                    26
 Done with rirpa frequency point #                    27
 Done with rirpa frequency point #                    28
 Done with rirpa frequency point #                    29
 Done with rirpa frequency point #                    30
 Done with rirpa frequency point #                    31
 Done with rirpa frequency point #                    32
 Done with rirpa frequency point #                    33
 Done with rirpa frequency point #                    34
 Done with rirpa frequency point #                    35
 Done with rirpa frequency point #                    36
 Done with rirpa frequency point #                    37
 Done with rirpa frequency point #                    38
 Done with rirpa frequency point #                    39
 Done with rirpa frequency point #                    40
 Done with rirpa frequency point #                    41
 Done with rirpa frequency point #                    42
 Done with rirpa frequency point #                    43
 Done with rirpa frequency point #                    44
 Done with rirpa frequency point #                    45
 Done with rirpa frequency point #                    46
 Done with rirpa frequency point #                    47
 Done with rirpa frequency point #                    48
 Done with rirpa frequency point #                    49
 Done with rirpa frequency point #                    50
 Done with rirpa frequency point #                    51
 Done with rirpa frequency point #                    52
 Done with rirpa frequency point #                    53
 Done with rirpa frequency point #                    54
 Done with rirpa frequency point #                    55
 Done with rirpa frequency point #                    56
 Done with rirpa frequency point #                    57
 Done with rirpa frequency point #                    58
 Done with rirpa frequency point #                    59
 Done with rirpa frequency point #                    60
 Done with rirpa frequency point #                    61
 Done with rirpa frequency point #                    62
 Done with rirpa frequency point #                    63
 Done with rirpa frequency point #                    64
 Done with rirpa frequency point #                    65
 Done with rirpa frequency point #                    66
 Done with rirpa frequency point #                    67
 Done with rirpa frequency point #                    68
 Done with rirpa frequency point #                    69
 Done with rirpa frequency point #                    70
 Done with rirpa frequency point #                    71
 Done with rirpa frequency point #                    72
 Done with rirpa frequency point #                    73
 Done with rirpa frequency point #                    74
 Done with rirpa frequency point #                    75
 Done with rirpa frequency point #                    76
 Done with rirpa frequency point #                    77
 Done with rirpa frequency point #                    78
 Done with rirpa frequency point #                    79
 Done with rirpa frequency point #                    80
 Done with rirpa frequency point #                    81
 Done with rirpa frequency point #                    82
 Done with rirpa frequency point #                    83
 Done with rirpa frequency point #                    84
 Done with rirpa frequency point #                    85
 Done with rirpa frequency point #                    86
 Done with rirpa frequency point #                    87
 Done with rirpa frequency point #                    88
 Done with rirpa frequency point #                    89
 Done with rirpa frequency point #                    90
 Done with rirpa frequency point #                    91
 Done with rirpa frequency point #                    92
 Done with rirpa frequency point #                    93
 Done with rirpa frequency point #                    94
 Done with rirpa frequency point #                    95
 Done with rirpa frequency point #                    96
 Done with rirpa frequency point #                    97
 Done with rirpa frequency point #                    98
 Done with rirpa frequency point #                    99
 Done with rirpa frequency point #                   100
 


 RI-RPA correlation energy: -0.3416519749401176E+00
 
 
 HXX Energy calculation skipped due to nohxx option
 

                  --------------------------------------------------- 
                 |  HXX+RIRPA total energy     =     -0.34165197494  |
                  ---------------------------------------------------- 
                 :  RIRPA correlation energy   =     -0.34165197494  :
                 :  HXX total energy           =      0.00000000000  :
                 :  Hartree energy             =      0.00000000000  :
                 :  Exact Exchange energy      =      0.00000000000  :
                  .................................................... 


    ------------------------------------------------------------------------
    Rirpa profiling                cpu                    wall         ratio
    ------------------------------------------------------------------------
    module                         sec     %               sec     %
    ------------------------------------------------------------------------
    RIRPA                       634.9  100.00           27.5  100.00  23.1
    STARTUP                       4.8    0.76            0.6    2.25   7.8
    riccmos                       8.3    1.31            0.6    2.12  14.3
    riccaux                      10.4    1.64            0.4    1.37  27.8
    riccbound                     9.3    1.46            4.3   15.50   2.2
    ccmkbaoi                     48.3    7.60            1.8    6.53  26.9
    cc3idxnrm                     0.8    0.12            0.0    0.13  20.7
    ecrpa                       552.2   86.97           19.8   71.97  27.9
    tread                        42.6    6.72            1.5    5.55  28.0
    tqbuild                     296.1   46.63           10.6   38.58  28.0
    trpaln                      145.8   22.97            5.2   19.01  27.9
    ------------------------------------------------------------------------
    sum                        1753.6  276.19           72.2  263.03  24.3
    ------------------------------------------------------------------------


    ------------------------------------------------------------------------
         total  cpu-time : 10 minutes and 37 seconds
         total wall-time :  27.56 seconds
    ------------------------------------------------------------------------

   ****  rirpa : all done  ****


    2019-11-27 02:05:52.140 

