           Doing BLAS/Lapack in the master proc. with  8 CPUs.
           SMPCPUS    set: Shared-memory Parallelization with   8 CPUs.

           SMP Parallelization Reference:
           C. van Wullen, J. Comput. Chem. 32 (2011) 1195--1201
 operating system is UNIX !

 ridft (c-6-211.gp.local) : TURBOMOLE V7.2 ( 21454 ) 4 Oct 2017 at 12:48:15
 Copyright (C) 2017 TURBOMOLE GmbH, Karlsruhe


    2018-04-24 21:20:57.234 



                                  r i d f t

                        DFT program with RI approximation 
                                for coulomb part 




                                                 
                                 References:     
                                                 
          TURBOMOLE:                             
              R. Ahlrichs, M. Baer, M. Haeser, H. Horn, and
              C. Koelmel
              Electronic structure calculations on workstation
              computers: the program system TURBOMOLE
              Chem. Phys. Lett. 162: 165 (1989)
          Density Functional:                              
              O. Treutler and R. Ahlrichs                      
              Efficient Molecular Numerical Integration Schemes
              J. Chem. Phys. 102: 346 (1995)                   
          Parallel Version:                                
              Performance of parallel TURBOMOLE for Density    
              Functional Calculations                          
              M. v. Arnim and R. Ahlrichs                      
              J. Comp. Chem. 19: 1746 (1998)                   
          RI-J Method:                                     
              Auxiliary Basis Sets to approximate Coulomb      
              Potentials                                       
              Chem. Phys. Lett. 240: 283 (1995)                
              K. Eichkorn, O. Treutler, H. Oehm, M. Haeser     
              and R. Ahlrichs                                  
              Chem. Phys. Lett. 242: 652 (1995)                
                                                           
              Auxiliary Basis Sets for Main Row Atoms and their
              Use to approximate Coulomb Potentials            
              K. Eichkorn, F. Weigend, O. Treutler and         
              R. Ahlrichs                                      
              Theo. Chem. Acc. 97: 119 (1997)                   
                                                           
              Accurate Coulomb-fitting basis sets for H to Rn 
              F. Weigend                                        
              Phys. Chem. Chem. Phys. 8: 1057 (2006)            
                                                           
          Multipole accelerated RI-J (MARI-J):             
              Fast evaluation of the Coulomb potential for     
              electron densities using multipole accelerated   
              resolution of identity approximation             
              M. Sierka, A. Hogekamp and R. Ahlrichs           
              J. Chem. Phys. 118: 9136 (2003)                  
          RI-JK Method:                                     
              A fully direct RI-HF algorithm: Implementation,
              optimised auxiliary basis sets, demonstration of
              accuracy and efficiency                         
              F. Weigend                                      
              Phys. Chem. Chem. Phys. 4: 4285 (2002)           
          Two-component HF and DFT with spin-orbit coupling:  
              Self-consistent treatment of spin-orbit         
              interactions with efficient Hartree-Fock and    
              density functional methods                      
              M. K. Armbruster, F. Weigend, C. van Wüllen and 
              W. Klopper                                      
              Phys. Chem. Chem. Phys. 10: 1748 (2008)         
          Relativistic all-electron 2c calculations           
              An efficient implementation of two-component    
              relativistic exact-decoupling methods for large 
              molecules                                       
              D. Peng, N. Middendorf, F. Weigend, M. Reiher   
              J. Chem. Phys. 138, 184105 (2013)               
                                         




              +--------------------------------------------------+
              |      general information about current run       |
              +--------------------------------------------------+

 

 DENSITY CONVERGENCE CHECK SWITCHED ON !
 SCF CONVERGENCE IF RMS(delta[D]) <     0.1000000000E-06

 TPSS meta-GGA functional
 exchange:    LDA + TPSS
 correlation: LDA (PW) + TPSS
 A DFT calculation using the RI-J approximation will be carried out.
 Allocatable memory for RI due to $ricore (MB):                   500


              +--------------------------------------------------+
              | Atomic coordinate, charge and isotop information |
              +--------------------------------------------------+

                    atomic coordinates            atom    charge  isotop
          1.43571787    1.94882743    0.70632746    c      6.000     0
          2.71178772    3.54449179    0.70808910    h      1.000     0
          2.39356073   -0.50524160    0.79609074    c      6.000     0
          4.41235172   -0.81103302    0.86820130    h      1.000     0
          0.74704756   -2.56245194    0.80295429    c      6.000     0
          1.49035507   -4.46446398    0.87501027    h      1.000     0
         -1.85609966   -2.16686280    0.72049633    c      6.000     0
         -3.13251646   -3.76270966    0.72777322    h      1.000     0
         -2.81445627    0.28563171    0.63791927    c      6.000     0
         -4.83381937    0.59290250    0.58150464    h      1.000     0
         -1.16931558    2.34388630    0.63094881    c      6.000     0
         -1.91195236    4.24641663    0.57517446    h      1.000     0
          0.08885294    0.57860650    6.96385486    o      8.000     0
          0.25155877    0.67285299    5.15502121    h      1.000     0
         -1.60462626   -1.41999445    7.49875137    c      6.000     0
         -1.78551216   -1.52720727    9.54142463    h      1.000     0
         -3.47951727   -1.09553274    6.69790394    h      1.000     0
         -0.91211662   -3.23987832    6.81294799    h      1.000     0
 
       center of nuclear mass  :   -0.36561518   -0.19582021    2.59514044
       center of nuclear charge:   -0.39479312   -0.22787569    2.65024699

              +--------------------------------------------------+
              |               basis set information              |
              +--------------------------------------------------+

              we will work with the 1s 3p 5d 7f 9g ... basis set
              ...i.e. with spherical basis functions...

   type   atoms  prim   cont   basis
   ---------------------------------------------------------------------------
    c        7     77     57   def2-QZVP   [7s4p3d2f1g|15s8p3d2f1g]
    h       10     33     30   def2-QZVP   [4s3p2d1f|7s3p2d1f]
    o        1     77     57   def2-QZVP   [7s4p3d2f1g|15s8p3d2f1g]
   ---------------------------------------------------------------------------
   total:   18    946    756
   ---------------------------------------------------------------------------

   total number of primitive shells          :   71
   total number of contracted shells         :  236
   total number of cartesian basis functions :  926
   total number of SCF-basis functions       :  756


 integral neglect threshold       :  0.36E-13
 integral storage threshold THIZE :  0.10E-04
 integral storage threshold THIME :         5

 RI-J AUXILIARY BASIS SET information:

              we will work with the 1s 3p 5d 7f 9g ... basis set
              ...i.e. with spherical basis functions...

   type   atoms  prim   cont   basis
   ---------------------------------------------------------------------------
    c        7     70     49   def2-QZVP   [6s4p3d1f1g|12s5p4d2f1g]
    h       10     16     11   def2-QZVP   [3s1p1d|5s2p1d]
    o        1     70     49   def2-QZVP   [6s4p3d1f1g|12s5p4d2f1g]
   ---------------------------------------------------------------------------
   total:   18    720    502
   ---------------------------------------------------------------------------

   total number of primitive shells          :   56
   total number of contracted shells         :  170
   total number of cartesian basis functions :  608
   total number of SCF-basis functions       :  502


 symmetry group of the molecule :   c1 

 the group has the following generators :
   c1(z)

    1 symmetry operations found

 there are 1 real representations :   a   

 maximum number of shells which are related by symmetry :  1


    mo occupation :
   irrep   mo's   occupied
    a      756       30
 
 number of basis functions   :                    756
 number of occupied orbitals :                     30
 
  
           ------------------
           density functional
           ------------------
 TPSS meta-GGA functional
 exchange:    LDA + TPSS
 correlation: LDA (PW) + TPSS

 iterations will be done with small grid
  
 spherical integration : Lebedev's spherical grid
 spherical gridsize    :                     5
    i.e. gridpoints    :                   590
 value for diffuse not defined
 radial integration    : Chebyshev 2nd kind (scaling 3)
 radial gridsize       :                     8
 integration cells     :                    18
 partition function    : becke
 partition sharpness   :                     3
  

 biggest AO integral is expected to be     6.990327543
  
           ------------------------
               RI-J - INFORMATION
           ------------------------
 Contributions to RI integral batches: 
  neglected integral batches:                  5419
  direct contribution:                        13888
  memory contribution:                  8659
 Memory core needed for (P|Q) and Cholesky      2 MByte
 Memory core minimum needed except of (P|Q)     1 MByte
 Total minimum memory core needed (sum)         3 MByte
  
 ****************************************
 Memory allocated for RI-J   317 MByte
 ****************************************
                                            

          ------------------------
          nuclear repulsion energy  :   349.343851598    
          ------------------------


         -----------------
         -S,T+V- integrals
         -----------------

 1e-integrals will be neglected if expon. factor < 0.360903E-14
 Difference densities >>NOT<< switched on in parallel ridft!

 DIIS switched on: error vector is FDS-SDF
 Max. Iterations for DIIS is     :   4
 DIIS matrix (see manual) 
    Scaling factor of diagonals  :  1.200
    threshold for scaling factor :  0.000

 scf convergence criterion : increment of total energy < .1000000D-08
                  and increment of one-electron energy < .1000000D-05

  MOs are in ASCII format !


 automatic virtual orbital shift switched on 
      shift if e(lumo)-e(homo) < 0.10000000    


 reading orbital data $scfmo  from file mos
 orbital characterization : expanded
 mo provided and orthogonalized by Cholesky decomposition

 DSCF restart information will be dumped onto file mos


 Starting SCF iterations

          Overall gridpoints after grid construction =         84115

 ITERATION  ENERGY          1e-ENERGY        2e-ENERGY     RMS[dD(SAO)]   TOL
   1  -346.92128299399    -1150.4377480     454.17261336    0.000D+00 0.360D-13
                            Exc = -49.2544681232     Coul =  503.427081483    
                              N = 59.999784444    
                            current damping = 0.700
 
          max. resid. norm for Fia-block=  8.405D-01 for orbital      9a         
          max. resid. fock norm         =  6.494D+01 for orbital    618a         

 ITERATION  ENERGY          1e-ENERGY        2e-ENERGY     RMS[dD(SAO)]   TOL
   2  -347.93333844196    -1158.2668145     460.98962444    0.361D-02 0.360D-13
                            Exc = -49.9113151776     Coul =  510.900939620    
                              N = 59.999808720    
                            current damping = 0.650
 
          Norm of current diis error:  3.4953    
          max. resid. norm for Fia-block=  1.405D-01 for orbital      1a         
          max. resid. fock norm         =  2.260D-01 for orbital    435a         

 ITERATION  ENERGY          1e-ENERGY        2e-ENERGY     RMS[dD(SAO)]   TOL
   3  -348.11651564276    -1160.4939477     463.03358044    0.195D-02 0.360D-13
                            Exc = -50.2337632395     Coul =  513.267343681    
                              N = 59.999825565    
                            current damping = 0.550
 
          Norm of current diis error:  1.6899    
          max. resid. norm for Fia-block=  5.592D-02 for orbital     29a         
          max. resid. fock norm         =  6.150D-02 for orbital     10a         

 ITERATION  ENERGY          1e-ENERGY        2e-ENERGY     RMS[dD(SAO)]   TOL
   4  -348.17460395627    -1161.3697707     463.85131511    0.108D-02 0.360D-13
                            Exc = -50.3208108702     Coul =  514.172125979    
                              N = 59.999833912    
                            current damping = 0.450
 
          Norm of current diis error: 0.64464    
          max. resid. norm for Fia-block=  3.008D-02 for orbital      9a         
          max. resid. fock norm         =  5.258D-02 for orbital    724a         

 ITERATION  ENERGY          1e-ENERGY        2e-ENERGY     RMS[dD(SAO)]   TOL
   5  -348.18300644276    -1162.3588241     464.83196605    0.457D-03 0.360D-13
                            Exc = -50.4519048469     Coul =  515.283870898    
                              N = 59.999837962    
                            current damping = 0.350
 
          Norm of current diis error: 0.30714    
          max. resid. norm for Fia-block=  1.494D-02 for orbital     30a         
          max. resid. fock norm         =  1.615D-02 for orbital     27a         
          mo-orthogonalization: Cholesky decomposition

 ITERATION  ENERGY          1e-ENERGY        2e-ENERGY     RMS[dD(SAO)]   TOL
   6  -348.18540736604    -1162.1058150     464.57655607    0.257D-03 0.360D-13
                            Exc = -50.4248311401     Coul =  515.001387211    
                              N = 59.999839487    
                            current damping = 0.400
 
          Norm of current diis error: 0.10554    
          max. resid. norm for Fia-block=  3.859D-03 for orbital      9a         
          max. resid. fock norm         =  7.605D-03 for orbital    722a         

 ITERATION  ENERGY          1e-ENERGY        2e-ENERGY     RMS[dD(SAO)]   TOL
   7  -348.18565611016    -1162.2630915     464.73358383    0.403D-04 0.360D-13
                            Exc = -50.4425519340     Coul =  515.176135764    
                              N = 59.999839774    
                            current damping = 0.450
 
          Norm of current diis error: 0.20966E-01
          max. resid. norm for Fia-block=  8.622D-04 for orbital     29a         
          max. resid. fock norm         =  1.934D-03 for orbital    751a         

 ITERATION  ENERGY          1e-ENERGY        2e-ENERGY     RMS[dD(SAO)]   TOL
   8  -348.18565940372    -1162.2687625     464.73925150    0.153D-04 0.360D-13
                            Exc = -50.4444315337     Coul =  515.183683038    
                              N = 59.999839831    
                            current damping = 0.300
 
          Norm of current diis error: 0.19540E-01
          max. resid. norm for Fia-block=  4.361D-04 for orbital     29a         
          max. resid. fock norm         =  1.078D-03 for orbital    751a         

 ITERATION  ENERGY          1e-ENERGY        2e-ENERGY     RMS[dD(SAO)]   TOL
   9  -348.18566813520    -1162.2718265     464.74230674    0.682D-05 0.360D-13
                            Exc = -50.4449220177     Coul =  515.187228762    
                              N = 59.999839934    
                            current damping = 0.150
 
          Norm of current diis error: 0.32355E-02
          max. resid. norm for Fia-block=  1.113D-04 for orbital     16a         
          max. resid. fock norm         =  1.672D-04 for orbital    411a         

 ITERATION  ENERGY          1e-ENERGY        2e-ENERGY     RMS[dD(SAO)]   TOL
  10  -348.18566811854    -1162.2779749     464.74845523    0.224D-05 0.360D-13
                            Exc = -50.4450231043     Coul =  515.193478336    
                              N = 59.999839921    
                            current damping = 0.200
 
          Norm of current diis error: 0.33493E-02
          max. resid. norm for Fia-block=  7.480D-05 for orbital     30a         
          max. resid. fock norm         =  1.325D-04 for orbital    732a         
          mo-orthogonalization: Cholesky decomposition

 ITERATION  ENERGY          1e-ENERGY        2e-ENERGY     RMS[dD(SAO)]   TOL
  11  -348.18566832964    -1162.2762358     464.74671586    0.793D-06 0.360D-13
                            Exc = -50.4450962938     Coul =  515.191812159    
                              N = 59.999839924    
                            current damping = 0.250
 
          Norm of current diis error: 0.82148E-03
          max. resid. norm for Fia-block=  2.723D-05 for orbital     23a         
          max. resid. fock norm         =  3.920D-05 for orbital     27a         

 ITERATION  ENERGY          1e-ENERGY        2e-ENERGY     RMS[dD(SAO)]   TOL
  12  -348.18566833864    -1162.2747278     464.74520787    0.293D-06 0.360D-13
                            Exc = -50.4449927151     Coul =  515.190200584    
                              N = 59.999839929    
                            current damping = 0.100
 
          Norm of current diis error: 0.39608E-03
          max. resid. norm for Fia-block=  1.301D-05 for orbital     30a         
          max. resid. fock norm         =  2.082D-05 for orbital    722a         

 ITERATION  ENERGY          1e-ENERGY        2e-ENERGY     RMS[dD(SAO)]   TOL
  13  -348.18566834181    -1162.2752413     464.74572135    0.131D-06 0.360D-13
                            Exc = -50.4450511701     Coul =  515.190772518    
                              N = 59.999839930    
                            current damping = 0.150
 
          Norm of current diis error: 0.12374E-03
          max. resid. norm for Fia-block=  3.612D-06 for orbital     29a         
          max. resid. fock norm         =  9.044D-06 for orbital    753a         

 DENSITY CONVERGED !


 ITERATION  ENERGY          1e-ENERGY        2e-ENERGY     RMS[dD(SAO)]   TOL
  14  -348.18566834195    -1162.2751144     464.74559447    0.430D-07 0.360D-13
                            Exc = -50.4450394612     Coul =  515.190633927    
                              N = 59.999839929    
                            current damping = 0.200
 
          Norm of current diis error: 0.95332E-04
          max. resid. norm for Fia-block=  1.902D-06 for orbital     29a         
          max. resid. fock norm         =  4.705D-06 for orbital    751a         

 ENERGY & DENSITY CONVERGED !

          Overall gridpoints after grid construction =        274594

 ITERATION  ENERGY          1e-ENERGY        2e-ENERGY     RMS[dD(SAO)]   TOL
  15  -348.18556834903    -1162.2751162     464.74569622    0.221D-07 0.360D-13
                            Exc = -50.4449368427     Coul =  515.190633067    
                              N = 59.999997224    
                            current damping = 0.250
 
          Norm of current diis error: 0.12644E-04
          max. resid. norm for Fia-block=  2.852D-07 for orbital     30a         
          max. resid. fock norm         =  4.861D-07 for orbital    722a         

 End of SCF iterations

   convergence criteria satisfied after    15 iterations


                  ------------------------------------------ 
                 |  total energy      =   -348.18556834903  |
                  ------------------------------------------ 
                 :  kinetic energy    =    346.69720676805  :
                 :  potential energy  =   -694.88277511708  :
                 :  virial theorem    =      1.99572537831  :
                 :  wavefunction norm =      1.00000000000  :
                  .......................................... 


 <geterg> : there is no data group $energy 


 <skperg> : $end is missing 


 orbitals $scfmo  will be written to file mos

    irrep                 26a         27a         28a         29a         30a   
 eigenvalues H         -0.31715    -0.28621    -0.24353    -0.24273    -0.21965
            eV          -8.6302     -7.7884     -6.6268     -6.6052     -5.9771
 occupation              2.0000      2.0000      2.0000      2.0000      2.0000 

    irrep                 31a         32a         33a         34a         35a   
 eigenvalues H         -0.04853    -0.04812     0.00471     0.02843     0.03281
            eV          -1.3206     -1.3094      0.1283      0.7736      0.8927
 
 
 
 
 ==============================================================================
                           electrostatic moments
 ==============================================================================

 reference point for electrostatic moments:    0.00000   0.00000   0.00000

 
              nuc           elec       ->  total
 ------------------------------------------------------------------------------
                          charge      
 ------------------------------------------------------------------------------
          60.000000     -60.000000       0.000000
 
 ------------------------------------------------------------------------------
                       dipole moment  
 ------------------------------------------------------------------------------
   x     -23.687587      23.438230      -0.249358
   y     -13.672541      13.338539      -0.334003
   z     159.014819    -159.668724      -0.653905
 
   | dipole moment | =     0.7755 a.u. =     1.9710 debye 
 
 ------------------------------------------------------------------------------
                     quadrupole moment
 ------------------------------------------------------------------------------
  xx     224.072681    -257.528205     -33.455525
  yy     220.293134    -253.988292     -33.695158
  zz     956.069749   -1001.409647     -45.339898
  xy      24.837195     -24.627175       0.210020
  xz    -113.746968     111.699480      -2.047488
  yz     -80.120729      76.963354      -3.157375
 
     1/3  trace=     -37.496860
     anisotropy=      13.455997
 
 ==============================================================================
 


    ------------------------------------------------------------------------
         total  cpu-time : 23 minutes and  0 seconds
         total wall-time :  3 minutes and  5 seconds
    ------------------------------------------------------------------------

   ****  ridft : all done  ****


    2018-04-24 21:24:02.024 

