
   OpenMP run-time library returned nthreads = 28

 ricc2 (c-19-413) : TURBOMOLE V7.3 ( 22142 ) 4 Jul 2018 at 18:12:42
 Copyright (C) 2018 TURBOMOLE GmbH, Karlsruhe


    2019-04-02 16:37:51.897 



                              R I C C 2 - PROGRAM

                          the quantum chemistry groups
                             at the universities in
                           Karlsruhe, Bochum & Mainz
                                   Germany



   *-----------------------------------------------------------------------*
   |                     program will use 28 thread(s)                     |
   *-----------------------------------------------------------------------*


              +--------------------------------------------------+
              | Atomic coordinate, charge and isotop information |
              +--------------------------------------------------+

                    atomic coordinates            atom    charge  isotop
         -2.10444837    2.50770455    0.51999037    c      6.000     0
         -0.88265827    4.43969949    0.87217940    o      8.000     0
         -1.09243062    0.25874222    0.09376344    o      8.000     0
          0.78106229    0.38409932    0.10485544    h      1.000     0
         -4.93487747    2.43054605    0.52413691    c      6.000     0
         -5.68174265    4.30268993    0.88021521    h      1.000     0
         -5.60163246    1.72958824   -1.28879555    h      1.000     0
         -5.58057710    1.11833654    1.96765922    h      1.000     0
          7.91549091    2.05593393    0.34559609    n      7.000     0
          8.65854088    0.32609709    0.02109340    h      1.000     0
          9.65692627    4.03658540    0.68849277    c      6.000     0
         11.91920508    3.62406611    0.58856413    o      8.000     0
          8.44926642    6.45441890    1.14317439    c      6.000     0
          9.62001745    8.09266950    1.42942496    h      1.000     0
          5.90364620    6.60557839    1.19869688    c      6.000     0
          4.91562143    8.36008895    1.52996249    h      1.000     0
          4.38481519    4.54448814    0.83888163    n      7.000     0
          2.44963769    4.67667012    0.88383871    h      1.000     0
          5.32955068    2.18190947    0.39636026    c      6.000     0
          3.98400436    0.31201623    0.06854913    o      8.000     0
 
       center of nuclear mass  :    3.90733311    3.19904872    0.59155309
       center of nuclear charge:    3.78764908    3.21744270    0.59587951

              +--------------------------------------------------+
              |               basis set information              |
              +--------------------------------------------------+

              we will work with the 1s 3p 5d 7f 9g ... basis set
              ...i.e. with spherical basis functions...

   type   atoms  prim   cont   basis
   ---------------------------------------------------------------------------
    c        6     77     55   cc-pVQZ   [5s4p3d2f1g|21s6p3d2f1g]
    o        4     77     55   cc-pVQZ   [5s4p3d2f1g|21s6p3d2f1g]
    h        8     32     30   cc-pVQZ   [4s3p2d1f|6s3p2d1f]
    n        2     77     55   cc-pVQZ   [5s4p3d2f1g|21s6p3d2f1g]
   ---------------------------------------------------------------------------
   total:   20   1180    900
   ---------------------------------------------------------------------------

   total number of primitive shells          :  111
   total number of contracted shells         :  260
   total number of cartesian basis functions : 1120
   total number of SCF-basis functions       :  900


 symmetry group of the molecule :   c1 

 the group has the following generators :
   c1(z)

    1 symmetry operations found

 there are 1 real representations :   a   


   =========================================================================


     restricted closed shell calculation for the wavefunction models:
               MP2        - Second Order Moeller Plesset PT


     global parameters for ricc2 program:

        hard restart (reuse of interm.) :  disabled
        soft restart (reuse of vectors) :  disabled
        threshold for vector function   :    0.100000E-05
        convergence threshold energy    :    0.100000E-06
        linear dependence threshold     :    0.100000E-13
        global print level              :      1
        maximum number of iterations    :   300
        maximum number DIIS vectors     :    10
        max. dim. of reduced space      :   100
        core memory limit (MB)          : 84000


     MP2 energy only: Energy will be calculated directly from T2 amplitudes!

     Scratch Directory : 


   =========================================================================

    der. integral neglect threshold  :  0.10E-07
    integral neglect threshold       :  0.30E-11
    integral storage threshold THIZE :  0.10E-04
    integral storage threshold THIME :         5


                  +------------------------------------------+
                  |     Auxiliary basis set information      |
                  +------------------------------------------+

              we will work with the 1s 3p 5d 7f 9g ... basis set
              ...i.e. with spherical basis functions...

   type   atoms  prim   cont   basis
   ---------------------------------------------------------------------------
    c        6    132    132   cc-pVQZ   [8s7p6d5f3g1h|8s7p6d5f3g1h]
    o        4    132    132   cc-pVQZ   [8s7p6d5f3g1h|8s7p6d5f3g1h]
    h        8     55     55   cc-pVQZ   [5s4p3d2f1g|5s4p3d2f1g]
    n        2    132    132   cc-pVQZ   [8s7p6d5f3g1h|8s7p6d5f3g1h]
   ---------------------------------------------------------------------------
   total:   20   2024   2024
   ---------------------------------------------------------------------------

   total number of primitive shells          :  105
   total number of contracted shells         :  480
   total number of cartesian basis functions : 2732
   total number of SCF-basis functions       : 2024


 maximum number of shells which are related by symmetry :  1


 The symmetry information takes   1 MB

*---------------------------------------------------------------------*
|               simplified C1 algorithm will be applied               |
*---------------------------------------------------------------------*
  MOs are in ASCII format !


 reading orbital data $scfmo  from file mos
 orbital characterization : scfconv=9



              +--------------------------------------------+
              | list of orbitals that will be kept frozen: |
              +--------------------------------------------+
              |   irrep   index      energy     occ/vir    |
              +--------------------------------------------+
              |   a         1      -20.5990     occupied   |
              |   a         2      -20.5573     occupied   |
              |   a         3      -20.5547     occupied   |
              |   a         4      -20.5376     occupied   |
              |   a         5      -15.6285     occupied   |
              |   a         6      -15.6277     occupied   |
              |   a         7      -11.4240     occupied   |
              |   a         8      -11.3987     occupied   |
              |   a         9      -11.3786     occupied   |
              |   a        10      -11.3333     occupied   |
              |   a        11      -11.2499     occupied   |
              |   a       ...        ...        occupied   |
              |   a        12      -11.2460     occupied   |
              +--------------------------------------------+



   Molecular Orbital Statistic:
   ============================

   -----------------------------
   orbitals in total:
   -----------------------------
    frozen occupied :     12
    active occupied :     33
    active virtual  :    855
    frozen virtual  :      0
    all together    :    900
   -----------------------------


     time in riccmos       cpu:  8.16 sec    wall:  0.60 sec    ratio: 13.6

     total memory allocated for calculation of (Q|P)**(-1/2) : 47 MiB


     calculation of (P|Q) ...
     time in lp2sym        cpu:  2.45 sec    wall:  0.09 sec    ratio: 28.2


     calculation of the Cholesky decomposition of (P|Q)**(-1) ...
     time in invmetri      cpu:  6.63 sec    wall:  0.24 sec    ratio: 27.8

   threshold for RMS(d[D]) in SCF was     :  0.10E-06
   integral neglect threshold             :  0.30E-11
   derivative integral neglect threshold  :  0.10E-07


   =========================================================================

     Energy of reference wave function is  -640.5884085380000
     Maximum orbital residual is           0.2369808265173E-06


     Number of symmetry-nonredundant auxiliary basis functions:     2024

     Block lengths for integral files:
        frozen occupied (BOI):        1 MiB
        active occupied (BJI):        1 MiB
        active virtual  (BAI):       14 MiB
        frozen virtual  (BGI):        0 MiB
               general  (BTI):       14 MiB

   =========================================================================




   **************************************************************************
   *                                                                        *
   *          OPTIMIZATION OF THE GROUND STATE CLUSTER AMPLITUDES           *
   *                                                                        *
   **************************************************************************


   Iter.   MP2 energy       Norm(Omega)   Norm(t1)  Norm(t2)     cpu    wall
   ...........................................................................
    1   -643.0339716623     ------          0.00000   0.48184    1.26    0.05
   ...........................................................................


     time in total         cpu:  1 min 15 s  wall:  0 min  3 s  ratio: 26.3


     **********************************************************************
     *                                                                    *
     *   RHF  energy                             :   -640.5884085380      *
     *   MP2 correlation energy (doubles)        :     -2.4455631243      *
     *                                                                    *
     *   Final MP2 energy                        :   -643.0339716623      *
     *                                                                    *
     *    E(S)   =     -1.5228041694      E(T)   =     -0.9227589549      *
     *    E(OS)  =     -1.8303904877      E(SS)  =     -0.6151726366      *
     *                                                                    *
     *   SCS-MP2 energy                          :   -642.9899346688      *
     *   (computed with  C(OS) =   1.2000  and  C(SS) =   0.3333)         *
     *                                                                    *
     *   SOS-MP2 energy                          :   -642.9679161720      *
     *   (computed with  C(OS) =   1.3000)                                *
     *                                                                    *
     *   Norm of MP1 T2 amplitudes               :      0.4818356175      *
     *                                                                    *
     **********************************************************************



    ------------------------------------------------------------------------
         total  cpu-time :  2 minutes and 46 seconds
         total wall-time :   6.84 seconds
    ------------------------------------------------------------------------

   ****  ricc2 : all done  ****


    2019-04-02 16:37:58.712 

