 operating system is UNIX !
 hostname is         c-9-334.local

 ridft (c-9-334.local) : TURBOMOLE V7.0( ) 6 Jul 2015 at 18:30:05
 Copyright (C) 2015 TURBOMOLE GmbH, Karlsruhe


    2015-09-22 14:53:35.167 



                                  r i d f t

                        DFT program with RI approximation 
                                for coulomb part 




                                                 
                                 References:     
                                                 
          TURBOMOLE:                             
              R. Ahlrichs, M. Baer, M. Haeser, H. Horn, and
              C. Koelmel
              Electronic structure calculations on workstation
              computers: the program system TURBOMOLE
              Chem. Phys. Lett. 162: 165 (1989)
          Density Functional:                              
              O. Treutler and R. Ahlrichs                      
              Efficient Molecular Numerical Integration Schemes
              J. Chem. Phys. 102: 346 (1995)                   
          Parallel Version:                                
              Performance of parallel TURBOMOLE for Density    
              Functional Calculations                          
              M. v. Arnim and R. Ahlrichs                      
              J. Comp. Chem. 19: 1746 (1998)                   
          RI-J Method:                                     
              Auxiliary Basis Sets to approximate Coulomb      
              Potentials                                       
              Chem. Phys. Lett. 240: 283 (1995)                
              K. Eichkorn, O. Treutler, H. Oehm, M. Haeser     
              and R. Ahlrichs                                  
              Chem. Phys. Lett. 242: 652 (1995)                
                                                           
              Auxiliary Basis Sets for Main Row Atoms and their
              Use to approximate Coulomb Potentials            
              K. Eichkorn, F. Weigend, O. Treutler and         
              R. Ahlrichs                                      
              Theo. Chem. Acc. 97: 119 (1997)                   
                                                           
              Accurate Coulomb-fitting basis sets for H to Rn 
              F. Weigend                                        
              Phys. Chem. Chem. Phys. 8: 1057 (2006)            
                                                           
          Multipole accelerated RI-J (MARI-J):             
              Fast evaluation of the Coulomb potential for     
              electron densities using multipole accelerated   
              resolution of identity approximation             
              M. Sierka, A. Hogekamp and R. Ahlrichs           
              J. Chem. Phys. 118: 9136 (2003)                  
          RI-JK Method:                                     
              A fully direct RI-HF algorithm: Implementation,
              optimised auxiliary basis sets, demonstration of
              accuracy and efficiency                         
              F. Weigend                                      
              Phys. Chem. Chem. Phys. 4: 4285 (2002)           
          Two-component HF and DFT with spin-orbit coupling:  
              Self-consistent treatment of spin-orbit         
              interactions with efficient Hartree-Fock and    
              density functional methods                      
              M. K. Armbruster, F. Weigend, C. van Wüllen and 
              W. Klopper                                      
              Phys. Chem. Chem. Phys. 10: 1748 (2008)         
          Relativistic all-electron 2c calculations           
              An efficient implementation of two-component    
              relativistic exact-decoupling methods for large 
              molecules                                       
              D. Peng, N. Middendorf, F. Weigend, M. Reiher   
              J. Chem. Phys. 138, 184105 (2013)               
                                         


 


              +--------------------------------------------------+
              |      general information about current run       |
              +--------------------------------------------------+

 

 DENSITY CONVERGENCE CHECK SWITCHED ON !
 SCF CONVERGENCE IF RMS(delta[D]) <     0.1000000000E-06

 PBE functional
 exchange:    LDA + PBE
 correlation: LDA (PW) + PBE
 A DFT calculation using the RI-J approximation will be carried out.
 Allocatable memory for RI due to $ricore (MB):        5000


              +--------------------------------------------------+
              | Atomic coordinate, charge and isotop information |
              +--------------------------------------------------+

                    atomic coordinates            atom    charge  isotop
         -1.46652197   -0.15990863    9.49727222    c      0.000     0
          1.49517021   -0.17859802    9.46303038    c      0.000     0
          2.10343526   -2.56929055    8.29797642    n      0.000     0
         -0.02575697   -3.98499778    7.67166449    c      0.000     0
         -2.12694345   -2.49833133    8.25305763    n      0.000     0
         -2.08986703    2.13688341    8.13632925    n      0.000     0
          0.01808468    3.41424379    7.24466197    c      0.000     0
          2.12197347    2.06505492    8.00474762    n      0.000     0
         -0.00054802    5.39703894    6.06078635    o      0.000     0
         -0.05890276   -6.12080405    6.85004936    o      0.000     0
          4.65269471    3.08945656    7.77174439    c      0.000     0
          4.62359293   -3.63190245    8.10119924    c      0.000     0
         -9.08417808   -0.17132257    3.51222609    c      0.000     0
         -7.57789628   -0.15718742    6.06551066    c      0.000     0
         -6.13004481   -2.46361706    5.96499613    n      0.000     0
         -6.61475956   -3.88882961    3.80252582    c      0.000     0
         -8.26025749   -2.47106258    2.30535250    n      0.000     0
         -8.29030413    2.17314726    2.30712884    n      0.000     0
         -6.57052107    3.51260404    3.73294611    c      0.000     0
         -6.13244476    2.18119749    5.92087102    n      0.000     0
         -5.64803236    5.57045911    3.17409740    o      0.000     0
         -5.82026200   -5.98396898    3.34266097    o      0.000     0
         -4.58936999    3.20584480    7.94284019    c      0.000     0
         -4.66269136   -3.49843109    8.03991542    c      0.000     0
          9.11566092   -0.49316183   -3.51591106    c      0.000     0
          7.58197809   -0.37548858   -6.04922122    c      0.000     0
          6.12252370   -2.67912143   -6.02093202    n      0.000     0
          6.48795894   -4.10335132   -3.83580390    c      0.000     0
          8.12931836   -2.73551086   -2.29860618    n      0.000     0
          8.53536382    1.89902359   -2.31175867    n      0.000     0
          6.81815078    3.33984528   -3.66536950    c      0.000     0
          6.15755922    1.95892790   -5.79673491    n      0.000     0
          6.06352645    5.44728676   -3.12781800    o      0.000     0
          5.60048685   -6.16772595   -3.39169936    o      0.000     0
          4.65269471    3.08945656   -7.77174439    c      0.000     0
          4.62359293   -3.63190245   -8.10119924    c      0.000     0
          7.58197809   -0.37548858    6.04922122    c      0.000     0
          9.11566092   -0.49316183    3.51591106    c      0.000     0
          8.12931836   -2.73551086    2.29860618    n      0.000     0
          6.48795894   -4.10335132    3.83580390    c      0.000     0
          6.12252370   -2.67912143    6.02093202    n      0.000     0
          6.15755922    1.95892790    5.79673491    n      0.000     0
          6.81815078    3.33984528    3.66536950    c      0.000     0
          8.53536382    1.89902359    2.31175867    n      0.000     0
          6.06352645    5.44728676    3.12781800    o      0.000     0
          5.60048685   -6.16772595    3.39169936    o      0.000     0
          9.66840581    2.82997827    0.00000000    c      0.000     0
          9.13162911   -3.83119297    0.00000000    c      0.000     0
         -7.57789628   -0.15718742   -6.06551066    c      0.000     0
         -9.08417808   -0.17132257   -3.51222609    c      0.000     0
         -8.26025749   -2.47106258   -2.30535250    n      0.000     0
         -6.61475956   -3.88882961   -3.80252582    c      0.000     0
         -6.13004481   -2.46361706   -5.96499613    n      0.000     0
         -6.13244476    2.18119749   -5.92087102    n      0.000     0
         -6.57052107    3.51260404   -3.73294611    c      0.000     0
         -8.29030413    2.17314726   -2.30712884    n      0.000     0
         -5.64803236    5.57045911   -3.17409740    o      0.000     0
         -5.82026200   -5.98396898   -3.34266097    o      0.000     0
         -9.35011924    3.19163405    0.00000000    c      0.000     0
         -9.31376091   -3.50842774    0.00000000    c      0.000     0
          1.49517021   -0.17859802   -9.46303038    c      0.000     0
         -1.46652197   -0.15990863   -9.49727222    c      0.000     0
         -2.12694345   -2.49833133   -8.25305763    n      0.000     0
         -0.02575697   -3.98499778   -7.67166449    c      0.000     0
          2.10343526   -2.56929055   -8.29797642    n      0.000     0
          2.12197347    2.06505492   -8.00474762    n      0.000     0
          0.01808468    3.41424379   -7.24466197    c      0.000     0
         -2.08986703    2.13688341   -8.13632925    n      0.000     0
         -0.00054802    5.39703894   -6.06078635    o      0.000     0
         -0.05890276   -6.12080405   -6.85004936    o      0.000     0
         -4.58936999    3.20584480   -7.94284019    c      0.000     0
         -4.66269136   -3.49843109   -8.03991542    c      0.000     0
         -2.27540034   -0.09046119   11.40835225    h      0.000     0
          2.34751229   -0.04926516   11.35175496    h      0.000     0
          5.62187855    2.86968141    9.59370494    h      0.000     0
          4.45801513    5.08933483    7.29296337    h      0.000     0
          5.64202303   -3.29632488    9.87648356    h      0.000     0
          4.37509394   -5.65731092    7.77569391    h      0.000     0
        -11.14452759   -0.16293219    3.76225576    h      0.000     0
         -8.79361379   -0.12209521    7.74712125    h      0.000     0
         -4.36324536    5.21976373    7.54975826    h      0.000     0
         -5.58217541    2.92535275    9.74042328    h      0.000     0
         -4.46555513   -5.52281911    7.67215582    h      0.000     0
         -5.68650719   -3.17496667    9.81550210    h      0.000     0
         11.16584370   -0.66185768   -3.79816055    h      0.000     0
          8.78410847   -0.29829327   -7.74084736    h      0.000     0
          5.62187855    2.86968141   -9.59370494    h      0.000     0
          4.45801513    5.08933483   -7.29296337    h      0.000     0
          5.64202303   -3.29632488   -9.87648356    h      0.000     0
          4.37509394   -5.65731092   -7.77569391    h      0.000     0
          8.78410847   -0.29829327    7.74084736    h      0.000     0
         11.16584370   -0.66185768    3.79816055    h      0.000     0
          9.41087394    4.87880044    0.00000000    h      0.000     0
         11.68342079    2.34900517    0.00000000    h      0.000     0
          8.57412210   -5.82166040    0.00000000    h      0.000     0
         11.19993436   -3.65263274    0.00000000    h      0.000     0
         -8.79361379   -0.12209521   -7.74712125    h      0.000     0
        -11.14452759   -0.16293219   -3.76225576    h      0.000     0
        -11.39499189    2.85599980    0.00000000    h      0.000     0
         -8.95318227    5.21726929    0.00000000    h      0.000     0
        -11.36931051   -3.22642391    0.00000000    h      0.000     0
         -8.85580468   -5.52406633    0.00000000    h      0.000     0
          2.34751229   -0.04926516  -11.35175496    h      0.000     0
         -2.27540034   -0.09046119  -11.40835225    h      0.000     0
         -4.36324536    5.21976373   -7.54975826    h      0.000     0
         -5.58217541    2.92535275   -9.74042328    h      0.000     0
         -4.46555513   -5.52281911   -7.67215582    h      0.000     0
         -5.68650719   -3.17496667   -9.81550210    h      0.000     0
         -0.66782922    1.57591821    0.00000000    c      6.000     0
          0.56754145    4.17423495    0.00000000    c      6.000     0
          1.31660999   -0.54063175    0.00000000    c      6.000     0
          0.12929506   -3.17817920    0.00000000    c      6.000     0
         -1.40340511    6.24357955    0.00000000    n      7.000     0
         -2.58212179    6.12095523   -1.56679083    h      1.000     0
         -2.58212179    6.12095523    1.56679083    h      1.000     0
         -1.88439711    1.36939004   -1.66855259    h      1.000     0
         -1.88439711    1.36939004    1.66855259    h      1.000     0
          2.53748646   -0.31331659   -1.66122045    h      1.000     0
          2.53748646   -0.31331659    1.66122045    h      1.000     0
         -0.54907883    7.97687416    0.00000000    h      1.000     0
          1.72360031    4.48401776   -1.67596031    h      1.000     0
          1.72360031    4.48401776    1.67596031    h      1.000     0
          1.57434974   -4.65161757    0.00000000    h      1.000     0
         -1.05558212   -3.46651362    1.67068798    h      1.000     0
         -1.05558212   -3.46651362   -1.67068798    h      1.000     0
 
       center of nuclear mass  :    0.00955333   -0.12564713   -0.00000000
       center of nuclear charge:   -0.07550906    1.75831238    0.00000000

              +--------------------------------------------------+
              |               basis set information              |
              +--------------------------------------------------+

              we will work with the 1s 3p 5d 7f 9g ... basis set
              ...i.e. with spherical basis functions...

   type   atoms  prim   cont   basis
   ---------------------------------------------------------------------------
    c       40     46     31   def2-TZVP   [5s3p2d1f|11s6p2d1f]
    n       25     46     31   def2-TZVP   [5s3p2d1f|11s6p2d1f]
    o       12     46     31   def2-TZVP   [5s3p2d1f|11s6p2d1f]
    h       48      8      6   def2-TZVP   [3s1p|5s1p]
   ---------------------------------------------------------------------------
   total:  125   3926   2675
   ---------------------------------------------------------------------------

   total number of primitive shells          :   66
   total number of contracted shells         : 1039
   total number of cartesian basis functions : 3060
   total number of SCF-basis functions       : 2675


 integral neglect threshold       :  0.11E-13
 integral storage threshold THIZE :  0.10E-04
 integral storage threshold THIME :         5

 RI-J AUXILIARY BASIS SET information:

              we will work with the 1s 3p 5d 7f 9g ... basis set
              ...i.e. with spherical basis functions...

   type   atoms  prim   cont   basis
   ---------------------------------------------------------------------------
    c       40     70     49   def2-TZVP   [6s4p3d1f1g|12s5p4d2f1g]
    n       25     70     49   def2-TZVP   [6s4p3d1f1g|12s5p4d2f1g]
    o       12     70     49   def2-TZVP   [6s4p3d1f1g|12s5p4d2f1g]
    h       48     16     11   def2-TZVP   [3s1p1d|5s2p1d]
   ---------------------------------------------------------------------------
   total:  125   6158   4301
   ---------------------------------------------------------------------------

   total number of primitive shells          :   80
   total number of contracted shells         : 1395
   total number of cartesian basis functions : 5273
   total number of SCF-basis functions       : 4301


 symmetry group of the molecule :   c1 

 the group has the following generators :
   c1(z)

    1 symmetry operations found

 there are 1 real representations :   a   

 maximum number of shells which are related by symmetry :  1


    mo occupation :
   irrep   mo's   occupied
    a     2675       21
 
 number of basis functions   :         2675
 number of occupied orbitals :           21
 
  
           ------------------
           density functional
           ------------------
 Dummy atoms with grid-point found.
 DFT quadrature threshold dgrenze tightened by factor 1/10.

 PBE functional
 exchange:    LDA + PBE
 correlation: LDA (PW) + PBE
 Dummy atoms with grid-point found.
 DFT quadrature threshold dgrenze tightened by factor 1/10.

 Dummy atoms with grid-point found.
 DFT quadrature threshold dgrenze tightened by factor 1/10.

 iterations will be done with small grid
  
 spherical integration : Lebedev's spherical grid
 spherical gridsize    :           5
    i.e. gridpoints    :         590
 value for diffuse not defined
 radial integration    : Chebyshev 2nd kind (scaling 3)
 radial gridsize       :           8
 integration cells     :         125
 partition function    : becke
 partition sharpness   :           3
  
 found dummy atom(s) with basis: included in dft

 biggest AO integral is expected to be     7.998976882
  
           ------------------------
               RI-J - INFORMATION
           ------------------------
 Contributions to RI integral batches: 
  neglected integral batches:      304090
  direct contribution:             193434
  memory contribution:       42756
 Memory core needed for (P|Q) and Cholesky    142 MByte
 Memory core minimum needed except of (P|Q)     2 MByte
 Total minimum memory core needed (sum)       143 MByte
  
 ****************************************
 Memory allocated for RI-J  4117 MByte
 ****************************************
                                            

          ------------------------
          nuclear repulsion energy  :   194.090624652    
          ------------------------

 
          -----------------
          -S,T+V- integrals
          -----------------

 1e-integrals will be neglected if expon. factor < 0.109214E-14
 
   Difference densities algorithm switched on.
   The maximal number of linear combinations of
   difference densities is          20 .

 automatic virtual orbital shift switched on 
      shift if e(lumo)-e(homo) < 0.10000000    


 DIIS switched on: error vector is FDS-SDF
 Max. Iterations for DIIS is     :   4
 DIIS matrix (see manual) 
    Scaling factor of diagonals  :  1.200
    threshold for scaling factor :  0.000

 scf convergence criterion : increment of total energy < .1000000D-08
                  and increment of one-electron energy < .1000000D-05


 <geterg> : there is no data group $energy 

  MOs are in ASCII format !


 reading orbital data $scfmo  from file mos . 

 orbital characterization : expanded
 
 mo provided and orthogonalized by Cholesky decomposition

 DSCF restart information will be dumped onto file mos


 Starting SCF iterations

          Overall gridpoints after grid construction =        881026

 ITERATION  ENERGY          1e-ENERGY        2e-ENERGY     RMS[dD(SAO)]   TOL
   1  -213.17146698423    -654.02779177     246.76570014    0.000D+00 0.109D-13
                            Exc = -31.4176159045     Coul =  278.183316042    
                              N = 42.000363694    
                            current damping = 0.700
 
          max. resid. norm for Fia-block=  2.725D-01 for orbital      1a         
          max. resid. fock norm         =  2.184D+01 for orbital   1923a         

 ITERATION  ENERGY          1e-ENERGY        2e-ENERGY     RMS[dD(SAO)]   TOL
   2  -213.77259474183    -660.21863689     252.35541749    0.595D-03 0.769D-14
                            Exc = -32.1144355124     Coul =  284.469853003    
                              N = 42.000261792    
                            current damping = 0.650
 
          Norm of current diis error:  1.8480    
          max. resid. norm for Fia-block=  1.196D-01 for orbital      1a         
          max. resid. fock norm         =  1.318D-01 for orbital     22a         

 ITERATION  ENERGY          1e-ENERGY        2e-ENERGY     RMS[dD(SAO)]   TOL
   3  -213.89716836369    -661.26365306     253.27586005    0.400D-03 0.553D-14
                            Exc = -32.3054276462     Coul =  285.581287695    
                              N = 42.000187248    
                            current damping = 0.550
 
          Norm of current diis error: 0.91372    
          max. resid. norm for Fia-block=  5.097D-02 for orbital      1a         
          max. resid. fock norm         =  5.371D-02 for orbital     22a         

 ITERATION  ENERGY          1e-ENERGY        2e-ENERGY     RMS[dD(SAO)]   TOL
   4  -213.93469773520    -662.69943904     254.67411665    0.192D-03 0.472D-14
                            Exc = -32.4853515360     Coul =  287.159468189    
                              N = 42.000126820    
                            current damping = 0.450
 
          Norm of current diis error: 0.33413    
          max. resid. norm for Fia-block=  1.808D-02 for orbital      6a         
          max. resid. fock norm         =  2.375D-02 for orbital   1571a         

 ITERATION  ENERGY          1e-ENERGY        2e-ENERGY     RMS[dD(SAO)]   TOL
   5  -213.94027471112    -662.84244402     254.81154466    0.847D-04 0.430D-14
                            Exc = -32.5227147821     Coul =  287.334259442    
                              N = 42.000101575    
                            current damping = 0.300
 
          Norm of current diis error: 0.13565    
          max. resid. norm for Fia-block=  7.812D-03 for orbital      6a         
          max. resid. fock norm         =  8.441D-03 for orbital     22a         
          mo-orthogonalization: Cholesky decomposition

 ITERATION  ENERGY          1e-ENERGY        2e-ENERGY     RMS[dD(SAO)]   TOL
   6  -213.94110206856    -663.17584839     255.14412167    0.348D-04 0.409D-14
                            Exc = -32.5630079676     Coul =  287.707129635    
                              N = 42.000090740    
                            current damping = 0.150
 
          Norm of current diis error: 0.58651E-01
          max. resid. norm for Fia-block=  3.436D-03 for orbital     10a         
          max. resid. fock norm         =  4.672D-03 for orbital   1582a         

 ITERATION  ENERGY          1e-ENERGY        2e-ENERGY     RMS[dD(SAO)]   TOL
   7  -213.94124139796    -663.12864229     255.09677624    0.101D-04 0.401D-14
                            Exc = -32.5593999758     Coul =  287.656176213    
                              N = 42.000088391    
                            current damping = 0.200
 
          Norm of current diis error: 0.20814E-01
          max. resid. norm for Fia-block=  9.751D-04 for orbital     13a         
          max. resid. fock norm         =  1.245D-03 for orbital     13a         

 ITERATION  ENERGY          1e-ENERGY        2e-ENERGY     RMS[dD(SAO)]   TOL
   8  -213.94125756816    -663.11717045     255.08528823    0.302D-05 0.398D-14
                            Exc = -32.5597499283     Coul =  287.645038159    
                              N = 42.000088313    
                            current damping = 0.050
 
          Norm of current diis error: 0.72424E-02
          max. resid. norm for Fia-block=  2.713D-04 for orbital     19a         
          max. resid. fock norm         =  3.676D-04 for orbital     17a         

 ITERATION  ENERGY          1e-ENERGY        2e-ENERGY     RMS[dD(SAO)]   TOL
   9  -213.94125932374    -663.14472005     255.11283607    0.139D-05 0.395D-14
                            Exc = -32.5617107855     Coul =  287.674546859    
                              N = 42.000088164    
                            current damping = 0.100
 
          Norm of current diis error: 0.33634E-02
          max. resid. norm for Fia-block=  1.164D-04 for orbital     19a         
          max. resid. fock norm         =  1.532D-04 for orbital     17a         

 ITERATION  ENERGY          1e-ENERGY        2e-ENERGY     RMS[dD(SAO)]   TOL
  10  -213.94125977746    -663.13662590     255.10474147    0.480D-06 0.394D-14
                            Exc = -32.5611535665     Coul =  287.665895041    
                              N = 42.000088130    
                            current damping = 0.150
 
          Norm of current diis error: 0.72286E-03
          max. resid. norm for Fia-block=  4.214D-05 for orbital     15a         
          max. resid. fock norm         =  5.131D-05 for orbital   2599a         
          mo-orthogonalization: Cholesky decomposition

 ITERATION  ENERGY          1e-ENERGY        2e-ENERGY     RMS[dD(SAO)]   TOL
  11  -213.94125979178    -663.13560250     255.10371806    0.121D-06 0.392D-14
                            Exc = -32.5610589063     Coul =  287.664776966    
                              N = 42.000088195    
                            current damping = 0.050
 
          Norm of current diis error: 0.45381E-03
          max. resid. norm for Fia-block=  1.559D-05 for orbital     15a         
          max. resid. fock norm         =  1.973D-05 for orbital   2599a         

 DENSITY CONVERGED !


 ITERATION  ENERGY          1e-ENERGY        2e-ENERGY     RMS[dD(SAO)]   TOL
  12  -213.94125980097    -663.13635813     255.10447368    0.506D-07 0.391D-14
                            Exc = -32.5611245253     Coul =  287.665598204    
                              N = 42.000088166    
                            current damping = 0.100
 
          Norm of current diis error: 0.55628E-04
          max. resid. norm for Fia-block=  4.513D-06 for orbital     10a         
          max. resid. fock norm         =  5.387D-06 for orbital     11a         

 DENSITY CONVERGED !


 ITERATION  ENERGY          1e-ENERGY        2e-ENERGY     RMS[dD(SAO)]   TOL
  13  -213.94125980086    -663.13622935     255.10434490    0.955D-08 0.390D-14
                            Exc = -32.5611111112     Coul =  287.665456013    
                              N = 42.000088168    
                            current damping = 0.150
 
          Norm of current diis error: 0.58873E-04
          max. resid. norm for Fia-block=  1.908D-06 for orbital     10a         
          max. resid. fock norm         =  2.596D-06 for orbital     11a         

 ENERGY & DENSITY CONVERGED !

          Overall gridpoints after grid construction =       1908249

 ITERATION  ENERGY          1e-ENERGY        2e-ENERGY     RMS[dD(SAO)]   TOL
  14  -213.94127318080    -663.13623308     255.10433524    0.483D-08 0.389D-14
                            Exc = -32.5611263857     Coul =  287.665461629    
                              N = 42.000026581    
                            current damping = 0.200
 
          Norm of current diis error: 0.12867E-04
          max. resid. norm for Fia-block=  5.592D-07 for orbital     10a         
          max. resid. fock norm         =  6.310D-07 for orbital     11a         

 End of SCF iterations

   convergence criteria satisfied after   14 iterations


                  ------------------------------------------ 
                 |  total energy      =   -213.94127318080  |
                  ------------------------------------------ 
                 :  kinetic energy    =    212.86018140253  :
                 :  potential energy  =   -426.80145458333  :
                 :  virial theorem    =      1.99494678253  :
                 :  wavefunction norm =      1.00000000000  :
                  .......................................... 


 <geterg> : there is no data group $energy 


 <skperg> : $end is missing 


 orbitals $scfmo  will be written to file mos

    irrep                 17a         18a         19a         20a         21a   
 eigenvalues H         -0.50038    -0.47701    -0.45057    -0.43418    -0.42538
            eV         -13.6162    -12.9802    -12.2608    -11.8147    -11.5752
 occupation              2.0000      2.0000      2.0000      2.0000      2.0000 

    irrep                 22a         23a         24a         25a         26a   
 eigenvalues H         -0.21679    -0.16132    -0.15591    -0.14795    -0.12033
            eV          -5.8991     -4.3898     -4.2425     -4.0259     -3.2743
 
 
 
 
 ==============================================================================
                           electrostatic moments
 ==============================================================================

 reference point for electrostatic moments:    0.00000   0.00000   0.00000

 
              nuc           elec       ->  total
 ------------------------------------------------------------------------------
                          charge      
 ------------------------------------------------------------------------------
          43.000000     -42.000000       1.000000
 
 ------------------------------------------------------------------------------
                       dipole moment  
 ------------------------------------------------------------------------------
   x      -3.246890       2.281018      -0.965871
   y      75.607432     -70.546687       5.060745
   z       0.000000      -0.000000      -0.000000
 
   | dipole moment | =     5.1521 a.u. =    13.0953 debye 
 
 ------------------------------------------------------------------------------
                     quadrupole moment
 ------------------------------------------------------------------------------
  xx      73.160945     -93.410542     -20.249597
  yy     683.074478    -671.185281      11.889197
  zz      27.197192     -49.087926     -21.890734
  xy     -87.461245      80.120065      -7.341181
  xz       0.000000      -0.000000      -0.000000
  yz       0.000000       0.000000       0.000000
 
     1/3  trace=     -10.083712
     anisotropy=      35.355599
 
 ==============================================================================
 
 


    ------------------------------------------------------------------------
         total  cpu-time :  1 hours 22 minutes and 29 seconds
         total wall-time :  1 hours 22 minutes and 35 seconds
    ------------------------------------------------------------------------


   ****  ridft : all done  ****


    2015-09-22 16:16:09.981 

