Using Slurm to start processes with PMI2
Parallel program ridft_mpi will be taken out of the TURBODIR directory.
STARTING ridft ON 8 PROCESSORS!
RUNNING PROGRAM /modfac/apps/TURBOMOLE/7.0_intel_GA/bin/em64t-unknown-linux-gnu_ga/ridft_mpi.
PLEASE WAIT UNTIL ridft HAS FINISHED.
Look for the output in slave1.output.
 <<<<<<<<<<<<<<< OUTPUT FROM PROCESS                      0 >>>>>>>>>>>>>>>
 distribution of control by ridft_mpi/rdgrad_mpi
 operating system is UNIX !
 hostname is         c-9-372.local

 ridft (c-9-372.local) : TURBOMOLE V7.0.2( ) 15 Jan 2016 at 16:16:51
 Copyright (C) 2016 TURBOMOLE GmbH, Karlsruhe


    2016-01-30 02:43:01.572 



                                  r i d f t

                        DFT program with RI approximation 
                                for coulomb part 




                                                 
                                 References:     
                                                 
          TURBOMOLE:                             
              R. Ahlrichs, M. Baer, M. Haeser, H. Horn, and
              C. Koelmel
              Electronic structure calculations on workstation
              computers: the program system TURBOMOLE
              Chem. Phys. Lett. 162: 165 (1989)
          Density Functional:                              
              O. Treutler and R. Ahlrichs                      
              Efficient Molecular Numerical Integration Schemes
              J. Chem. Phys. 102: 346 (1995)                   
          Parallel Version:                                
              Performance of parallel TURBOMOLE for Density    
              Functional Calculations                          
              M. v. Arnim and R. Ahlrichs                      
              J. Comp. Chem. 19: 1746 (1998)                   
          RI-J Method:                                     
              Auxiliary Basis Sets to approximate Coulomb      
              Potentials                                       
              Chem. Phys. Lett. 240: 283 (1995)                
              K. Eichkorn, O. Treutler, H. Oehm, M. Haeser     
              and R. Ahlrichs                                  
              Chem. Phys. Lett. 242: 652 (1995)                
                                                           
              Auxiliary Basis Sets for Main Row Atoms and their
              Use to approximate Coulomb Potentials            
              K. Eichkorn, F. Weigend, O. Treutler and         
              R. Ahlrichs                                      
              Theo. Chem. Acc. 97: 119 (1997)                   
                                                           
              Accurate Coulomb-fitting basis sets for H to Rn 
              F. Weigend                                        
              Phys. Chem. Chem. Phys. 8: 1057 (2006)            
                                                           
          Multipole accelerated RI-J (MARI-J):             
              Fast evaluation of the Coulomb potential for     
              electron densities using multipole accelerated   
              resolution of identity approximation             
              M. Sierka, A. Hogekamp and R. Ahlrichs           
              J. Chem. Phys. 118: 9136 (2003)                  
          RI-JK Method:                                     
              A fully direct RI-HF algorithm: Implementation,
              optimised auxiliary basis sets, demonstration of
              accuracy and efficiency                         
              F. Weigend                                      
              Phys. Chem. Chem. Phys. 4: 4285 (2002)           
          Two-component HF and DFT with spin-orbit coupling:  
              Self-consistent treatment of spin-orbit         
              interactions with efficient Hartree-Fock and    
              density functional methods                      
              M. K. Armbruster, F. Weigend, C. van Wüllen and 
              W. Klopper                                      
              Phys. Chem. Chem. Phys. 10: 1748 (2008)         
          Relativistic all-electron 2c calculations           
              An efficient implementation of two-component    
              relativistic exact-decoupling methods for large 
              molecules                                       
              D. Peng, N. Middendorf, F. Weigend, M. Reiher   
              J. Chem. Phys. 138, 184105 (2013)               
                                         


 Default GA heap smaller than $ricore!
GA heap raised to: 1638400000
 par_setmem:             1638400000                131072 F
 MA:  Allocated stack:    1.000000      MB/processor
 SHM: Allocated heap :    12500.00      MB/processor
 ********** GlobalArray OPTION SETTINGS : **********
 distributed memory heap/proc      =   1638400000
 distributed memory stack/proc     =       131072
 *****************************************************
  Distributing input file(s)
 


              +--------------------------------------------------+
              |      general information about current run       |
              +--------------------------------------------------+

 

 SCF run will be profiled !

 DENSITY CONVERGENCE CHECK UNAVAILABLE IN GA VERSION!
 PBE functional
 exchange:    LDA + PBE
 correlation: LDA (PW) + PBE
 A DFT calculation using the RI-J approximation will be carried out.
 Allocatable memory for RI due to $ricore (MB):       10000


              +--------------------------------------------------+
              | Atomic coordinate, charge and isotop information |
              +--------------------------------------------------+

                    atomic coordinates            atom    charge  isotop
          2.30186531    1.31056323    0.00000000    c      6.000     0
          2.30186531   -1.31056323    0.00000000    c      6.000     0
         -2.30186531   -1.31056323    0.00000000    c      6.000     0
         -2.30186531    1.31056323    0.00000000    c      6.000     0
          0.00000000    2.63574674    0.00000000    c      6.000     0
          0.00000000   -2.63574674    0.00000000    c      6.000     0
          0.00000000    5.33572864    0.00000000    c      6.000     0
          0.00000000   -5.33572864    0.00000000    c      6.000     0
          0.00000000    7.53232554    0.00000000    n      7.000     0
          0.00000000   -7.53232554    0.00000000    n      7.000     0
         -4.06854322   -2.34920594    0.00000000    h      1.000     0
         -4.06854322    2.34920594    0.00000000    h      1.000     0
          4.06854322    2.34920594    0.00000000    h      1.000     0
          4.06854322   -2.34920594    0.00000000    h      1.000     0
 
       center of nuclear mass  :    0.00000000    0.00000000    0.00000000
       center of nuclear charge:    0.00000000    0.00000000    0.00000000

              +--------------------------------------------------+
              |               basis set information              |
              +--------------------------------------------------+

              we will work with the 1s 3p 5d 7f 9g ... basis set
              ...i.e. with spherical basis functions...

   type   atoms  prim   cont   basis
   ---------------------------------------------------------------------------
    c        8     77     55   cc-pVQZ   [5s4p3d2f1g|21s6p3d2f1g]
    n        2     77     55   cc-pVQZ   [5s4p3d2f1g|21s6p3d2f1g]
    h        4     32     30   cc-pVQZ   [4s3p2d1f|6s3p2d1f]
   ---------------------------------------------------------------------------
   total:   14    898    670
   ---------------------------------------------------------------------------

   total number of primitive shells          :   78
   total number of contracted shells         :  190
   total number of cartesian basis functions :  840
   total number of SCF-basis functions       :  670


 integral neglect threshold       :  0.40E-13
 integral storage threshold THIZE :  0.10E-04
 integral storage threshold THIME :         5

 RI-J AUXILIARY BASIS SET information:

              we will work with the 1s 3p 5d 7f 9g ... basis set
              ...i.e. with spherical basis functions...

   type   atoms  prim   cont   basis
   ---------------------------------------------------------------------------
    c        8     70     49   cc-pVQZ   [6s4p3d1f1g|12s5p4d2f1g]
    n        2     70     49   cc-pVQZ   [6s4p3d1f1g|12s5p4d2f1g]
    h        4     16     11   cc-pVQZ   [3s1p1d|5s2p1d]
   ---------------------------------------------------------------------------
   total:   14    764    534
   ---------------------------------------------------------------------------

   total number of primitive shells          :   56
   total number of contracted shells         :  170
   total number of cartesian basis functions :  658
   total number of SCF-basis functions       :  534


 symmetry group of the molecule :   c1 

 the group has the following generators :
   c1(z)

    1 symmetry operations found

 there are 1 real representations :   a   

 maximum number of shells which are related by symmetry :  1


    mo occupation :
   irrep   mo's   occupied
    a      670       33
 
 number of basis functions   :          670
 number of occupied orbitals :           33
 
  
           ------------------
           density functional
           ------------------
 PBE functional
 exchange:    LDA + PBE
 correlation: LDA (PW) + PBE
 grinp -> nfun, dfgga, dfhybrid 
           6 T F
 iterations will be done with small grid
  
 spherical integration : Lebedev's spherical grid
 spherical gridsize    :           5
    i.e. gridpoints    :         590
 value for diffuse not defined
 radial integration    : Chebyshev 2nd kind (scaling 3)
 radial gridsize       :           8
 integration cells     :          14
 partition function    : becke
 partition sharpness   :           3
  

 biggest AO integral is expected to be     4.161848376
  
           ------------------------
               RI-J - INFORMATION
           ------------------------
 Memory core needed for (P|Q) and Cholesky      2 MByte on GA
 Memory core minimum needed except           1 MByte 
  
 ****************************************
 Memory allocated for RI-J 1 MByte
 plus additional 1604 MByte (integrals) (GA)
 plus additional 2 MByte (pqmatrix)  (GA)
 ****************************************
                                            

          ------------------------
          nuclear repulsion energy  :   406.497496023    
          ------------------------

 
          -----------------
          -S,T+V- integrals
          -----------------

 1e-integrals will be neglected if expon. factor < 0.397853E-14
 
   Difference densities algorithm switched on.
   The maximal number of linear combinations of
   difference densities is          20 .

 automatic virtual orbital shift switched on 
      shift if e(lumo)-e(homo) < 0.10000000    


 DIIS switched on: error vector is FDS-SDF
 Max. Iterations for DIIS is     :   4
 DIIS matrix (see manual) 
    Scaling factor of diagonals  :  1.200
    threshold for scaling factor :  0.000

 scf convergence criterion : increment of total energy < .1000000D-08
                  and increment of one-electron energy < .1000000D-05


 <geterg> : there is no data group $energy 

  MOs are in ASCII format !


 reading orbital data $scfmo  from file mos . 

 orbital characterization : expanded
 
 stacho: isym= 1 dev_max=0.475238E-10 threshold=0.100000E-09
 mo provided and orthogonalized by Cholesky decomposition

 DSCF restart information will be dumped onto file mos


 Starting SCF iterations

 non-zero weights=       75490
          Overall gridpoints after grid construction =         75490

 ITERATION  ENERGY          1e-ENERGY        2e-ENERGY     NORM[dD(SAO)]  TOL
   1  -414.18027652386    -1347.0536680     526.37589544    0.000D+00 0.397D-13
                            Exc = -56.9495608776     Coul =  583.325456313    
                              N = 66.000013653    
                            current damping = 0.700
 
          max. resid. norm for Fia-block=  4.340D-01 for orbital     26a         
          max. resid. fock norm         =  9.907D+00 for orbital    611a         

 ITERATION  ENERGY          1e-ENERGY        2e-ENERGY     NORM[dD(SAO)]  TOL
   2  -416.04870442415    -1360.1044482     537.55824773    0.301D+01 0.305D-13
                            Exc = -57.6078851411     Coul =  595.166132872    
                              N = 66.000001949    
                            current damping = 0.650
 
          Norm of current diis error:  3.4968    
          max. resid. norm for Fia-block=  1.680D-01 for orbital      1a         
          max. resid. fock norm         =  4.064D-01 for orbital    610a         

 ITERATION  ENERGY          1e-ENERGY        2e-ENERGY     NORM[dD(SAO)]  TOL
   3  -416.28643006840    -1363.7353415     540.95141545    0.121D+01 0.211D-13
                            Exc = -57.9838941109     Coul =  598.935309556    
                              N = 65.999998430    
                            current damping = 0.550
 
          Norm of current diis error:  1.8187    
          max. resid. norm for Fia-block=  6.906D-02 for orbital      1a         
          max. resid. fock norm         =  8.695D-02 for orbital    116a         

 ITERATION  ENERGY          1e-ENERGY        2e-ENERGY     NORM[dD(SAO)]  TOL
   4  -416.36881022831    -1365.5404867     542.67418050    0.645D+00 0.175D-13
                            Exc = -57.9661324582     Coul =  600.640312953    
                              N = 65.999997181    
                            current damping = 0.450
 
          Norm of current diis error: 0.86619    
          max. resid. norm for Fia-block=  4.319D-02 for orbital     13a         
          max. resid. fock norm         =  7.678D-02 for orbital    602a         

 ITERATION  ENERGY          1e-ENERGY        2e-ENERGY     NORM[dD(SAO)]  TOL
   5  -416.38433146740    -1365.8461697     542.96434218    0.217D+00 0.162D-13
                            Exc = -58.0957342547     Coul =  601.060076433    
                              N = 65.999995349    
                            current damping = 0.300
 
          Norm of current diis error: 0.45020    
          max. resid. norm for Fia-block=  1.049D-02 for orbital     30a         
          max. resid. fock norm         =  1.133D-02 for orbital    119a         
          mo-orthogonalization: Cholesky decomposition

 ITERATION  ENERGY          1e-ENERGY        2e-ENERGY     NORM[dD(SAO)]  TOL
   6  -416.38995631206    -1366.1977580     543.31030562    0.794D-01 0.152D-13
                            Exc = -58.0827460727     Coul =  601.393051690    
                              N = 65.999994991    
                            current damping = 0.150
 
          Norm of current diis error: 0.98113E-01
          max. resid. norm for Fia-block=  3.255D-03 for orbital     12a         
          max. resid. fock norm         =  5.268D-03 for orbital    658a         

 ITERATION  ENERGY          1e-ENERGY        2e-ENERGY     NORM[dD(SAO)]  TOL
   7  -416.39013348296    -1366.2286907     543.34106124    0.204D-01 0.148D-13
                            Exc = -58.0882942975     Coul =  601.429355539    
                              N = 65.999994866    
                            current damping = 0.050
 
          Norm of current diis error: 0.53209E-01
          max. resid. norm for Fia-block=  1.523D-03 for orbital     19a         
          max. resid. fock norm         =  2.563D-03 for orbital    396a         

 ITERATION  ENERGY          1e-ENERGY        2e-ENERGY     NORM[dD(SAO)]  TOL
   8  -416.39019369373    -1366.1873066     543.29961687    0.491D-02 0.147D-13
                            Exc = -58.0886210125     Coul =  601.388237883    
                              N = 65.999994750    
                            current damping = 0.100
 
          Norm of current diis error: 0.20619E-01
          max. resid. norm for Fia-block=  3.649D-04 for orbital     33a         
          max. resid. fock norm         =  6.063D-04 for orbital     13a         

 ITERATION  ENERGY          1e-ENERGY        2e-ENERGY     NORM[dD(SAO)]  TOL
   9  -416.39020213958    -1366.2311437     543.34344550    0.176D-02 0.146D-13
                            Exc = -58.0898369813     Coul =  601.433282477    
                              N = 65.999994779    
                            current damping = 0.150
 
          Norm of current diis error: 0.61850E-02
          max. resid. norm for Fia-block=  1.362D-04 for orbital     22a         
          max. resid. fock norm         =  1.790D-04 for orbital     22a         

 ITERATION  ENERGY          1e-ENERGY        2e-ENERGY     NORM[dD(SAO)]  TOL
  10  -416.39020296442    -1366.2126974     543.32499837    0.303D-03 0.145D-13
                            Exc = -58.0888741453     Coul =  601.413872511    
                              N = 65.999994768    
                            current damping = 0.200
 
          Norm of current diis error: 0.17614E-02
          max. resid. norm for Fia-block=  4.519D-05 for orbital     20a         
          max. resid. fock norm         =  9.192D-05 for orbital    662a         
          mo-orthogonalization: Cholesky decomposition

 ITERATION  ENERGY          1e-ENERGY        2e-ENERGY     NORM[dD(SAO)]  TOL
  11  -416.39020301650    -1366.2161885     543.32848944    0.159D-03 0.145D-13
                            Exc = -58.0891483768     Coul =  601.417637818    
                              N = 65.999994772    
                            current damping = 0.250
 
          Norm of current diis error: 0.10495E-02
          max. resid. norm for Fia-block=  2.140D-05 for orbital     20a         
          max. resid. fock norm         =  4.042D-05 for orbital    662a         

 ITERATION  ENERGY          1e-ENERGY        2e-ENERGY     NORM[dD(SAO)]  TOL
  12  -416.39020303678    -1366.2165675     543.32886843    0.117D-04 0.144D-13
                            Exc = -58.0891244601     Coul =  601.417992893    
                              N = 65.999994770    
                            current damping = 0.100
 
          Norm of current diis error: 0.34761E-03
          max. resid. norm for Fia-block=  9.017D-06 for orbital     30a         
          max. resid. fock norm         =  1.100D-05 for orbital    658a         

 ITERATION  ENERGY          1e-ENERGY        2e-ENERGY     NORM[dD(SAO)]  TOL
  13  -416.39020303818    -1366.2164769     543.32877779    0.549D-05 0.143D-13
                            Exc = -58.0891534935     Coul =  601.417931287    
                              N = 65.999994770    
                            current damping = 0.150
 
          Norm of current diis error: 0.24798E-03
          max. resid. norm for Fia-block=  5.270D-06 for orbital     30a         
          max. resid. fock norm         =  7.573D-06 for orbital    553a         

 ITERATION  ENERGY          1e-ENERGY        2e-ENERGY     NORM[dD(SAO)]  TOL
  14  -416.39020303956    -1366.2163704     543.32867138    0.155D-05 0.143D-13
                            Exc = -58.0891178139     Coul =  601.417789192    
                              N = 65.999994771    
                            current damping = 0.050
 
          Norm of current diis error: 0.79115E-04
          max. resid. norm for Fia-block=  2.406D-06 for orbital     29a         
          max. resid. fock norm         =  4.244D-06 for orbital     13a         

 ITERATION  ENERGY          1e-ENERGY        2e-ENERGY     NORM[dD(SAO)]  TOL
  15  -416.39020303960    -1366.2162716     543.32857252    0.286D-06 0.142D-13
                            Exc = -58.0891273674     Coul =  601.417699888    
                              N = 65.999994770    
                            current damping = 0.050
 
          Norm of current diis error: 0.78159E-04
          max. resid. norm for Fia-block=  1.178D-06 for orbital     33a         
          max. resid. fock norm         =  2.043D-06 for orbital    621a         
          mo-orthogonalization: Cholesky decomposition

 ITERATION  ENERGY          1e-ENERGY        2e-ENERGY     NORM[dD(SAO)]  TOL
  16  -416.39020303975    -1366.2164024     543.32870336    0.635D-07 0.141D-13
                            Exc = -58.0891287554     Coul =  601.417832113    
                              N = 65.999994770    
                            current damping = 0.100
 
          Norm of current diis error: 0.11981E-04
          max. resid. norm for Fia-block=  2.706D-07 for orbital     25a         
          max. resid. fock norm         =  4.158D-07 for orbital    612a         

 ITERATION  ENERGY          1e-ENERGY        2e-ENERGY     NORM[dD(SAO)]  TOL
  17  -416.39020303975    -1366.2163596     543.32866053    0.222D-07 0.141D-13
                            Exc = -58.0891261727     Coul =  601.417786701    
                              N = 65.999994770    
                            current damping = 0.150
 
          Norm of current diis error: 0.54807E-05
          max. resid. norm for Fia-block=  1.361D-07 for orbital     30a         
          max. resid. fock norm         =  2.169D-07 for orbital    419a         

 ITERATION  ENERGY          1e-ENERGY        2e-ENERGY     NORM[dD(SAO)]  TOL
  18  -416.39020303975    -1366.2163690     543.32866992    0.259D-08 0.140D-13
                            Exc = -58.0891265033     Coul =  601.417796423    
                              N = 65.999994770    
                            current damping = 0.200
 
          Norm of current diis error: 0.40006E-05
          max. resid. norm for Fia-block=  6.757D-08 for orbital     30a         
          max. resid. fock norm         =  8.498D-08 for orbital    443a         

 ENERGY CONVERGED !

 non-zero weights=      236004
          Overall gridpoints after grid construction =        236004

 ITERATION  ENERGY          1e-ENERGY        2e-ENERGY     NORM[dD(SAO)]  TOL
  19  -416.39019917533    -1366.2163708     543.32867556    0.704D-09 0.139D-13
                            Exc = -58.0891230579     Coul =  601.417798618    
                              N = 66.000003126    
                            current damping = 0.050
 
          Norm of current diis error: 0.80433E-06
          max. resid. norm for Fia-block=  2.281D-08 for orbital     29a         
          max. resid. fock norm         =  3.650D-08 for orbital    559a         

 End of SCF iterations

   convergence criteria satisfied after   19 iterations


                  ------------------------------------------ 
                 |  total energy      =   -416.39019917533  |
                  ------------------------------------------ 
                 :  kinetic energy    =    414.55054043106  :
                 :  potential energy  =   -830.94073960639  :
                 :  virial theorem    =      1.99558188750  :
                 :  wavefunction norm =      1.00000000000  :
                  .......................................... 


 <geterg> : there is no data group $energy 


 <skperg> : $end is missing 


 orbitals $scfmo  will be written to file mos

    irrep                 29a         30a         31a         32a         33a   
 eigenvalues H         -0.32229    -0.31982    -0.31929    -0.28568    -0.26699
            eV          -8.7702     -8.7027     -8.6884     -7.7739     -7.2652
 occupation              2.0000      2.0000      2.0000      2.0000      2.0000 

    irrep                 34a         35a         36a         37a         38a   
 eigenvalues H         -0.13017    -0.09389    -0.03475    -0.02740    -0.02307
            eV          -3.5422     -2.5548     -0.9457     -0.7456     -0.6278
 
 
 
 
 ==============================================================================
                           electrostatic moments
 ==============================================================================

 reference point for electrostatic moments:    0.00000   0.00000   0.00000

 
              nuc           elec       ->  total
 ------------------------------------------------------------------------------
                          charge      
 ------------------------------------------------------------------------------
          66.000000     -66.000000      -0.000000
 
 ------------------------------------------------------------------------------
                       dipole moment  
 ------------------------------------------------------------------------------
   x       0.000000      -0.000000      -0.000000
   y       0.000000      -0.000000      -0.000000
   z       0.000000      -0.000000      -0.000000
 
   | dipole moment | =     0.0000 a.u. =     0.0000 debye 
 
 ------------------------------------------------------------------------------
                     quadrupole moment
 ------------------------------------------------------------------------------
  xx     193.378189    -228.724662     -35.346473
  yy    1282.605822   -1351.285095     -68.679273
  zz       0.000000     -43.051731     -43.051731
  xy       0.000000       0.000000       0.000000
  xz       0.000000      -0.000000      -0.000000
  yz       0.000000       0.000000       0.000000
 
     1/3  trace=     -49.025826
     anisotropy=      30.225961
 
 ==============================================================================
 

    ridft profiling
  --------------------------------------------------------------------
             module   cpu total (s)       %  wall total (s)       %

               RIDFT            40.6  100.00            35.1  100.00
         Ridft_b_scf             2.4    5.97             2.1    5.92
        b_scf_prelim             0.0    0.00             0.0    0.00
        b_scf_molinp             0.0    0.01             0.0    0.02
         b_scf_init0             0.0    0.00             0.0    0.00
        b_scf_auxbas             0.0    0.01             0.0    0.01
      b_scf_symmetry             0.0    0.01             0.0    0.01
         b_scf_cosmo             0.0    0.00             0.0    0.00
        b_scf_params             0.2    0.46             0.2    0.53
          b_scf_ri-j             1.9    4.57             1.6    4.68
    b_scf_ri-j_auxpq             0.8    2.03             0.6    1.75
     ri-j_auxpq_chol             0.4    1.03             0.2    0.60
         b_scf_1elec             0.1    0.15             0.1    0.17
       b_scf_moinput             0.3    0.76             0.2    0.50
     moinput_orthmos             0.3    0.71             0.2    0.44
    b_scf_dft-dstmax             0.0    0.00             0.0    0.00
           Ridft_scf            38.1   93.95            33.0   93.88
          Scf_b_loop             0.0    0.02             0.0    0.03
                noga             0.0    0.00             0.0    0.00
            Scf_loop            37.9   93.51            32.8   93.37
     scf_loop_mkdmat             0.1    0.35             0.1    0.40
       scf_loop_ri-j             1.2    2.91             1.2    3.36
    ri-j_near_lpdrc1             0.0    0.03             0.0    0.03
    ri-j_near_lpdrc2             0.0    0.02             0.0    0.03
        scf_loop_dft            25.5   62.84            25.5   72.50
        dft_grid_con             0.2    0.38             0.2    0.44
           dft_xcrhf            24.9   61.44            24.9   70.90
          dft_getval             2.6    6.53             2.6    7.48
          funct2 dst             0.1    0.16             0.0    0.12
      funct2 f2loop1             0.6    1.56             0.6    1.66
      funct2 f2loop2             1.0    2.46             1.1    3.07
          funct2 s+c             0.9    2.13             0.8    2.40
        funct2 cmf_2             0.7    1.82             0.7    2.12
          dft_mkdens             9.1   22.44             9.1   25.98
         dft_gga-fun             0.1    0.18             0.1    0.22
          dft_mkfock            13.0   32.07            13.0   36.99
     scf_loop_energy             0.0    0.03             0.0    0.01
     scf_loop_mkfock             0.0    0.01             0.0    0.01
       scf_loop_diis             2.2    5.47             1.2    3.44
       scf_loop_diag             8.1   19.94             4.3   12.12
     scf_loop_modump             0.0    0.00             0.0    0.00
      scf_loop_ortho             0.6    1.37             0.3    0.82
          Scf_a_loop             0.2    0.42             0.2    0.48
         Ridft_a_scf             0.0    0.08             0.1    0.20
         a_scf_fanal             0.0    0.08             0.1    0.20
 


    ------------------------------------------------------------------------
         total  cpu-time :  40.77 seconds
         total wall-time :  35.34 seconds
    ------------------------------------------------------------------------


   ****  ridft : all done  ****


    2016-01-30 02:43:36.912 

