
   OpenMP run-time library returned nthreads = 28

 ricc2 (c-19-411) : TURBOMOLE V7.3 ( 22142 ) 4 Jul 2018 at 18:12:42
 Copyright (C) 2018 TURBOMOLE GmbH, Karlsruhe


    2019-04-02 19:04:40.276 



                              R I C C 2 - PROGRAM

                          the quantum chemistry groups
                             at the universities in
                           Karlsruhe, Bochum & Mainz
                                   Germany



   *-----------------------------------------------------------------------*
   |                     program will use 28 thread(s)                     |
   *-----------------------------------------------------------------------*


              +--------------------------------------------------+
              | Atomic coordinate, charge and isotop information |
              +--------------------------------------------------+

                    atomic coordinates            atom    charge  isotop
          1.59696447    1.99917659    1.32177820    c      6.000     0
          2.84669479    3.59656793    1.57486441    h      1.000     0
          2.59933590   -0.41093104    0.96595418    c      6.000     0
          4.62450693   -0.68308418    0.95025318    h      1.000     0
          0.99034519   -2.46995580    0.62964224    c      6.000     0
          1.76826826   -4.33886110    0.34945392    h      1.000     0
         -1.62084784   -2.11925871    0.65457106    c      6.000     0
         -2.86932461   -3.71606718    0.39374948    h      1.000     0
         -2.62302623    0.29032691    1.01594227    c      6.000     0
         -4.64819249    0.56203454    1.03941040    h      1.000     0
         -1.01405189    2.34972744    1.34688117    c      6.000     0
         -1.79320698    4.21939237    1.62018759    h      1.000     0
          0.04368537    0.66523000   12.80203405    n      7.000     0
          0.33599542    2.43772056   11.01647552    c      6.000     0
          0.60390346    4.35111741   11.69281177    h      1.000     0
          0.30914380    1.93261610    8.43416582    c      6.000     0
          0.55526184    3.44633549    7.08511790    h      1.000     0
         -0.03920512   -0.54600479    7.63048338    c      6.000     0
         -0.07051118   -1.00543249    5.63994427    h      1.000     0
         -0.34505527   -2.40744991    9.46136172    c      6.000     0
         -0.62198144   -4.36371513    8.94211881    h      1.000     0
         -0.28987059   -1.71329095   11.99943306    c      6.000     0
         -0.52343343   -3.12588763   13.46227194    h      1.000     0
 
       center of nuclear mass  :   -0.00458940    0.00226716    5.64069038
       center of nuclear charge:   -0.00504584   -0.00410633    5.58600659

              +--------------------------------------------------+
              |               basis set information              |
              +--------------------------------------------------+

              we will work with the 1s 3p 5d 7f 9g ... basis set
              ...i.e. with spherical basis functions...

   type   atoms  prim   cont   basis
   ---------------------------------------------------------------------------
    c       11     77     55   cc-pVQZ   [5s4p3d2f1g|21s6p3d2f1g]
    h       11     32     30   cc-pVQZ   [4s3p2d1f|6s3p2d1f]
    n        1     77     55   cc-pVQZ   [5s4p3d2f1g|21s6p3d2f1g]
   ---------------------------------------------------------------------------
   total:   23   1276    990
   ---------------------------------------------------------------------------

   total number of primitive shells          :   78
   total number of contracted shells         :  290
   total number of cartesian basis functions : 1225
   total number of SCF-basis functions       :  990


 symmetry group of the molecule :   c1 

 the group has the following generators :
   c1(z)

    1 symmetry operations found

 there are 1 real representations :   a   


   =========================================================================


     restricted closed shell calculation for the wavefunction models:
               MP2        - Second Order Moeller Plesset PT


     global parameters for ricc2 program:

        hard restart (reuse of interm.) :  disabled
        soft restart (reuse of vectors) :  disabled
        threshold for vector function   :    0.100000E-05
        convergence threshold energy    :    0.100000E-06
        linear dependence threshold     :    0.100000E-13
        global print level              :      1
        maximum number of iterations    :   300
        maximum number DIIS vectors     :    10
        max. dim. of reduced space      :   100
        core memory limit (MB)          : 84000


     MP2 energy only: Energy will be calculated directly from T2 amplitudes!

     Scratch Directory : 


   =========================================================================

    der. integral neglect threshold  :  0.10E-07
    integral neglect threshold       :  0.27E-11
    integral storage threshold THIZE :  0.10E-04
    integral storage threshold THIME :         5


                  +------------------------------------------+
                  |     Auxiliary basis set information      |
                  +------------------------------------------+

              we will work with the 1s 3p 5d 7f 9g ... basis set
              ...i.e. with spherical basis functions...

   type   atoms  prim   cont   basis
   ---------------------------------------------------------------------------
    c       11    132    132   cc-pVQZ   [8s7p6d5f3g1h|8s7p6d5f3g1h]
    h       11     55     55   cc-pVQZ   [5s4p3d2f1g|5s4p3d2f1g]
    n        1    132    132   cc-pVQZ   [8s7p6d5f3g1h|8s7p6d5f3g1h]
   ---------------------------------------------------------------------------
   total:   23   2189   2189
   ---------------------------------------------------------------------------

   total number of primitive shells          :   75
   total number of contracted shells         :  525
   total number of cartesian basis functions : 2942
   total number of SCF-basis functions       : 2189


 maximum number of shells which are related by symmetry :  1


 The symmetry information takes   1 MB

*---------------------------------------------------------------------*
|               simplified C1 algorithm will be applied               |
*---------------------------------------------------------------------*
  MOs are in ASCII format !


 reading orbital data $scfmo  from file mos
 orbital characterization : scfconv=9



              +--------------------------------------------+
              | list of orbitals that will be kept frozen: |
              +--------------------------------------------+
              |   irrep   index      energy     occ/vir    |
              +--------------------------------------------+
              |   a         1      -15.5560     occupied   |
              |   a         2      -11.2658     occupied   |
              |   a         3      -11.2656     occupied   |
              |   a         4      -11.2460     occupied   |
              |   a         5      -11.2447     occupied   |
              |   a         6      -11.2442     occupied   |
              |   a         7      -11.2441     occupied   |
              |   a         8      -11.2430     occupied   |
              |   a         9      -11.2429     occupied   |
              |   a        10      -11.2423     occupied   |
              |   a        11      -11.2313     occupied   |
              |   a       ...        ...        occupied   |
              |   a        12      -11.2305     occupied   |
              +--------------------------------------------+



   Molecular Orbital Statistic:
   ============================

   -----------------------------
   orbitals in total:
   -----------------------------
    frozen occupied :     12
    active occupied :     30
    active virtual  :    948
    frozen virtual  :      0
    all together    :    990
   -----------------------------


     time in riccmos       cpu:  8.69 sec    wall:  0.73 sec    ratio: 11.9

     total memory allocated for calculation of (Q|P)**(-1/2) : 55 MiB


     calculation of (P|Q) ...
     time in lp2sym        cpu:  2.58 sec    wall:  0.09 sec    ratio: 28.0


     calculation of the Cholesky decomposition of (P|Q)**(-1) ...
     time in invmetri      cpu:  8.07 sec    wall:  0.29 sec    ratio: 27.8

   threshold for RMS(d[D]) in SCF was     :  0.10E-06
   integral neglect threshold             :  0.27E-11
   derivative integral neglect threshold  :  0.10E-07


   =========================================================================

     Energy of reference wave function is  -477.5844474224000
     Maximum orbital residual is           0.5459628874269E-06


     Number of symmetry-nonredundant auxiliary basis functions:     2189

     Block lengths for integral files:
        frozen occupied (BOI):        1 MiB
        active occupied (BJI):        1 MiB
        active virtual  (BAI):       16 MiB
        frozen virtual  (BGI):        0 MiB
               general  (BTI):       17 MiB

   =========================================================================




   **************************************************************************
   *                                                                        *
   *          OPTIMIZATION OF THE GROUND STATE CLUSTER AMPLITUDES           *
   *                                                                        *
   **************************************************************************


   Iter.   MP2 energy       Norm(Omega)   Norm(t1)  Norm(t2)     cpu    wall
   ...........................................................................
    1   -479.6476408870     ------          0.00000   0.49126    2.08    0.08
   ...........................................................................


     time in total         cpu:  2 min  5 s  wall:  0 min  5 s  ratio: 26.8


     **********************************************************************
     *                                                                    *
     *   RHF  energy                             :   -477.5844474224      *
     *   MP2 correlation energy (doubles)        :     -2.0631934646      *
     *                                                                    *
     *   Final MP2 energy                        :   -479.6476408870      *
     *                                                                    *
     *    E(S)   =     -1.3012281584      E(T)   =     -0.7619653062      *
     *    E(OS)  =     -1.5552165938      E(SS)  =     -0.5079768708      *
     *                                                                    *
     *   SCS-MP2 energy                          :   -479.6200329586      *
     *   (computed with  C(OS) =   1.2000  and  C(SS) =   0.3333)         *
     *                                                                    *
     *   SOS-MP2 energy                          :   -479.6062289944      *
     *   (computed with  C(OS) =   1.3000)                                *
     *                                                                    *
     *   Norm of MP1 T2 amplitudes               :      0.4912552989      *
     *                                                                    *
     **********************************************************************



    ------------------------------------------------------------------------
         total  cpu-time :  3 minutes and 54 seconds
         total wall-time :   9.45 seconds
    ------------------------------------------------------------------------

   ****  ricc2 : all done  ****


    2019-04-02 19:04:49.701 

