           Doing BLAS/Lapack in the master proc. with  8 CPUs.
           SMPCPUS    set: Shared-memory Parallelization with   8 CPUs.

           SMP Parallelization Reference:
           C. van Wullen, J. Comput. Chem. 32 (2011) 1195--1201
 operating system is UNIX !

 ridft (c-18-361.gp.local) : TURBOMOLE V7.2 ( 21454 ) 4 Oct 2017 at 12:48:15
 Copyright (C) 2017 TURBOMOLE GmbH, Karlsruhe


    2018-04-28 21:01:20.540 



                                  r i d f t

                        DFT program with RI approximation 
                                for coulomb part 




                                                 
                                 References:     
                                                 
          TURBOMOLE:                             
              R. Ahlrichs, M. Baer, M. Haeser, H. Horn, and
              C. Koelmel
              Electronic structure calculations on workstation
              computers: the program system TURBOMOLE
              Chem. Phys. Lett. 162: 165 (1989)
          Density Functional:                              
              O. Treutler and R. Ahlrichs                      
              Efficient Molecular Numerical Integration Schemes
              J. Chem. Phys. 102: 346 (1995)                   
          Parallel Version:                                
              Performance of parallel TURBOMOLE for Density    
              Functional Calculations                          
              M. v. Arnim and R. Ahlrichs                      
              J. Comp. Chem. 19: 1746 (1998)                   
          RI-J Method:                                     
              Auxiliary Basis Sets to approximate Coulomb      
              Potentials                                       
              Chem. Phys. Lett. 240: 283 (1995)                
              K. Eichkorn, O. Treutler, H. Oehm, M. Haeser     
              and R. Ahlrichs                                  
              Chem. Phys. Lett. 242: 652 (1995)                
                                                           
              Auxiliary Basis Sets for Main Row Atoms and their
              Use to approximate Coulomb Potentials            
              K. Eichkorn, F. Weigend, O. Treutler and         
              R. Ahlrichs                                      
              Theo. Chem. Acc. 97: 119 (1997)                   
                                                           
              Accurate Coulomb-fitting basis sets for H to Rn 
              F. Weigend                                        
              Phys. Chem. Chem. Phys. 8: 1057 (2006)            
                                                           
          Multipole accelerated RI-J (MARI-J):             
              Fast evaluation of the Coulomb potential for     
              electron densities using multipole accelerated   
              resolution of identity approximation             
              M. Sierka, A. Hogekamp and R. Ahlrichs           
              J. Chem. Phys. 118: 9136 (2003)                  
          RI-JK Method:                                     
              A fully direct RI-HF algorithm: Implementation,
              optimised auxiliary basis sets, demonstration of
              accuracy and efficiency                         
              F. Weigend                                      
              Phys. Chem. Chem. Phys. 4: 4285 (2002)           
          Two-component HF and DFT with spin-orbit coupling:  
              Self-consistent treatment of spin-orbit         
              interactions with efficient Hartree-Fock and    
              density functional methods                      
              M. K. Armbruster, F. Weigend, C. van Wüllen and 
              W. Klopper                                      
              Phys. Chem. Chem. Phys. 10: 1748 (2008)         
          Relativistic all-electron 2c calculations           
              An efficient implementation of two-component    
              relativistic exact-decoupling methods for large 
              molecules                                       
              D. Peng, N. Middendorf, F. Weigend, M. Reiher   
              J. Chem. Phys. 138, 184105 (2013)               
                                         




              +--------------------------------------------------+
              |      general information about current run       |
              +--------------------------------------------------+

 

 DENSITY CONVERGENCE CHECK SWITCHED ON !
 SCF CONVERGENCE IF RMS(delta[D]) <     0.1000000000E-06

 TPSS meta-GGA functional
 exchange:    LDA + TPSS
 correlation: LDA (PW) + TPSS
 A DFT calculation using the RI-J approximation will be carried out.
 Allocatable memory for RI due to $ricore (MB):                  5000


              +--------------------------------------------------+
              | Atomic coordinate, charge and isotop information |
              +--------------------------------------------------+

                    atomic coordinates            atom    charge  isotop
          2.97155929    0.48102820   -0.48467944    n      7.000     0
          1.83182474   -1.70672566    0.08414220    c      6.000     0
          3.04933562   -3.34893714    0.19340440    h      1.000     0
         -0.75240979   -1.94418636    0.53093827    c      6.000     0
         -1.54659868   -3.76383766    1.00828915    h      1.000     0
         -2.25974443    0.20136504    0.36924743    c      6.000     0
         -4.27208430    0.09361448    0.70570461    h      1.000     0
         -1.10951167    2.48954862   -0.22696639    c      6.000     0
         -2.19550694    4.21314446   -0.37881936    h      1.000     0
          1.49013850    2.53167682   -0.62784361    c      6.000     0
          2.43478365    4.28739999   -1.09325739    h      1.000     0
         -1.00859081   -2.86456333    7.26437883    n      0.000     0
         -2.77071903   -1.04923675    7.40393729    c      0.000     0
         -4.66571608   -1.67465068    7.86161548    h      0.000     0
         -2.27560504    1.50391256    7.00826760    c      0.000     0
         -3.78466050    2.87302942    7.15617853    h      0.000     0
          0.17995675    2.23947199    6.42194528    c      0.000     0
          0.63724129    4.20289457    6.08959678    h      0.000     0
          2.03105557    0.38206366    6.26441494    c      0.000     0
          3.96292494    0.84834554    5.79493709    h      0.000     0
          1.34606817   -2.12208379    6.70508584    c      0.000     0
          2.75176130   -3.60656691    6.59841345    h      0.000     0
 
       center of nuclear mass  :   -0.02310682    0.00701422    3.39272139
       center of nuclear charge:    0.32077687    0.33996791   -0.05191255

              +--------------------------------------------------+
              |               basis set information              |
              +--------------------------------------------------+

              we will work with the 1s 3p 5d 7f 9g ... basis set
              ...i.e. with spherical basis functions...

   type   atoms  prim   cont   basis
   ---------------------------------------------------------------------------
    n        2     77     55   cc-pVQZ   [5s4p3d2f1g|21s6p3d2f1g]
    c       10     77     55   cc-pVQZ   [5s4p3d2f1g|21s6p3d2f1g]
    h       10     32     30   cc-pVQZ   [4s3p2d1f|6s3p2d1f]
   ---------------------------------------------------------------------------
   total:   22   1244    960
   ---------------------------------------------------------------------------

   total number of primitive shells          :   78
   total number of contracted shells         :  280
   total number of cartesian basis functions : 1190
   total number of SCF-basis functions       :  960


 integral neglect threshold       :  0.28E-13
 integral storage threshold THIZE :  0.10E-04
 integral storage threshold THIME :         5

 RI-J AUXILIARY BASIS SET information:

              we will work with the 1s 3p 5d 7f 9g ... basis set
              ...i.e. with spherical basis functions...

   type   atoms  prim   cont   basis
   ---------------------------------------------------------------------------
    n        2     70     49   cc-pVQZ   [6s4p3d1f1g|12s5p4d2f1g]
    c       10     70     49   cc-pVQZ   [6s4p3d1f1g|12s5p4d2f1g]
    h       10     16     11   cc-pVQZ   [3s1p1d|5s2p1d]
   ---------------------------------------------------------------------------
   total:   22   1000    698
   ---------------------------------------------------------------------------

   total number of primitive shells          :   56
   total number of contracted shells         :  230
   total number of cartesian basis functions :  852
   total number of SCF-basis functions       :  698


 symmetry group of the molecule :   c1 

 the group has the following generators :
   c1(z)

    1 symmetry operations found

 there are 1 real representations :   a   

 maximum number of shells which are related by symmetry :  1


    mo occupation :
   irrep   mo's   occupied
    a      960       21
 
 number of basis functions   :                    960
 number of occupied orbitals :                     21
 
  
           ------------------
           density functional
           ------------------
 Dummy atoms with grid-point found.
 DFT quadrature threshold dgrenze tightened by factor 1/10.

 TPSS meta-GGA functional
 exchange:    LDA + TPSS
 correlation: LDA (PW) + TPSS
 Dummy atoms with grid-point found.
 DFT quadrature threshold dgrenze tightened by factor 1/10.

 Dummy atoms with grid-point found.
 DFT quadrature threshold dgrenze tightened by factor 1/10.


 iterations will be done with small grid
  
 spherical integration : Lebedev's spherical grid
 spherical gridsize    :                     5
    i.e. gridpoints    :                   590
 value for diffuse not defined
 radial integration    : Chebyshev 2nd kind (scaling 3)
 radial gridsize       :                     8
 integration cells     :                    22
 partition function    : becke
 partition sharpness   :                     3
  
 found dummy atom(s) with basis: included in dft

 biggest AO integral is expected to be     4.161848376
  
           ------------------------
               RI-J - INFORMATION
           ------------------------
 Contributions to RI integral batches: 
  neglected integral batches:                  9060
  direct contribution:                            0
  memory contribution:                 30280
 Memory core needed for (P|Q) and Cholesky      4 MByte
 Memory core minimum needed except of (P|Q)     5 MByte
 Total minimum memory core needed (sum)         9 MByte
  
 ****************************************
 Memory allocated for RI-J  3508 MByte
 ****************************************
                                            

          ------------------------
          nuclear repulsion energy  :   206.225641840    
          ------------------------


         -----------------
         -S,T+V- integrals
         -----------------

 1e-integrals will be neglected if expon. factor < 0.280837E-14
 Difference densities >>NOT<< switched on in parallel ridft!

 DIIS switched on: error vector is FDS-SDF
 Max. Iterations for DIIS is     :   4
 DIIS matrix (see manual) 
    Scaling factor of diagonals  :  1.200
    threshold for scaling factor :  0.000

 scf convergence criterion : increment of total energy < .1000000D-08
                  and increment of one-electron energy < .1000000D-05

  MOs are in ASCII format !


 automatic virtual orbital shift switched on 
      shift if e(lumo)-e(homo) < 0.10000000    


 reading orbital data $scfmo  from file mos
 orbital characterization : expanded
 mo provided and orthogonalized by Cholesky decomposition

 DSCF restart information will be dumped onto file mos


 Starting SCF iterations

          Overall gridpoints after grid construction =        132234

 ITERATION  ENERGY          1e-ENERGY        2e-ENERGY     RMS[dD(SAO)]   TOL
   1  -247.45148162245    -732.90521845     279.22809498    0.000D+00 0.280D-13
                            Exc = -35.1127674035     Coul =  314.340862388    
                              N = 41.999980574    
                            current damping = 0.700
 
          max. resid. norm for Fia-block=  2.910D-01 for orbital     15a         
          max. resid. fock norm         =  2.207D+01 for orbital    891a         

 ITERATION  ENERGY          1e-ENERGY        2e-ENERGY     RMS[dD(SAO)]   TOL
   2  -248.23894889941    -739.24946816     284.78487742    0.476D-02 0.280D-13
                            Exc = -35.6446452927     Coul =  320.429522715    
                              N = 41.999980137    
                            current damping = 0.650
 
          Norm of current diis error:  2.8227    
          max. resid. norm for Fia-block=  1.389D-01 for orbital      1a         
          max. resid. fock norm         =  1.984D-01 for orbital    717a         

 ITERATION  ENERGY          1e-ENERGY        2e-ENERGY     RMS[dD(SAO)]   TOL
   3  -248.37760619581    -740.87843063     286.27518259    0.180D-02 0.280D-13
                            Exc = -35.8526470148     Coul =  322.127829605    
                              N = 41.999983003    
                            current damping = 0.550
 
          Norm of current diis error:  1.3782    
          max. resid. norm for Fia-block=  5.504D-02 for orbital     21a         
          max. resid. fock norm         =  6.066D-02 for orbital      7a         

 ITERATION  ENERGY          1e-ENERGY        2e-ENERGY     RMS[dD(SAO)]   TOL
   4  -248.42282523290    -741.60052052     286.95205345    0.888D-03 0.280D-13
                            Exc = -35.9248693650     Coul =  322.876922817    
                              N = 41.999983231    
                            current damping = 0.450
 
          Norm of current diis error: 0.53478    
          max. resid. norm for Fia-block=  2.754D-02 for orbital      7a         
          max. resid. fock norm         =  4.558D-02 for orbital    857a         

 ITERATION  ENERGY          1e-ENERGY        2e-ENERGY     RMS[dD(SAO)]   TOL
   5  -248.42868772040    -742.26275838     287.60842881    0.383D-03 0.280D-13
                            Exc = -36.0000213800     Coul =  323.608450195    
                              N = 41.999984734    
                            current damping = 0.350
 
          Norm of current diis error: 0.31575    
          max. resid. norm for Fia-block=  1.370D-02 for orbital     21a         
          max. resid. fock norm         =  1.466D-02 for orbital     21a         
          mo-orthogonalization: Cholesky decomposition

 ITERATION  ENERGY          1e-ENERGY        2e-ENERGY     RMS[dD(SAO)]   TOL
   6  -248.43119829074    -742.12551344     287.46867331    0.309D-03 0.280D-13
                            Exc = -35.9899389328     Coul =  323.458612238    
                              N = 41.999985134    
                            current damping = 0.400
 
          Norm of current diis error: 0.13190    
          max. resid. norm for Fia-block=  3.207D-03 for orbital     19a         
          max. resid. fock norm         =  6.682D-03 for orbital    675a         

 ITERATION  ENERGY          1e-ENERGY        2e-ENERGY     RMS[dD(SAO)]   TOL
   7  -248.43158754190    -742.19156792     287.53433854    0.465D-04 0.280D-13
                            Exc = -35.9966096476     Coul =  323.530948186    
                              N = 41.999985261    
                            current damping = 0.450
 
          Norm of current diis error: 0.43993E-01
          max. resid. norm for Fia-block=  1.498D-03 for orbital     13a         
          max. resid. fock norm         =  2.893D-03 for orbital    951a         

 ITERATION  ENERGY          1e-ENERGY        2e-ENERGY     RMS[dD(SAO)]   TOL
   8  -248.43162690012    -742.22462929     287.56736055    0.149D-04 0.280D-13
                            Exc = -36.0001429668     Coul =  323.567503516    
                              N = 41.999985374    
                            current damping = 0.300
 
          Norm of current diis error: 0.14550E-01
          max. resid. norm for Fia-block=  3.696D-04 for orbital     21a         
          max. resid. fock norm         =  6.810D-04 for orbital    915a         

 ITERATION  ENERGY          1e-ENERGY        2e-ENERGY     RMS[dD(SAO)]   TOL
   9  -248.43163204837    -742.22201371     287.56473982    0.821D-05 0.280D-13
                            Exc = -35.9999360867     Coul =  323.564675906    
                              N = 41.999985394    
                            current damping = 0.350
 
          Norm of current diis error: 0.15774E-02
          max. resid. norm for Fia-block=  7.260D-05 for orbital     19a         
          max. resid. fock norm         =  2.136D-04 for orbital    915a         

 ITERATION  ENERGY          1e-ENERGY        2e-ENERGY     RMS[dD(SAO)]   TOL
  10  -248.43163207576    -742.21990551     287.56263160    0.189D-05 0.280D-13
                            Exc = -35.9998156103     Coul =  323.562447208    
                              N = 41.999985398    
                            current damping = 0.200
 
          Norm of current diis error: 0.13120E-02
          max. resid. norm for Fia-block=  4.268D-05 for orbital     20a         
          max. resid. fock norm         =  8.033D-05 for orbital    950a         
          mo-orthogonalization: Cholesky decomposition

 ITERATION  ENERGY          1e-ENERGY        2e-ENERGY     RMS[dD(SAO)]   TOL
  11  -248.43163210678    -742.22092461     287.56365066    0.459D-06 0.280D-13
                            Exc = -35.9998875618     Coul =  323.563538222    
                              N = 41.999985402    
                            current damping = 0.250
 
          Norm of current diis error: 0.69971E-03
          max. resid. norm for Fia-block=  2.441D-05 for orbital     19a         
          max. resid. fock norm         =  3.575D-05 for orbital     19a         

 ITERATION  ENERGY          1e-ENERGY        2e-ENERGY     RMS[dD(SAO)]   TOL
  12  -248.43163211441    -742.22087782     287.56360386    0.391D-06 0.280D-13
                            Exc = -35.9998745107     Coul =  323.563478371    
                              N = 41.999985402    
                            current damping = 0.300
 
          Norm of current diis error: 0.44785E-03
          max. resid. norm for Fia-block=  1.131D-05 for orbital     19a         
          max. resid. fock norm         =  1.686D-05 for orbital    701a         

 ITERATION  ENERGY          1e-ENERGY        2e-ENERGY     RMS[dD(SAO)]   TOL
  13  -248.43163211908    -742.22100746     287.56373350    0.135D-06 0.280D-13
                            Exc = -35.9998933699     Coul =  323.563626874    
                              N = 41.999985402    
                            current damping = 0.350
 
          Norm of current diis error: 0.74401E-04
          max. resid. norm for Fia-block=  3.159D-06 for orbital     21a         
          max. resid. fock norm         =  4.776D-06 for orbital    951a         

 DENSITY CONVERGED !


 ITERATION  ENERGY          1e-ENERGY        2e-ENERGY     RMS[dD(SAO)]   TOL
  14  -248.43163211915    -742.22085277     287.56357881    0.470D-07 0.280D-13
                            Exc = -35.9998800548     Coul =  323.563458863    
                              N = 41.999985403    
                            current damping = 0.400
 
          Norm of current diis error: 0.53056E-04
          max. resid. norm for Fia-block=  1.216D-06 for orbital     17a         
          max. resid. fock norm         =  1.952D-06 for orbital    951a         

 DENSITY CONVERGED !


 ITERATION  ENERGY          1e-ENERGY        2e-ENERGY     RMS[dD(SAO)]   TOL
  15  -248.43163211922    -742.22087606     287.56360210    0.124D-07 0.280D-13
                            Exc = -35.9998824529     Coul =  323.563484554    
                              N = 41.999985403    
                            current damping = 0.450
 
          Norm of current diis error: 0.10423E-04
          max. resid. norm for Fia-block=  3.282D-07 for orbital     15a         
          max. resid. fock norm         =  7.011D-07 for orbital    922a         
          mo-orthogonalization: Cholesky decomposition

 ENERGY & DENSITY CONVERGED !

          Overall gridpoints after grid construction =        346707

 ITERATION  ENERGY          1e-ENERGY        2e-ENERGY     RMS[dD(SAO)]   TOL
  16  -248.43153570295    -742.22090276     287.56372522    0.591D-08 0.280D-13
                            Exc = -35.9997879945     Coul =  323.563513212    
                              N = 42.000005553    
                            current damping = 0.300
 
          Norm of current diis error: 0.47753E-05
          max. resid. norm for Fia-block=  1.267D-07 for orbital     20a         
          max. resid. fock norm         =  2.377D-07 for orbital    950a         

 End of SCF iterations

   convergence criteria satisfied after    16 iterations


                  ------------------------------------------ 
                 |  total energy      =   -248.43153570295  |
                  ------------------------------------------ 
                 :  kinetic energy    =    247.35454912212  :
                 :  potential energy  =   -495.78608482506  :
                 :  virial theorem    =      1.99566485560  :
                 :  wavefunction norm =      1.00000000000  :
                  .......................................... 


 <geterg> : there is no data group $energy 


 <skperg> : $end is missing 


 orbitals $scfmo  will be written to file mos

    irrep                 17a         18a         19a         20a         21a   
 eigenvalues H         -0.36568    -0.32849    -0.26705    -0.24440    -0.22170
            eV          -9.9507     -8.9388     -7.2667     -6.6505     -6.0327
 occupation              2.0000      2.0000      2.0000      2.0000      2.0000 

    irrep                 22a         23a         24a         25a         26a   
 eigenvalues H         -0.06158    -0.04707     0.00733     0.03523     0.04285
            eV          -1.6756     -1.2808      0.1995      0.9588      1.1660
 
 
 
 
 ==============================================================================
                           electrostatic moments
 ==============================================================================

 reference point for electrostatic moments:    0.00000   0.00000   0.00000

 
              nuc           elec       ->  total
 ------------------------------------------------------------------------------
                          charge      
 ------------------------------------------------------------------------------
          42.000000     -42.000000       0.000000
 
 ------------------------------------------------------------------------------
                       dipole moment  
 ------------------------------------------------------------------------------
   x      13.472628     -14.324771      -0.852143
   y      14.278652     -14.323716      -0.045064
   z      -2.180327       2.309646       0.129319
 
   | dipole moment | =     0.8631 a.u. =     2.1937 debye 
 
 ------------------------------------------------------------------------------
                     quadrupole moment
 ------------------------------------------------------------------------------
  xx     177.378751    -204.985369     -27.606618
  yy     179.186084    -201.461243     -22.275159
  zz       9.761308     -37.460525     -27.699217
  xy      -0.245676      -0.465852      -0.711529
  xz     -26.477452      26.499197       0.021746
  yz     -31.828164      30.903025      -0.925139
 
     1/3  trace=     -25.860331
     anisotropy=       5.745833
 
 ==============================================================================
 


    ------------------------------------------------------------------------
         total  cpu-time : 22 minutes and 49 seconds
         total wall-time :  3 minutes and 26 seconds
    ------------------------------------------------------------------------

   ****  ridft : all done  ****


    2018-04-28 21:04:46.769 

