Using Slurm to start processes with PMI2
Parallel program ridft_mpi will be taken out of the TURBODIR directory.
STARTING ridft ON 8 PROCESSORS!
RUNNING PROGRAM /modfac/apps/TURBOMOLE/7.0_intel_GA/bin/em64t-unknown-linux-gnu_ga/ridft_mpi.
PLEASE WAIT UNTIL ridft HAS FINISHED.
Look for the output in slave1.output.
 operating system is UNIX !
 hostname is         c-7-19.local

 ridft (c-7-19.local) : TURBOMOLE V7.0( ) 18 Nov 2015 at 09:57:41
 Copyright (C) 2015 TURBOMOLE GmbH, Karlsruhe


    2016-02-05 14:06:59.461 



                                  r i d f t

                        DFT program with RI approximation 
                                for coulomb part 




                                                 
                                 References:     
                                                 
          TURBOMOLE:                             
              R. Ahlrichs, M. Baer, M. Haeser, H. Horn, and
              C. Koelmel
              Electronic structure calculations on workstation
              computers: the program system TURBOMOLE
              Chem. Phys. Lett. 162: 165 (1989)
          Density Functional:                              
              O. Treutler and R. Ahlrichs                      
              Efficient Molecular Numerical Integration Schemes
              J. Chem. Phys. 102: 346 (1995)                   
          Parallel Version:                                
              Performance of parallel TURBOMOLE for Density    
              Functional Calculations                          
              M. v. Arnim and R. Ahlrichs                      
              J. Comp. Chem. 19: 1746 (1998)                   
          RI-J Method:                                     
              Auxiliary Basis Sets to approximate Coulomb      
              Potentials                                       
              Chem. Phys. Lett. 240: 283 (1995)                
              K. Eichkorn, O. Treutler, H. Oehm, M. Haeser     
              and R. Ahlrichs                                  
              Chem. Phys. Lett. 242: 652 (1995)                
                                                           
              Auxiliary Basis Sets for Main Row Atoms and their
              Use to approximate Coulomb Potentials            
              K. Eichkorn, F. Weigend, O. Treutler and         
              R. Ahlrichs                                      
              Theo. Chem. Acc. 97: 119 (1997)                   
                                                           
              Accurate Coulomb-fitting basis sets for H to Rn 
              F. Weigend                                        
              Phys. Chem. Chem. Phys. 8: 1057 (2006)            
                                                           
          Multipole accelerated RI-J (MARI-J):             
              Fast evaluation of the Coulomb potential for     
              electron densities using multipole accelerated   
              resolution of identity approximation             
              M. Sierka, A. Hogekamp and R. Ahlrichs           
              J. Chem. Phys. 118: 9136 (2003)                  
          RI-JK Method:                                     
              A fully direct RI-HF algorithm: Implementation,
              optimised auxiliary basis sets, demonstration of
              accuracy and efficiency                         
              F. Weigend                                      
              Phys. Chem. Chem. Phys. 4: 4285 (2002)           
          Two-component HF and DFT with spin-orbit coupling:  
              Self-consistent treatment of spin-orbit         
              interactions with efficient Hartree-Fock and    
              density functional methods                      
              M. K. Armbruster, F. Weigend, C. van Wüllen and 
              W. Klopper                                      
              Phys. Chem. Chem. Phys. 10: 1748 (2008)         
          Relativistic all-electron 2c calculations           
              An efficient implementation of two-component    
              relativistic exact-decoupling methods for large 
              molecules                                       
              D. Peng, N. Middendorf, F. Weigend, M. Reiher   
              J. Chem. Phys. 138, 184105 (2013)               
                                         


 


              +--------------------------------------------------+
              |      general information about current run       |
              +--------------------------------------------------+

 

 DENSITY CONVERGENCE CHECK SWITCHED ON !
 SCF CONVERGENCE IF RMS(delta[D]) <     0.1000000000E-06

 PBE functional
 exchange:    LDA + PBE
 correlation: LDA (PW) + PBE
 A DFT calculation using the RI-J approximation will be carried out.
 Allocatable memory for RI due to $ricore (MB):        2000


              +--------------------------------------------------+
              | Atomic coordinate, charge and isotop information |
              +--------------------------------------------------+

                    atomic coordinates            atom    charge  isotop
         -4.56740353    0.00000000    6.08402416    c      6.000     0
         -2.33360055    0.00000000    7.49350698    c      6.000     0
         -0.72112223   -2.21938601    7.49350698    c      6.000     0
          1.88792250   -1.37165599    7.49350698    c      6.000     0
         -5.26492406   -2.20015438    4.61292699    c      6.000     0
         -1.41140531   -4.34385889    6.08402416    c      6.000     0
         -5.26492406    2.20015438    4.61292699    c      6.000     0
         -0.72112223    2.21938601    7.49350698    c      6.000     0
          1.88792250    1.37165599    7.49350698    c      6.000     0
         -1.41140531    4.34385889    6.08402416    c      6.000     0
          3.69510707   -2.68465243    6.08402416    c      6.000     0
         -3.71942217   -4.32735524    4.61292699    c      6.000     0
          0.46552016   -5.68712543    4.61292699    c      6.000     0
          3.69510707    2.68465243    6.08402416    c      6.000     0
          2.96619474   -4.87460700    4.61292699    c      6.000     0
          5.55263134   -1.31468243    4.61292699    c      6.000     0
         -6.41310566   -1.35890351    2.27969114    c      6.000     0
         -3.71942217    4.32735524    4.61292699    c      6.000     0
         -6.41310566    1.35890351    2.27969114    c      6.000     0
         -3.27415267   -5.67930165    2.27969114    c      6.000     0
         -0.68936460   -6.51915021    2.27969114    c      6.000     0
          4.38956803   -4.86890496    2.27969114    c      6.000     0
          5.98705491   -2.67015290    2.27969114    c      6.000     0
          5.55263134    1.31468243    4.61292699    c      6.000     0
         -6.14450752   -2.74987098    0.00000000    c      6.000     0
         -4.51403997   -4.99401705    0.00000000    c      6.000     0
          0.71652547   -6.69353079    0.00000000    c      6.000     0
          3.35467740   -5.83634326    0.00000000    c      6.000     0
          6.58734462   -1.38695855    0.00000000    c      6.000     0
          5.98705491    2.67015290    2.27969114    c      6.000     0
         -6.41310566   -1.35890351   -2.27969114    c      6.000     0
         -6.14450752    2.74987098    0.00000000    c      6.000     0
         -3.27415267   -5.67930165   -2.27969114    c      6.000     0
         -0.68936460   -6.51915021   -2.27969114    c      6.000     0
          4.38956803   -4.86890496   -2.27969114    c      6.000     0
          5.98705491   -2.67015290   -2.27969114    c      6.000     0
          6.58734462    1.38695855    0.00000000    c      6.000     0
         -5.26492406   -2.20015438   -4.61292699    c      6.000     0
         -6.41310566    1.35890351   -2.27969114    c      6.000     0
         -3.71942217   -4.32735524   -4.61292699    c      6.000     0
          0.46552016   -5.68712543   -4.61292699    c      6.000     0
          2.96619474   -4.87460700   -4.61292699    c      6.000     0
          5.55263134   -1.31468243   -4.61292699    c      6.000     0
          5.98705491    2.67015290   -2.27969114    c      6.000     0
          0.46552016    5.68712543    4.61292699    c      6.000     0
          2.96619474    4.87460700    4.61292699    c      6.000     0
         -3.27415267    5.67930165    2.27969114    c      6.000     0
          4.38956803    4.86890496    2.27969114    c      6.000     0
         -4.51403997    4.99401705    0.00000000    c      6.000     0
         -4.56740353    0.00000000   -6.08402416    c      6.000     0
         -5.26492406    2.20015438   -4.61292699    c      6.000     0
         -1.41140531   -4.34385889   -6.08402416    c      6.000     0
          3.69510707   -2.68465243   -6.08402416    c      6.000     0
          5.55263134    1.31468243   -4.61292699    c      6.000     0
          4.38956803    4.86890496   -2.27969114    c      6.000     0
         -0.68936460    6.51915021    2.27969114    c      6.000     0
          3.35467740    5.83634326    0.00000000    c      6.000     0
         -3.27415267    5.67930165   -2.27969114    c      6.000     0
         -2.33360055    0.00000000   -7.49350698    c      6.000     0
         -3.71942217    4.32735524   -4.61292699    c      6.000     0
         -0.72112223   -2.21938601   -7.49350698    c      6.000     0
          1.88792250   -1.37165599   -7.49350698    c      6.000     0
          3.69510707    2.68465243   -6.08402416    c      6.000     0
          2.96619474    4.87460700   -4.61292699    c      6.000     0
          0.71652547    6.69353079    0.00000000    c      6.000     0
         -0.68936460    6.51915021   -2.27969114    c      6.000     0
         -0.72112223    2.21938601   -7.49350698    c      6.000     0
         -1.41140531    4.34385889   -6.08402416    c      6.000     0
          1.88792250    1.37165599   -7.49350698    c      6.000     0
          0.46552016    5.68712543   -4.61292699    c      6.000     0
 
       center of nuclear mass  :    0.00000000   -0.00000000   -0.00000000
       center of nuclear charge:    0.00000000   -0.00000000   -0.00000000

              +--------------------------------------------------+
              |               basis set information              |
              +--------------------------------------------------+

              we will work with the 1s 3p 5d 7f 9g ... basis set
              ...i.e. with spherical basis functions...

   type   atoms  prim   cont   basis
   ---------------------------------------------------------------------------
    c       70     50     30   cc-pVTZ   [4s3p2d1f|18s5p2d1f]
   ---------------------------------------------------------------------------
   total:   70   3500   2100
   ---------------------------------------------------------------------------

   total number of primitive shells          :   26
   total number of contracted shells         :  700
   total number of cartesian basis functions : 2450
   total number of SCF-basis functions       : 2100


 integral neglect threshold       :  0.14E-13
 integral storage threshold THIZE :  0.10E-04
 integral storage threshold THIME :         5

 RI-J AUXILIARY BASIS SET information:

              we will work with the 1s 3p 5d 7f 9g ... basis set
              ...i.e. with spherical basis functions...

   type   atoms  prim   cont   basis
   ---------------------------------------------------------------------------
    c       70     70     49   cc-pVTZ   [6s4p3d1f1g|12s5p4d2f1g]
   ---------------------------------------------------------------------------
   total:   70   4900   3430
   ---------------------------------------------------------------------------

   total number of primitive shells          :   24
   total number of contracted shells         : 1050
   total number of cartesian basis functions : 4270
   total number of SCF-basis functions       : 3430


 symmetry group of the molecule :   c1 

 the group has the following generators :
   c1(z)

    1 symmetry operations found

 there are 1 real representations :   a   

 maximum number of shells which are related by symmetry :  1


    mo occupation :
   irrep   mo's   occupied
    a     2100      210
 
 number of basis functions   :         2100
 number of occupied orbitals :          210
 
  
           ------------------
           density functional
           ------------------
 PBE functional
 exchange:    LDA + PBE
 correlation: LDA (PW) + PBE
 iterations will be done with small grid
  
 spherical integration : Lebedev's spherical grid
 spherical gridsize    :           5
    i.e. gridpoints    :         590
 value for diffuse not defined
 radial integration    : Chebyshev 2nd kind (scaling 3)
 radial gridsize       :           8
 integration cells     :          70
 partition function    : becke
 partition sharpness   :           3
  

 biggest AO integral is expected to be     3.593180334
  
           ------------------------
               RI-J - INFORMATION
           ------------------------
 Contributions to RI integral batches: 
  neglected integral batches:       87445
  direct contribution:             130317
  memory contribution:       27588
 Memory core needed for (P|Q) and Cholesky     90 MByte
 Memory core minimum needed except of (P|Q)     5 MByte
 Total minimum memory core needed (sum)        95 MByte
  
 ****************************************
 Memory allocated for RI-J  1918 MByte
 ****************************************
                                            

          ------------------------
          nuclear repulsion energy  :   10621.3046106    
          ------------------------

 
          -----------------
          -S,T+V- integrals
          -----------------

 1e-integrals will be neglected if expon. factor < 0.136407E-14
 
   Difference densities algorithm switched on.
   The maximal number of linear combinations of
   difference densities is          20 .

 automatic virtual orbital shift switched on 
      shift if e(lumo)-e(homo) < 0.10000000    


 DIIS switched on: error vector is FDS-SDF
 Max. Iterations for DIIS is     :   4
 DIIS matrix (see manual) 
    Scaling factor of diagonals  :  1.200
    threshold for scaling factor :  0.000

 scf convergence criterion : increment of total energy < .1000000D-08
                  and increment of one-electron energy < .1000000D-05


 <geterg> : there is no data group $energy 

  MOs are in ASCII format !


 reading orbital data $scfmo  from file mos . 

 orbital characterization : expanded
 
 mo provided and orthogonalized by Cholesky decomposition

 DSCF restart information will be dumped onto file mos


 Starting SCF iterations

          Overall gridpoints after grid construction =        395448

 ITERATION  ENERGY          1e-ENERGY        2e-ENERGY     RMS[dD(SAO)]   TOL
   1  -2657.6462977086    -24641.032414     11362.081506    0.000D+00 0.136D-13
                            Exc = -370.861104391     Coul =  11732.9426101    
                              N = 419.99978983    
                            current damping = 0.700
 
          max. resid. norm for Fia-block=  2.604D-01 for orbital    114a         
          max. resid. fock norm         =  4.280D+00 for orbital   1925a         

 ITERATION  ENERGY          1e-ENERGY        2e-ENERGY     RMS[dD(SAO)]   TOL
   2  -2663.3441263445    -24740.373760     11455.725024    0.460D-02 0.103D-13
                            Exc = -375.356204719     Coul =  11831.0812282    
                              N = 419.99968811    
                            current damping = 0.650
 
          Norm of current diis error:  6.8033    
          max. resid. norm for Fia-block=  1.414D-01 for orbital     76a         
          max. resid. fock norm         =  1.641D-01 for orbital    375a         

 ITERATION  ENERGY          1e-ENERGY        2e-ENERGY     RMS[dD(SAO)]   TOL
   3  -2664.5302693985    -24747.817127     11461.982247    0.179D-02 0.729D-14
                            Exc = -376.452617213     Coul =  11838.4348638    
                              N = 419.99966325    
                            current damping = 0.550
 
          Norm of current diis error:  3.4752    
          max. resid. norm for Fia-block=  6.517D-02 for orbital     76a         
          max. resid. fock norm         =  7.350D-02 for orbital     76a         

 ITERATION  ENERGY          1e-ENERGY        2e-ENERGY     RMS[dD(SAO)]   TOL
   4  -2664.9301610166    -24770.293912     11484.059140    0.532D-03 0.652D-14
                            Exc = -377.085821040     Coul =  11861.1449614    
                              N = 419.99962338    
                            current damping = 0.450
 
          Norm of current diis error:  1.3839    
          max. resid. norm for Fia-block=  2.834D-02 for orbital     76a         
          max. resid. fock norm         =  3.212D-02 for orbital     75a         

 ITERATION  ENERGY          1e-ENERGY        2e-ENERGY     RMS[dD(SAO)]   TOL
   5  -2664.9957272641    -24766.544222     11480.243884    0.581D-03 0.573D-14
                            Exc = -377.283996240     Coul =  11857.5278799    
                              N = 419.99962760    
                            current damping = 0.500
 
          Norm of current diis error: 0.59452    
          max. resid. norm for Fia-block=  8.653D-03 for orbital    114a         
          max. resid. fock norm         =  1.015D-02 for orbital    213a         
          mo-orthogonalization: Cholesky decomposition

 ITERATION  ENERGY          1e-ENERGY        2e-ENERGY     RMS[dD(SAO)]   TOL
   6  -2665.0083588869    -24772.616473     11486.303504    0.150D-03 0.548D-14
                            Exc = -377.435786712     Coul =  11863.7392903    
                              N = 419.99961852    
                            current damping = 0.550
 
          Norm of current diis error: 0.19300    
          max. resid. norm for Fia-block=  3.226D-03 for orbital    184a         
          max. resid. fock norm         =  4.887D-03 for orbital     83a         

 ITERATION  ENERGY          1e-ENERGY        2e-ENERGY     RMS[dD(SAO)]   TOL
   7  -2665.0091792164    -24771.939740     11485.625950    0.839D-04 0.535D-14
                            Exc = -377.442706104     Coul =  11863.0686564    
                              N = 419.99962017    
                            current damping = 0.600
 
          Norm of current diis error: 0.12956    
          max. resid. norm for Fia-block=  1.610D-03 for orbital    192a         
          max. resid. fock norm         =  2.934D-03 for orbital     77a         

 ITERATION  ENERGY          1e-ENERGY        2e-ENERGY     RMS[dD(SAO)]   TOL
   8  -2665.0097763122    -24771.900715     11485.586328    0.306D-04 0.526D-14
                            Exc = -377.444236308     Coul =  11863.0305648    
                              N = 419.99961917    
                            current damping = 0.450
 
          Norm of current diis error: 0.42054E-01
          max. resid. norm for Fia-block=  1.058D-03 for orbital    195a         
          max. resid. fock norm         =  1.742D-03 for orbital     80a         
          irrep a   : virtual orbitals shifted by    0.00784

 ITERATION  ENERGY          1e-ENERGY        2e-ENERGY     RMS[dD(SAO)]   TOL
   9  -2665.0097253725    -24771.951913     11485.637577    0.144D-04 0.523D-14
                            Exc = -377.449857477     Coul =  11863.0874342    
                              N = 419.99962052    
                            current damping = 0.500
 
          Norm of current diis error: 0.57176E-01
          max. resid. norm for Fia-block=  4.450D-04 for orbital    201a         
          max. resid. fock norm         =  7.279D-04 for orbital     80a         
          irrep a   : virtual orbitals shifted by    0.00493

 ITERATION  ENERGY          1e-ENERGY        2e-ENERGY     RMS[dD(SAO)]   TOL
  10  -2665.0098282809    -24772.213669     11485.899230    0.800D-05 0.519D-14
                            Exc = -377.455124503     Coul =  11863.3543545    
                              N = 419.99961954    
                            current damping = 0.350
 
          Norm of current diis error: 0.26174E-01
          max. resid. norm for Fia-block=  2.895D-04 for orbital    201a         
          max. resid. fock norm         =  4.056D-04 for orbital    412a         
          irrep a   : virtual orbitals shifted by    0.01449
          mo-orthogonalization: Cholesky decomposition

 ITERATION  ENERGY          1e-ENERGY        2e-ENERGY     RMS[dD(SAO)]   TOL
  11  -2665.0098494673    -24772.020022     11485.705562    0.729D-05 0.511D-14
                            Exc = -377.451872205     Coul =  11863.1574340    
                              N = 419.99961955    
                            current damping = 0.400
 
          Norm of current diis error: 0.83241E-02
          max. resid. norm for Fia-block=  1.281D-04 for orbital    192a         
          max. resid. fock norm         =  2.266D-04 for orbital   2082a         
          irrep a   : virtual orbitals shifted by    0.01131

 ITERATION  ENERGY          1e-ENERGY        2e-ENERGY     RMS[dD(SAO)]   TOL
  12  -2665.0098502090    -24772.070677     11485.756216    0.289D-05 0.512D-14
                            Exc = -377.451840091     Coul =  11863.2080559    
                              N = 419.99961940    
                            current damping = 0.450
 
          Norm of current diis error: 0.65267E-02
          max. resid. norm for Fia-block=  5.127D-05 for orbital    207a         
          max. resid. fock norm         =  1.021D-04 for orbital   2082a         
          irrep a   : virtual orbitals shifted by    0.00819

 ITERATION  ENERGY          1e-ENERGY        2e-ENERGY     RMS[dD(SAO)]   TOL
  13  -2665.0098517920    -24772.059629     11485.745166    0.979D-06 0.506D-14
                            Exc = -377.451500997     Coul =  11863.1966673    
                              N = 419.99961946    
                            current damping = 0.500
 
          Norm of current diis error: 0.13959E-02
          max. resid. norm for Fia-block=  3.121D-05 for orbital    209a         
          max. resid. fock norm         =  5.264D-05 for orbital   2089a         
          irrep a   : virtual orbitals shifted by    0.00504

 ITERATION  ENERGY          1e-ENERGY        2e-ENERGY     RMS[dD(SAO)]   TOL
  14  -2665.0098516935    -24772.053044     11485.738582    0.547D-06 0.493D-14
                            Exc = -377.451488399     Coul =  11863.1900704    
                              N = 419.99961948    
                            current damping = 0.550
 
          Norm of current diis error: 0.18883E-02
          max. resid. norm for Fia-block=  1.630D-05 for orbital    209a         
          max. resid. fock norm         =  2.903D-05 for orbital   2089a         
          irrep a   : virtual orbitals shifted by    0.00188

 ITERATION  ENERGY          1e-ENERGY        2e-ENERGY     RMS[dD(SAO)]   TOL
  15  -2665.0098518364    -24772.053661     11485.739199    0.251D-06 0.498D-14
                            Exc = -377.451553038     Coul =  11863.1907515    
                              N = 419.99961948    
                            current damping = 0.600
 
          Norm of current diis error: 0.88470E-03
          max. resid. norm for Fia-block=  1.216D-05 for orbital    201a         
          max. resid. fock norm         =  1.915D-05 for orbital   2073a         
          mo-orthogonalization: Cholesky decomposition

 ITERATION  ENERGY          1e-ENERGY        2e-ENERGY     RMS[dD(SAO)]   TOL
  16  -2665.0098518644    -24772.053752     11485.739290    0.143D-06 0.486D-14
                            Exc = -377.451564396     Coul =  11863.1908541    
                              N = 419.99961947    
                            current damping = 0.450
 
          Norm of current diis error: 0.37060E-03
          max. resid. norm for Fia-block=  3.962D-06 for orbital    201a         
          max. resid. fock norm         =  5.834D-06 for orbital    504a         
          irrep a   : virtual orbitals shifted by    0.00820

 DENSITY CONVERGED !


 ITERATION  ENERGY          1e-ENERGY        2e-ENERGY     RMS[dD(SAO)]   TOL
  17  -2665.0098518675    -24772.055578     11485.741116    0.842D-07 0.483D-14
                            Exc = -377.451579511     Coul =  11863.1926954    
                              N = 419.99961947    
                            current damping = 0.300
 
          Norm of current diis error: 0.13322E-03
          max. resid. norm for Fia-block=  2.316D-06 for orbital    201a         
          max. resid. fock norm         =  4.263D-06 for orbital     77a         
          irrep a   : virtual orbitals shifted by    0.01770

 DENSITY CONVERGED !


 ITERATION  ENERGY          1e-ENERGY        2e-ENERGY     RMS[dD(SAO)]   TOL
  18  -2665.0098518673    -24772.055307     11485.740844    0.433D-07 0.479D-14
                            Exc = -377.451563853     Coul =  11863.1924083    
                              N = 419.99961947    
                            current damping = 0.350
 
          Norm of current diis error: 0.15029E-03
          max. resid. norm for Fia-block=  9.398D-07 for orbital    208a         
          max. resid. fock norm         =  1.971D-06 for orbital     77a         
          irrep a   : virtual orbitals shifted by    0.01453

 DENSITY CONVERGED !


 ITERATION  ENERGY          1e-ENERGY        2e-ENERGY     RMS[dD(SAO)]   TOL
  19  -2665.0098518672    -24772.055334     11485.740872    0.187D-07 0.475D-14
                            Exc = -377.451564841     Coul =  11863.1924364    
                              N = 419.99961947    
                            current damping = 0.400
 
          Norm of current diis error: 0.80905E-04
          max. resid. norm for Fia-block=  5.370D-07 for orbital    201a         
          max. resid. fock norm         =  9.060D-07 for orbital   2061a         
          irrep a   : virtual orbitals shifted by    0.01137

 DENSITY CONVERGED !


 ITERATION  ENERGY          1e-ENERGY        2e-ENERGY     RMS[dD(SAO)]   TOL
  20  -2665.0098518672    -24772.055098     11485.740636    0.113D-07 0.472D-14
                            Exc = -377.451562459     Coul =  11863.1921981    
                              N = 419.99961947    
                            current damping = 0.450
 
          Norm of current diis error: 0.43527E-04
          max. resid. norm for Fia-block=  4.217D-07 for orbital    209a         
          max. resid. fock norm         =  7.539D-07 for orbital     32a         
          irrep a   : virtual orbitals shifted by    0.00820
          mo-orthogonalization: Cholesky decomposition

 ENERGY & DENSITY CONVERGED !

          Overall gridpoints after grid construction =       1172324

 ITERATION  ENERGY          1e-ENERGY        2e-ENERGY     RMS[dD(SAO)]   TOL
  21  -2665.0097949531    -24772.055126     11485.740720    0.665D-08 0.467D-14
                            Exc = -377.451506812     Coul =  11863.1922270    
                              N = 420.00000235    
                            current damping = 0.500
 
          Norm of current diis error: 0.22791E-04
          max. resid. norm for Fia-block=  5.786D-07 for orbital    201a         
          max. resid. fock norm         =  8.878D-07 for orbital     37a         

 End of SCF iterations

   convergence criteria satisfied after   21 iterations


                  ------------------------------------------ 
                 |  total energy      =  -2665.00979495311  |
                  ------------------------------------------ 
                 :  kinetic energy    =   2647.21215633135  :
                 :  potential energy  =  -5312.22195128446  :
                 :  virial theorem    =      1.99332173613  :
                 :  wavefunction norm =      1.00000000000  :
                  .......................................... 


 <geterg> : there is no data group $energy 


 <skperg> : $end is missing 


 orbitals $scfmo  will be written to file mos

    irrep                206a        207a        208a        209a        210a   
 eigenvalues H         -0.22516    -0.22126    -0.21437    -0.21255    -0.21255
            eV          -6.1270     -6.0208     -5.8332     -5.7839     -5.7838
 occupation              2.0000      2.0000      2.0000      2.0000      2.0000 

    irrep                211a        212a        213a        214a        215a   
 eigenvalues H         -0.14924    -0.14924    -0.14553    -0.13130    -0.12183
            eV          -4.0611     -4.0610     -3.9602     -3.5728     -3.3151
 
 
 
 
 ==============================================================================
                           electrostatic moments
 ==============================================================================

 reference point for electrostatic moments:    0.00000   0.00000   0.00000

 
              nuc           elec       ->  total
 ------------------------------------------------------------------------------
                          charge      
 ------------------------------------------------------------------------------
         420.000000    -420.000000      -0.000000
 
 ------------------------------------------------------------------------------
                       dipole moment  
 ------------------------------------------------------------------------------
   x       0.000000       0.000145       0.000145
   y      -0.000000      -0.000000      -0.000000
   z       0.000000       0.000000       0.000000
 
   | dipole moment | =     0.0001 a.u. =     0.0004 debye 
 
 ------------------------------------------------------------------------------
                     quadrupole moment
 ------------------------------------------------------------------------------
  xx    6680.787746   -6967.448751    -286.661005
  yy    6680.787746   -6967.451703    -286.663958
  zz    8767.210255   -9053.355500    -286.145245
  xy      -0.000000       0.000000       0.000000
  xz       0.000000      -0.000000      -0.000000
  yz      -0.000000      -0.000000      -0.000000
 
     1/3  trace=    -286.490069
     anisotropy=       0.517242
 
 ==============================================================================
 
 


    ------------------------------------------------------------------------
         total  cpu-time :  1 hours 58 minutes and 38 seconds
         total wall-time :  1 hours 58 minutes and 34 seconds
    ------------------------------------------------------------------------


   ****  ridft : all done  ****


    2016-02-05 16:05:33.333 

