 hostname is         gplogin1.local

 eiger (gplogin1.local) : TURBOMOLE V7.0.2( ) 8 Jan 2016 at 10:54:38
 Copyright (C) 2016 TURBOMOLE GmbH, Karlsruhe


    2017-11-14 00:14:16.175 

                                                                                
  
 HOMO-LUMO Separation
   HOMO:    37.    37 a     -0.15590631 H =     -4.24243 eV
   LUMO:    38.    38 a     -0.09450820 H =     -2.57170 eV
   Gap :                    +0.06139812 H =     +1.67073 eV
 
Number of MOs=   2866, Electrons=     74.00, Symmetry: c1   
 
   Nr.   Orbital    Occupation       Energy
   54.    54 a                     +0.069257 H =        +1.885 eV
   53.    53 a                     +0.061221 H =        +1.666 eV
   52.    52 a                     +0.057919 H =        +1.576 eV
   51.    51 a                     +0.056121 H =        +1.527 eV
   50.    50 a                     +0.050809 H =        +1.383 eV
   49.    49 a                     +0.046077 H =        +1.254 eV
   48.    48 a                     +0.044895 H =        +1.222 eV
   47.    47 a                     +0.037257 H =        +1.014 eV
   46.    46 a                     +0.034174 H =        +0.930 eV
   45.    45 a                     +0.029760 H =        +0.810 eV
   44.    44 a                     +0.017868 H =        +0.486 eV
   43.    43 a                     +0.000771 H =        +0.021 eV
   42.    42 a                     -0.013762 H =        -0.374 eV
   41.    41 a                     -0.018921 H =        -0.515 eV
   40.    40 a                     -0.023000 H =        -0.626 eV
   39.    39 a                     -0.036651 H =        -0.997 eV
   38.    38 a                     -0.094508 H =        -2.572 eV
   37.    37 a        2.000        -0.155906 H =        -4.242 eV
   36.    36 a        2.000        -0.187653 H =        -5.106 eV
   35.    35 a        2.000        -0.190840 H =        -5.193 eV
   34.    34 a        2.000        -0.212578 H =        -5.785 eV
   33.    33 a        2.000        -0.216452 H =        -5.890 eV
   32.    32 a        2.000        -0.285159 H =        -7.760 eV
   31.    31 a        2.000        -0.300497 H =        -8.177 eV
   30.    30 a        2.000        -0.305121 H =        -8.303 eV
   29.    29 a        2.000        -0.321798 H =        -8.757 eV
   28.    28 a        2.000        -0.342452 H =        -9.319 eV
   27.    27 a        2.000        -0.364153 H =        -9.909 eV
   26.    26 a        2.000        -0.369168 H =       -10.046 eV
   25.    25 a        2.000        -0.386266 H =       -10.511 eV
   24.    24 a        2.000        -0.390360 H =       -10.622 eV
   23.    23 a        2.000        -0.433172 H =       -11.787 eV
   22.    22 a        2.000        -0.477805 H =       -13.002 eV
