STARTING dscf ON 32 PROCESSORS!
RUNNING PROGRAM /beegfs/modfac/apps/TURBOMOLE/7.2.1-official/bin/em64t-unknown-linux-gnu_mpi/dscf_mpi.
PLEASE WAIT UNTIL dscf HAS FINISHED.
Look for the output in slave1.output.
MACHINEFILE is ./hostlist
Warning: Permanently added '10.201.4.11' (RSA) to the list of known hosts.
 this is node-proc. number 1 running on node c-4-10.local
 the total number of node-proc. spawned is  33
  parallel platform: MPP or cluster with fast interconnect

 dscf (c-4-10.local) : TURBOMOLE V7.2 ( 21471 ) 7 Nov 2017 at 16:15:16
 Copyright (C) 2017 TURBOMOLE GmbH, Karlsruhe


    2018-02-24 17:48:37.908 


 SCF run will be profiled !



                             d s c f - program

                   idea & directorship : reinhart ahlrichs
                   program development : marco haeser
                                         michael baer
                           dft version : oliver treutler
           parallelized version : malte v. arnim, gina corongiu, GMD 


                          quantum chemistry group
                          universitaet  karlsruhe
                                  germany




                          References             
                                                 
          TURBOMOLE:                             
              R. Ahlrichs, M. Baer, M. Haeser, H. Horn, and
              C. Koelmel
              Electronic structure calculations on workstation
              computers: the program system TURBOMOLE
              Chem. Phys. Lett. 162: 165 (1989)
          Density Functional:                              
              O. Treutler and R. Ahlrichs                      
              Efficient Molecular Numerical Integration Schemes
              J. Chem. Phys. 102: 346 (1995)                   
          Parallel Version:                                
              Performance of parallel TURBOMOLE for Density    
              Functional Calculations                          
              M. v. Arnim and R. Ahlrichs                      
              J. Comp. Chem. 19: 1746 (1998)                   
                                         




              +--------------------------------------------------+
              | Atomic coordinate, charge and isotop information |
              +--------------------------------------------------+

                    atomic coordinates            atom    charge  isotop
          4.43447124   -4.75586619   -6.29164637    c      6.000     0
          7.00194567   -5.03917058   -2.60788986    c      6.000     0
          6.16291965   -2.30038691    3.63738772    c      6.000     0
          7.58664886   -4.31129364    0.03188123    c      6.000     0
          2.22134772   -3.71535362   -7.65452807    c      6.000     0
         -1.51221397   -1.47454553   -7.30870014    c      6.000     0
          7.87685627   -7.32744330   -6.14279865    c      6.000     0
          4.04133166   -0.99267910    4.96856027    c      6.000     0
          4.01712438    1.66743662    5.14225613    c      6.000     0
          2.11050238   -2.44607113    6.08769397    c      6.000     0
         -3.40200777   -0.24178057   -5.61008615    c      6.000     0
         -3.42550429    2.41120288   -5.34381635    c      6.000     0
         -5.16149597   -1.75485674   -4.30181595    c      6.000     0
          2.02010760    2.90376840    6.53734104    c      6.000     0
         -7.03953249   -0.56453767   -2.71816461    c      6.000     0
          0.11997473   -1.19405182    7.47528860    c      6.000     0
         -5.31380528    3.58327486   -3.75597932    c      6.000     0
          4.95128306   -3.94530879   -3.84149648    c      6.000     0
         -7.06952338    2.06730125   -2.49009496    c      6.000     0
          0.12948541    1.44175434    7.66541329    c      6.000     0
         -1.87348568   -1.53780479   -9.93174225    c      6.000     0
          8.47284847   -2.71564457    4.86493304    c      6.000     0
         -5.15228966   -4.44737496   -4.46695719    c      6.000     0
          5.89314300    3.20613788    3.96210842    c      6.000     0
         -1.61241426    4.00039580   -6.55620576    c      6.000     0
          2.04075508   -5.13661204    5.89961484    c      6.000     0
          9.92784765   -4.85033346    1.13285113    c      6.000     0
          1.97879378   -3.91655323  -10.27831233    c      6.000     0
         -8.80084760   -2.11524890   -1.39633324    c      6.000     0
          2.03380215    5.59326457    6.72718372    c      6.000     0
         -5.32303902    6.26776589   -3.50521529    c      6.000     0
         -1.81626295   -2.68861301    8.60261294    c      6.000     0
         10.36924276   -4.02346229    3.58999282    c      6.000     0
         -0.10547394   -2.79443651  -11.42497173    c      6.000     0
         -6.87931806   -5.87297900   -3.15829367    c      6.000     0
          5.82796131    5.78864728    4.17511408    c      6.000     0
         -1.67506369    6.57339985   -6.24964607    c      6.000     0
         -8.72669179   -4.69842070   -1.60620726    c      6.000     0
          0.13869410   -6.50573659    7.00959381    c      6.000     0
          3.88847166    6.99744946    5.58911724    c      6.000     0
         -1.81216122   -5.27162160    8.37839337    c      6.000     0
         -3.56103040    7.72589185   -4.71973916    c      6.000     0
          0.49538116   -2.54055638   -6.19706663    n      7.000     0
          5.73150656   -3.08017087    1.26919686    n      7.000     0
          8.50479357   -6.74304039   -3.76450206    n      7.000     0
          5.91662184   -6.45461461   -7.48078405    n      7.000     0
         -3.72948226   -5.36542827   -5.62196921    h      1.000     0
          3.84724839   -2.46807414   -2.96161964    h      1.000     0
         -0.15038170    3.13384540   -7.70379565    h      1.000     0
          7.36473427    2.29789997    2.85992123    h      1.000     0
          3.50519198   -6.09331107    4.83083608    h      1.000     0
         -6.81766489   -7.92012045   -3.28061067    h      1.000     0
         -8.46967394    2.95451768   -1.27628905    h      1.000     0
         -1.36673421    2.37942536    8.72022708    h      1.000     0
         11.33127906   -5.88043176    0.05195247    h      1.000     0
          3.41087115   -4.92102678  -11.34580140    h      1.000     0
         -3.52057937   -0.63682769  -10.75845800    h      1.000     0
        -10.06607550   -5.86072166   -0.57392629    h      1.000     0
          8.74619835   -2.03971280    6.78240421    h      1.000     0
          0.53173501    6.50490696    7.79163450    h      1.000     0
        -10.19852438   -1.19899458   -0.20164976    h      1.000     0
         -3.30911837   -1.72987750    9.63883941    h      1.000     0
         -6.76246872    7.12853759   -2.31885791    h      1.000     0
          9.09476167   -8.68312600   -7.09613874    h      1.000     0
          7.25958387    6.93019105    3.24807297    h      1.000     0
          0.09983864   -8.54775175    6.81596442    h      1.000     0
         -0.26602911    7.74926600   -7.16854926    h      1.000     0
          3.87673097    9.04442144    5.74526535    h      1.000     0
         -3.30831054   -6.38682444    9.23211727    h      1.000     0
         -3.58419253    9.76784625   -4.50953886    h      1.000     0
         -0.35256866   -2.89430347  -13.46047889    h      1.000     0
         12.16994788   -4.39082227    4.50472675    h      1.000     0
         -0.03535146    4.29107920    0.24982253    c      6.000     0
         -0.75738963   -0.11048164    0.42116808    c      6.000     0
         -2.19939078    3.86477743    1.76242829    c      6.000     0
         -2.65217891    1.10656338    1.87986452    c      6.000     0
         -3.30209698    5.99522864    2.86863730    c      6.000     0
         -0.23569882    8.70662256    0.92669905    c      6.000     0
         -2.50182640   -4.09486110    1.45392160    c      6.000     0
         -2.31383298    8.41050675    2.49430196    c      6.000     0
          0.96296462    1.81300021   -0.67826082    c      6.000     0
         -0.65587480   -2.71402037    0.18598611    c      6.000     0
          0.95771161    6.65315783   -0.21994540    c      6.000     0
         -4.38208902   -2.95815994    2.91139948    c      6.000     0
         -4.46480965   -0.33478538    3.13359756    c      6.000     0
         -5.54853087    5.85575495    4.50943713    n      7.000     0
          0.75818111   11.27147990    0.50662751    n      7.000     0
         -2.46689288   -6.87084789    1.25422892    n      7.000     0
         -7.27881521    4.43174722    3.85754329    o      8.000     0
         -5.56674865    7.21105183    6.40383546    o      8.000     0
          2.62925103   11.47775583   -0.87168545    o      8.000     0
         -0.76880662   -7.84789201   -0.00946968    o      8.000     0
         -0.33539161   13.04547697    1.55802431    o      8.000     0
         -4.14386807   -8.05678335    2.37070255    o      8.000     0
          2.80988501    1.53021009   -2.02642837    o      8.000     0
         -5.94167942    0.53371505    4.24582014    h      1.000     0
         -3.16269627   10.03483304    3.40371934    h      1.000     0
         -5.75831993   -4.14366486    3.84880881    h      1.000     0
          2.60460665    6.90346163   -1.40880503    h      1.000     0
          0.78167161   -3.64955053   -0.91979858    h      1.000     0
 
       center of nuclear mass  :   -0.00022047    0.16828055    0.01438965
       center of nuclear charge:   -0.00261250    0.15506363    0.01521903

              +--------------------------------------------------+
              |               basis set information              |
              +--------------------------------------------------+

              we will work with the 1s 3p 5d 7f 9g ... basis set
              ...i.e. with spherical basis functions...

   type   atoms  prim   cont   basis
   ---------------------------------------------------------------------------
    c       55     77     55   cc-pVQZ   [5s4p3d2f1g|21s6p3d2f1g]
    n        7     77     55   cc-pVQZ   [5s4p3d2f1g|21s6p3d2f1g]
    h       31     32     30   cc-pVQZ   [4s3p2d1f|6s3p2d1f]
    o        7     77     55   cc-pVQZ   [5s4p3d2f1g|21s6p3d2f1g]
   ---------------------------------------------------------------------------
   total:  100   6305   4725
   ---------------------------------------------------------------------------

   total number of primitive shells          :  111
   total number of contracted shells         : 1345
   total number of cartesian basis functions : 5915
   total number of SCF-basis functions       : 4725


 integral neglect threshold       :  0.56E-14
 integral storage threshold THIZE :  0.10E-04
 integral storage threshold THIME :         5


 DENSITY CONVERGENCE CHECK SWITCHED ON !
 SCF CONVERGENCE IF RMS(delta[D]) <     0.1000000000E-06


 symmetry group of the molecule :   c1 

 the group has the following generators :
   c1(z)

    1 symmetry operations found

 there are 1 real representations :   a   

 maximum number of shells which are related by symmetry :  1


    mo occupation :
   irrep   mo's   occupied
    a     4725      233
 
 number of basis functions   :                   4725
 number of occupied orbitals :                    233
 

 automatic virtual orbital shift switched on 
      shift if e(lumo)-e(homo) < 0.10000000    


 keyword $2e-ints_shell_statistics missing in file <control>

 ! One task per shell generated
  No pre-computed optimal task distribution found
  ... using automatic task generation

          ------------------------
          nuclear repulsion energy  :   11345.2802999    
          ------------------------


         -----------------
         -S,T+V- integrals
         -----------------

 1e-integrals will be neglected if expon. factor < 0.564998E-15
 
   Difference densities algorithm switched on.
   The maximal number of linear combinations of
   difference densities is                    20 .

 DIIS switched on: error vector is FDS-SDF
 Max. Iterations for DIIS is     :   5
 DIIS matrix (see manual) 
    Scaling factor of diagonals  :  1.200
    threshold for scaling factor :  0.000

 scf convergence criterion : increment of total energy < .1000000D-08
                  and increment of one-electron energy < .1000000D-05

  MOs are in ASCII format !


 reading orbital data $scfmo  from file mos
 orbital characterization : expanded
 mo provided and orthogonalized by Cholesky decomposition

 DSCF restart information will be dumped onto file mos

 
                                              current damping :  0.300
 ITERATION  ENERGY          1e-ENERGY        2e-ENERGY     RMS[dD(SAO)]   TOL
   1  -2994.1288727261    -26598.102074     12258.692902    0.000D+00 0.564D-14
          max. resid. norm for Fia-block=  4.097D-01 for orbital    134a         
          max. resid. fock norm         =  8.381D+00 for orbital   4139a         
          Delta Eig. =   887.7710351638 eV 
 
                                              current damping :  0.250
 ITERATION  ENERGY          1e-ENERGY        2e-ENERGY     RMS[dD(SAO)]   TOL
   2  -3004.9252742857    -26706.969425     12356.763851    0.210D-01 0.563D-14
          Norm of current diis error:  7.5711    
          max. resid. norm for Fia-block=  1.833D-01 for orbital    233a         
          max. resid. fock norm         =  4.665D-01 for orbital   4373a         
          irrep a   : virtual orbitals shifted by    0.02725
          Delta Eig. =   199.3637277839 eV 
 
                                              current damping :  0.200
 ITERATION  ENERGY          1e-ENERGY        2e-ENERGY     RMS[dD(SAO)]   TOL
   3  -3006.3770714104    -26702.183642     12350.526270    0.323D-02 0.353D-14
          Norm of current diis error:  3.3771    
          max. resid. norm for Fia-block=  7.402D-02 for orbital    162a         
          max. resid. fock norm         =  1.541D-01 for orbital   4412a         
          Delta Eig. =    47.1578749139 eV 
 
                                              current damping :  0.250
 ITERATION  ENERGY          1e-ENERGY        2e-ENERGY     RMS[dD(SAO)]   TOL
   4  -3006.7236771855    -26713.118620     12361.114643    0.721D-03 0.292D-14
          Norm of current diis error:  1.1937    
          max. resid. norm for Fia-block=  3.220D-02 for orbital    227a         
          max. resid. fock norm         =  5.286D-02 for orbital   4578a         
          Delta Eig. =     6.8302548261 eV 
 
                                              current damping :  0.300
 ITERATION  ENERGY          1e-ENERGY        2e-ENERGY     RMS[dD(SAO)]   TOL
   5  -3006.7716291294    -26712.538586     12360.486657    0.287D-03 0.262D-14
          Norm of current diis error: 0.43436    
          max. resid. norm for Fia-block=  1.145D-02 for orbital    135a         
          max. resid. fock norm         =  2.301D-02 for orbital   4423a         
 mo-orthogonalization: Cholesky decomposition
          Delta Eig. =     1.7736581295 eV 
 
                                              current damping :  0.350
 ITERATION  ENERGY          1e-ENERGY        2e-ENERGY     RMS[dD(SAO)]   TOL
   6  -3006.7799025893    -26712.851599     12360.791396    0.113D-03 0.243D-14
          Norm of current diis error: 0.20752    
          max. resid. norm for Fia-block=  6.039D-03 for orbital    210a         
          max. resid. fock norm         =  7.757D-03 for orbital   4668a         
          Delta Eig. =     0.4655712211 eV 
 
                                              current damping :  0.200
 ITERATION  ENERGY          1e-ENERGY        2e-ENERGY     RMS[dD(SAO)]   TOL
   7  -3006.7821772567    -26712.925655     12360.863178    0.601D-04 0.230D-14
          Norm of current diis error: 0.95872E-01
          max. resid. norm for Fia-block=  3.663D-03 for orbital    143a         
          max. resid. fock norm         =  4.324D-03 for orbital    240a         
          Delta Eig. =     0.1381992562 eV 
 
                                              current damping :  0.250
 ITERATION  ENERGY          1e-ENERGY        2e-ENERGY     RMS[dD(SAO)]   TOL
   8  -3006.7829444903    -26712.918784     12360.855540    0.301D-04 0.216D-14
          Norm of current diis error: 0.48008E-01
          max. resid. norm for Fia-block=  1.816D-03 for orbital    223a         
          max. resid. fock norm         =  1.925D-03 for orbital    240a         
          Delta Eig. =     0.0857847059 eV 
 
                                              current damping :  0.300
 ITERATION  ENERGY          1e-ENERGY        2e-ENERGY     RMS[dD(SAO)]   TOL
   9  -3006.7831378075    -26712.940494     12360.877056    0.122D-04 0.206D-14
          Norm of current diis error: 0.24413E-01
          max. resid. norm for Fia-block=  1.097D-03 for orbital    222a         
          max. resid. fock norm         =  1.200D-03 for orbital    238a         
          Delta Eig. =     0.0348555688 eV 
 
                                              current damping :  0.350
 ITERATION  ENERGY          1e-ENERGY        2e-ENERGY     RMS[dD(SAO)]   TOL
  10  -3006.7831893530    -26712.931865     12360.868376    0.491D-05 0.198D-14
          Norm of current diis error: 0.13085E-01
          max. resid. norm for Fia-block=  6.649D-04 for orbital    223a         
          max. resid. fock norm         =  6.712D-04 for orbital    223a         
 mo-orthogonalization: Cholesky decomposition
          Delta Eig. =     0.0153289928 eV 
 
                                              current damping :  0.400
 ITERATION  ENERGY          1e-ENERGY        2e-ENERGY     RMS[dD(SAO)]   TOL
  11  -3006.7832054997    -26712.940362     12360.876856    0.276D-05 0.190D-14
          Norm of current diis error: 0.75525E-02
          max. resid. norm for Fia-block=  4.216D-04 for orbital    222a         
          max. resid. fock norm         =  4.310D-04 for orbital    222a         
          Delta Eig. =     0.0075418181 eV 
 
                                              current damping :  0.450
 ITERATION  ENERGY          1e-ENERGY        2e-ENERGY     RMS[dD(SAO)]   TOL
  12  -3006.7832108068    -26712.933439     12360.869928    0.161D-05 0.185D-14
          Norm of current diis error: 0.41848E-02
          max. resid. norm for Fia-block=  2.393D-04 for orbital    222a         
          max. resid. fock norm         =  2.548D-04 for orbital    238a         
          Delta Eig. =     0.0038980723 eV 
 
                                              current damping :  0.500
 ITERATION  ENERGY          1e-ENERGY        2e-ENERGY     RMS[dD(SAO)]   TOL
  13  -3006.7832126446    -26712.938912     12360.875400    0.964D-06 0.179D-14
          Norm of current diis error: 0.25143E-02
          max. resid. norm for Fia-block=  1.560D-04 for orbital    222a         
          max. resid. fock norm         =  1.592D-04 for orbital    222a         
          Delta Eig. =     0.0020793377 eV 
 
                                              current damping :  0.550
 ITERATION  ENERGY          1e-ENERGY        2e-ENERGY     RMS[dD(SAO)]   TOL
  14  -3006.7832132919    -26712.935982     12360.872469    0.536D-06 0.174D-14
          Norm of current diis error: 0.14466E-02
          max. resid. norm for Fia-block=  8.691D-05 for orbital    233a         
          max. resid. fock norm         =  8.722D-05 for orbital    233a         
          Delta Eig. =     0.0010733882 eV 
 
                                              current damping :  0.600
 ITERATION  ENERGY          1e-ENERGY        2e-ENERGY     RMS[dD(SAO)]   TOL
  15  -3006.7832135258    -26712.937490     12360.873977    0.301D-06 0.169D-14
          Norm of current diis error: 0.88958E-03
          max. resid. norm for Fia-block=  6.114D-05 for orbital    231a         
          max. resid. fock norm         =  6.136D-05 for orbital    231a         
 mo-orthogonalization: Cholesky decomposition
          Delta Eig. =     0.0006287757 eV 
 
                                              current damping :  0.650
 ITERATION  ENERGY          1e-ENERGY        2e-ENERGY     RMS[dD(SAO)]   TOL
  16  -3006.7832136125    -26712.937083     12360.873569    0.179D-06 0.164D-14
          Norm of current diis error: 0.54330E-03
          max. resid. norm for Fia-block=  4.073D-05 for orbital    233a         
          max. resid. fock norm         =  4.082D-05 for orbital    233a         
          Delta Eig. =     0.0003241611 eV 
 
                                              current damping :  0.700
 ITERATION  ENERGY          1e-ENERGY        2e-ENERGY     RMS[dD(SAO)]   TOL
  17  -3006.7832136452    -26712.937344     12360.873831    0.107D-06 0.158D-14
          Norm of current diis error: 0.35539E-03
          max. resid. norm for Fia-block=  2.936D-05 for orbital    231a         
          max. resid. fock norm         =  2.942D-05 for orbital    231a         
          Delta Eig. =     0.0003127732 eV 

 DENSITY CONVERGED !

 
                                              current damping :  0.750
 ITERATION  ENERGY          1e-ENERGY        2e-ENERGY     RMS[dD(SAO)]   TOL
  18  -3006.7832136590    -26712.937303     12360.873789    0.732D-07 0.153D-14
          Norm of current diis error: 0.22957E-03
          max. resid. norm for Fia-block=  1.974D-05 for orbital    233a         
          max. resid. fock norm         =  1.977D-05 for orbital    233a         
          Delta Eig. =     0.0001431572 eV 

 DENSITY CONVERGED !

 
                                              current damping :  0.800
 ITERATION  ENERGY          1e-ENERGY        2e-ENERGY     RMS[dD(SAO)]   TOL
  19  -3006.7832136644    -26712.937430     12360.873916    0.461D-07 0.147D-14
          Norm of current diis error: 0.15634E-03
          max. resid. norm for Fia-block=  1.390D-05 for orbital    231a         
          max. resid. fock norm         =  1.392D-05 for orbital    231a         
          Delta Eig. =     0.0001477838 eV 

 DENSITY CONVERGED !

 
                                              current damping :  0.850
 ITERATION  ENERGY          1e-ENERGY        2e-ENERGY     RMS[dD(SAO)]   TOL
  20  -3006.7832136667    -26712.937389     12360.873875    0.338D-07 0.141D-14
          Norm of current diis error: 0.10201E-03
          max. resid. norm for Fia-block=  9.307D-06 for orbital    233a         
          max. resid. fock norm         =  9.322D-06 for orbital    233a         
 mo-orthogonalization: Cholesky decomposition
          Delta Eig. =     0.0000646671 eV 

 DENSITY CONVERGED !

 
                                              current damping :  0.900
 ITERATION  ENERGY          1e-ENERGY        2e-ENERGY     RMS[dD(SAO)]   TOL
  21  -3006.7832136682    -26712.937458     12360.873944    0.205D-07 0.161D-14
          Norm of current diis error: 0.69146E-04
          max. resid. norm for Fia-block=  6.092D-06 for orbital    233a         
          max. resid. fock norm         =  6.118D-06 for orbital    233a         
          Delta Eig. =     0.0000613167 eV 

 DENSITY CONVERGED !

 
                                              current damping :  0.950
 ITERATION  ENERGY          1e-ENERGY        2e-ENERGY     RMS[dD(SAO)]   TOL
  22  -3006.7832136686    -26712.937442     12360.873928    0.145D-07 0.564D-14
          Norm of current diis error: 0.45230E-04
          max. resid. norm for Fia-block=  3.887D-06 for orbital    233a         
          max. resid. fock norm         =  3.894D-06 for orbital    233a         
          Delta Eig. =     0.0000279716 eV 

 DENSITY CONVERGED !

 
                                              current damping :  1.000
 ITERATION  ENERGY          1e-ENERGY        2e-ENERGY     RMS[dD(SAO)]   TOL
  23  -3006.7832136691    -26712.937464     12360.873951    0.860D-08 0.357D-14
          Norm of current diis error: 0.30474E-04
          max. resid. norm for Fia-block=  2.331D-06 for orbital    233a         
          max. resid. fock norm         =  2.339D-06 for orbital    233a         
          Delta Eig. =     0.0000216400 eV 

 ENERGY & DENSITY CONVERGED !

 
                                              current damping :  1.050
 ITERATION  ENERGY          1e-ENERGY        2e-ENERGY     RMS[dD(SAO)]   TOL
  24  -3006.7832136690    -26712.937461     12360.873948    0.558D-08 0.260D-14
          max. resid. norm for Fia-block=  7.559D-07 for orbital    222a         
          max. resid. fock norm         =  7.620D-07 for orbital    222a         

 convergence criteria satisfied after    24 iterations


                  ------------------------------------------ 
                 |  total energy      =  -3006.78321366898  |
                  ------------------------------------------ 
                 :  kinetic energy    =   3002.32378788784  :
                 :  potential energy  =  -6009.10700155682  :
                 :  virial theorem    =      1.99851687818  :
                 :  wavefunction norm =      1.00000000000  :
                  .......................................... 


 <geterg> : there is no data group $energy 


 <skperg> : $end is missing 


 orbitals $scfmo  will be written to file mos

    irrep                229a        230a        231a        232a        233a   
 eigenvalues H         -0.32952    -0.32366    -0.31984    -0.27122    -0.26897
            eV          -8.9668     -8.8072     -8.7034     -7.3804     -7.3192
 occupation              2.0000      2.0000      2.0000      2.0000      2.0000 

    irrep                234a        235a        236a        237a        238a   
 eigenvalues H         -0.01279     0.01363     0.03446     0.03701     0.04199
            eV          -0.3480      0.3710      0.9378      1.0070      1.1427
 
 
 
 
 ==============================================================================
                           electrostatic moments
 ==============================================================================

 reference point for electrostatic moments:    0.00000   0.00000   0.00000

 
              nuc           elec       ->  total
 ------------------------------------------------------------------------------
                          charge      
 ------------------------------------------------------------------------------
         466.000000    -466.000000      -0.000000
 
 ------------------------------------------------------------------------------
                       dipole moment  
 ------------------------------------------------------------------------------
   x      -1.217426       1.140218      -0.077209
   y      72.259651     -72.336186      -0.076536
   z       7.092066      -7.064763       0.027304
 
   | dipole moment | =     0.1121 a.u. =     0.2849 debye 
 
 ------------------------------------------------------------------------------
                     quadrupole moment
 ------------------------------------------------------------------------------
  xx   10560.117685  -10843.660542    -283.542857
  yy   13494.523517  -13817.539677    -323.016161
  zz   11575.409011  -11855.486996    -280.077984
  xy   -2215.161737    2213.347426      -1.814312
  xz     620.988391    -615.398860       5.589531
  yz    1878.255613   -1883.204261      -4.948648
 
     1/3  trace=    -295.545667
     anisotropy=      43.404932
 
 ==============================================================================
 

    dscf profiling
  --------------------------------------------------------------------
             module   cpu total (s)       %  wall total (s)       %

          dscf.total        108525.7  100.00        103014.5  100.00
        dscf.prepare           121.7    0.11           122.2    0.12
      prepare.oneint             1.5    0.00             1.5    0.00
     prepare.moinput             0.9    0.00             0.9    0.00
     moinput_orthmos           117.9    0.11           117.9    0.11
            dscf.scf        108399.2   99.88        102887.3   99.88
             scf.pre             0.0    0.00             0.1    0.00
        scf.makedmat            95.4    0.09           122.0    0.12
          scf.shloop         99898.2   92.05         99851.3   96.93
          shloop_omp         99890.7   92.04         99843.8   96.92
          scf.symcar             9.5    0.01             9.5    0.01
        scf.makefock            29.6    0.03            54.9    0.05
          scf.newerg             0.9    0.00             0.9    0.00
          scf.newcnv          1759.9    1.62           256.0    0.25
           scf.fdiag          4382.6    4.04           549.8    0.53
         diag_tritrn          1110.8    1.02           139.6    0.14
          diag_rdiag          3255.3    3.00           407.6    0.40
          scf.modump          1820.6    1.68          1813.8    1.76
           ortho_all           321.3    0.30           144.3    0.14
            scf.post            79.4    0.07            84.3    0.08
        dscf.postscf             4.8    0.00             5.1    0.00
 


    ------------------------------------------------------------------------
         total  cpu-time :   1 days  6 hours  8 minutes and 46 seconds
         total wall-time :   1 days  4 hours 36 minutes and 55 seconds
    ------------------------------------------------------------------------

   ****  dscf : all done  ****


    2018-02-25 22:25:32.632 

