
   OpenMP run-time library returned nthreads = 28
 operating system is UNIX !

 dscf (c-19-413) : TURBOMOLE V7.3 ( 22142 ) 4 Jul 2018 at 18:12:42
 Copyright (C) 2018 TURBOMOLE GmbH, Karlsruhe


    2019-04-02 16:00:34.453 



                             d s c f - program

                   idea & directorship : reinhart ahlrichs
                   program development : marco haeser
                                         michael baer
                           dft version : oliver treutler


                          quantum chemistry group
                          universitaet  karlsruhe
                                  germany




                          References             
                                                 
          TURBOMOLE:                             
              R. Ahlrichs, M. Baer, M. Haeser, H. Horn, and
              C. Koelmel
              Electronic structure calculations on workstation
              computers: the program system TURBOMOLE
              Chem. Phys. Lett. 162: 165 (1989)
          Density Functional:                              
              O. Treutler and R. Ahlrichs                      
              Efficient Molecular Numerical Integration Schemes
              J. Chem. Phys. 102: 346 (1995)                   
          Parallel Version:                                
              Performance of parallel TURBOMOLE for Density    
              Functional Calculations                          
              M. v. Arnim and R. Ahlrichs                      
              J. Comp. Chem. 19: 1746 (1998)                   
                                         




              +--------------------------------------------------+
              | Atomic coordinate, charge and isotop information |
              +--------------------------------------------------+

                    atomic coordinates            atom    charge  isotop
         -1.36873741   -1.33213565    4.31588478    c      6.000     0
          0.63365972   -1.19042022    3.87995234    h      1.000     0
         -1.79844605   -3.23519151    4.96176218    h      1.000     0
         -1.83233107   -0.04172430    5.84636928    h      1.000     0
         -3.05178489   -0.73213518    2.08638798    c      6.000     0
         -5.36176507   -0.78427808    2.25658391    o      8.000     0
         -1.80170339   -0.14438344   -0.07713824    n      7.000     0
          0.10168352   -0.14280001   -0.06923998    h      1.000     0
         -3.13340021    0.47260838   -2.37832061    c      6.000     0
         -5.14075800    0.33437653   -1.97788696    h      1.000     0
         -2.70288461    2.38665349   -3.00106244    h      1.000     0
         -2.65624839   -0.83967180   -3.89015920    h      1.000     0
          3.97367278   -0.11037319   -0.29305247    o      8.000     0
          5.04132512   -1.45766972   -0.86979576    h      1.000     0
          5.06924457    1.33374336   -0.24789086    h      1.000     0
 
       center of nuclear mass  :   -1.55291118   -0.42069004    0.91466919
       center of nuclear charge:   -1.44649904   -0.41141146    0.87888091

              +--------------------------------------------------+
              |               basis set information              |
              +--------------------------------------------------+

              we will work with the 1s 3p 5d 7f 9g ... basis set
              ...i.e. with spherical basis functions...

   type   atoms  prim   cont   basis
   ---------------------------------------------------------------------------
    c        3     77     55   cc-pVQZ   [5s4p3d2f1g|21s6p3d2f1g]
    h        9     32     30   cc-pVQZ   [4s3p2d1f|6s3p2d1f]
    o        2     77     55   cc-pVQZ   [5s4p3d2f1g|21s6p3d2f1g]
    n        1     77     55   cc-pVQZ   [5s4p3d2f1g|21s6p3d2f1g]
   ---------------------------------------------------------------------------
   total:   15    750    600
   ---------------------------------------------------------------------------

   total number of primitive shells          :  111
   total number of contracted shells         :  180
   total number of cartesian basis functions :  735
   total number of SCF-basis functions       :  600


 integral neglect threshold       :  0.45E-13
 integral storage threshold THIZE :  0.10E-04
 integral storage threshold THIME :         5


 DENSITY CONVERGENCE CHECK SWITCHED ON !
 SCF CONVERGENCE IF RMS(delta[D]) <     0.1000000000E-06


 symmetry group of the molecule :   c1 

 the group has the following generators :
   c1(z)

    1 symmetry operations found

 there are 1 real representations :   a   

 maximum number of shells which are related by symmetry :  1


    mo occupation :
   irrep   mo's   occupied
    a      600       25
 
 number of basis functions   :                    600
 number of occupied orbitals :                     25
 

 automatic virtual orbital shift switched on 
      shift if e(lumo)-e(homo) < 0.10000000    


          ------------------------
          nuclear repulsion energy  :   243.511940059    
          ------------------------


         -----------------
         -S,T+V- integrals
         -----------------

 1e-integrals will be neglected if expon. factor < 0.454689E-14
 
   Difference densities algorithm switched on.
   The maximal number of linear combinations of
   difference densities is                    20 .

 DIIS switched on: error vector is FDS-SDF
 Max. Iterations for DIIS is     :   5
 DIIS matrix (see manual) 
    Scaling factor of diagonals  :  1.200
    threshold for scaling factor :  0.000

 scf convergence criterion : increment of total energy < .1000000D-08
                  and increment of one-electron energy < .1000000D-05

  MOs are in ASCII format !


 reading orbital data $scfmo  from file mos
 orbital characterization : scfconv=9

 DSCF restart information will be dumped onto file mos

 
                                              current damping :  0.700
 ITERATION  ENERGY          1e-ENERGY        2e-ENERGY     RMS[dD(SAO)]   TOL
   1  -323.11867698126    -925.12432699     358.49370995    0.000D+00 0.454D-13
          max. resid. norm for Fia-block=  1.192D-01 for orbital      1a         
          max. resid. fock norm         =  2.577D-01 for orbital    600a         
          Delta Eig. =    29.9748643522 eV 
 
                                              current damping :  0.650
 ITERATION  ENERGY          1e-ENERGY        2e-ENERGY     RMS[dD(SAO)]   TOL
   2  -323.17350603217    -924.55116920     357.86572311    0.100D-02 0.294D-13
          Norm of current diis error: 0.65744    
          max. resid. norm for Fia-block=  5.470D-02 for orbital      1a         
          max. resid. fock norm         =  9.900D-02 for orbital    600a         
          Delta Eig. =    12.9804594172 eV 
 
                                              current damping :  0.600
 ITERATION  ENERGY          1e-ENERGY        2e-ENERGY     RMS[dD(SAO)]   TOL
   3  -323.18457777167    -924.66353058     357.96701275    0.456D-03 0.223D-13
          Norm of current diis error: 0.29003    
          max. resid. norm for Fia-block=  2.400D-02 for orbital      2a         
          max. resid. fock norm         =  3.843D-02 for orbital    597a         
          Delta Eig. =     5.5610118695 eV 
 
                                              current damping :  0.650
 ITERATION  ENERGY          1e-ENERGY        2e-ENERGY     RMS[dD(SAO)]   TOL
   4  -323.18705657212    -924.65526281     357.95626618    0.223D-03 0.195D-13
          Norm of current diis error: 0.12105    
          max. resid. norm for Fia-block=  8.738D-03 for orbital      1a         
          max. resid. fock norm         =  1.479D-02 for orbital    539a         
          Delta Eig. =     2.0305409002 eV 
 
                                              current damping :  0.500
 ITERATION  ENERGY          1e-ENERGY        2e-ENERGY     RMS[dD(SAO)]   TOL
   5  -323.18750344781    -924.64219586     357.94275235    0.806D-04 0.181D-13
          Norm of current diis error: 0.52419E-01
          max. resid. norm for Fia-block=  3.434D-03 for orbital     17a         
          max. resid. fock norm         =  5.631D-03 for orbital    600a         
 mo-orthogonalization: Cholesky decomposition
          Delta Eig. =     0.8195080083 eV 
 
                                              current damping :  0.350
 ITERATION  ENERGY          1e-ENERGY        2e-ENERGY     RMS[dD(SAO)]   TOL
   6  -323.18760334915    -924.64095933     357.94141592    0.413D-04 0.170D-13
          Norm of current diis error: 0.20954E-01
          max. resid. norm for Fia-block=  1.532D-03 for orbital     17a         
          max. resid. fock norm         =  1.884D-03 for orbital    600a         
          Delta Eig. =     0.3097362965 eV 
 
                                              current damping :  0.200
 ITERATION  ENERGY          1e-ENERGY        2e-ENERGY     RMS[dD(SAO)]   TOL
   7  -323.18762297814    -924.64029003     357.94072699    0.175D-04 0.160D-13
          Norm of current diis error: 0.76003E-02
          max. resid. norm for Fia-block=  6.246D-04 for orbital     17a         
          max. resid. fock norm         =  6.704D-04 for orbital     34a         
          Delta Eig. =     0.0891621318 eV 
 
                                              current damping :  0.050
 ITERATION  ENERGY          1e-ENERGY        2e-ENERGY     RMS[dD(SAO)]   TOL
   8  -323.18762630662    -924.64013213     357.94056577    0.693D-05 0.150D-13
          Norm of current diis error: 0.25321E-02
          max. resid. norm for Fia-block=  2.294D-04 for orbital     17a         
          max. resid. fock norm         =  2.481D-04 for orbital     34a         
          Delta Eig. =     0.0199639771 eV 
 
                                              current damping :  0.100
 ITERATION  ENERGY          1e-ENERGY        2e-ENERGY     RMS[dD(SAO)]   TOL
   9  -323.18762678238    -924.64014097     357.94057413    0.235D-05 0.141D-13
          Norm of current diis error: 0.79590E-03
          max. resid. norm for Fia-block=  7.362D-05 for orbital     24a         
          max. resid. fock norm         =  8.404D-05 for orbital     24a         
          Delta Eig. =     0.0045140945 eV 
 
                                              current damping :  0.050
 ITERATION  ENERGY          1e-ENERGY        2e-ENERGY     RMS[dD(SAO)]   TOL
  10  -323.18762682503    -924.64014430     357.94057742    0.661D-06 0.135D-13
          Norm of current diis error: 0.31733E-03
          max. resid. norm for Fia-block=  3.704D-05 for orbital     25a         
          max. resid. fock norm         =  4.299D-05 for orbital     25a         
 mo-orthogonalization: Cholesky decomposition
          Delta Eig. =     0.0024509337 eV 
 
                                              current damping :  0.050
 ITERATION  ENERGY          1e-ENERGY        2e-ENERGY     RMS[dD(SAO)]   TOL
  11  -323.18762683079    -924.64015620     357.94058931    0.214D-06 0.132D-13
          Norm of current diis error: 0.16252E-03
          max. resid. norm for Fia-block=  1.159D-05 for orbital     24a         
          max. resid. fock norm         =  1.988D-05 for orbital    550a         
          Delta Eig. =     0.0010875841 eV 

 DENSITY CONVERGED !

 
                                              current damping :  0.050
 ITERATION  ENERGY          1e-ENERGY        2e-ENERGY     RMS[dD(SAO)]   TOL
  12  -323.18762683191    -924.64015838     357.94059149    0.962D-07 0.129D-13
          Norm of current diis error: 0.36610E-04
          max. resid. norm for Fia-block=  5.162D-06 for orbital     25a         
          max. resid. fock norm         =  5.286D-06 for orbital     25a         
          Delta Eig. =     0.0000755962 eV 

 ENERGY & DENSITY CONVERGED !

 
                                              current damping :  0.100
 ITERATION  ENERGY          1e-ENERGY        2e-ENERGY     RMS[dD(SAO)]   TOL
  13  -323.18762683202    -924.64015665     357.94058976    0.327D-07 0.129D-13
          max. resid. norm for Fia-block=  1.061D-06 for orbital     25a         
          max. resid. fock norm         =  1.299D-06 for orbital     19a         

 convergence criteria satisfied after    13 iterations


                  ------------------------------------------ 
                 |  total energy      =   -323.18762683202  |
                  ------------------------------------------ 
                 :  kinetic energy    =    322.87255612107  :
                 :  potential energy  =   -646.06018295309  :
                 :  virial theorem    =      1.99902511518  :
                 :  wavefunction norm =      1.00000000000  :
                  .......................................... 


 orbitals $scfmo  will be written to file mos

    irrep                 21a         22a         23a         24a         25a   
 eigenvalues H         -0.53517    -0.52657    -0.48841    -0.40343    -0.37254
            eV         -14.5628    -14.3288    -13.2904    -10.9780    -10.1374
 occupation              2.0000      2.0000      2.0000      2.0000      2.0000 

    irrep                 26a         27a         28a         29a         30a   
 eigenvalues H          0.08732     0.13249     0.13951     0.14724     0.18137
            eV           2.3762      3.6052      3.7962      4.0068      4.9353
 
 
 
 
 ==============================================================================
                           electrostatic moments
 ==============================================================================

 reference point for electrostatic moments:    0.00000   0.00000   0.00000

 
              nuc           elec       ->  total
 ------------------------------------------------------------------------------
                          charge      
 ------------------------------------------------------------------------------
          50.000000     -50.000000      -0.000000
 
 ------------------------------------------------------------------------------
                       dipole moment  
 ------------------------------------------------------------------------------
   x     -72.324952      74.970834       2.645882
   y     -20.570573      20.735521       0.164947
   z      43.944045     -44.607437      -0.663392
 
   | dipole moment | =     2.7328 a.u. =     6.9460 debye 
 
 ------------------------------------------------------------------------------
                     quadrupole moment
 ------------------------------------------------------------------------------
  xx     603.966468    -636.022895     -32.056427
  yy      42.690258     -69.144211     -26.453954
  zz     316.011456    -343.482145     -27.470689
  xy      46.012919     -47.510968      -1.498049
  xz    -128.284384     131.797890       3.513506
  yz     -88.752067      89.085898       0.333830
 
     1/3  trace=     -28.660357
     anisotropy=       8.415830
 
 ==============================================================================
 


    ------------------------------------------------------------------------
         total  cpu-time : 44 minutes and 14 seconds
         total wall-time :  3 minutes and 20 seconds
    ------------------------------------------------------------------------

   ****  dscf : all done  ****


    2019-04-02 16:03:54.056 

