=================================== SLURM JOB ===================================
Thu Aug 27 19:41:29 PDT 2015

The job will be started on the following node(s):
c-4-5

Slurm User:         magee
Run Directory:      /work/magee/793300
Job ID:             793300
Job Name:           _comp4b_fragB_rpa.pbe.def2-qzvp
Partition:          mf_nes2.8
Number of nodes:    1
Submitted From:     gplogin1.local:/data12/cmf/magee/RPA_Benchmarking/matt_calcs/S12L/frags/comp4b/fragB/rpa.pbe.def2-qzvp
=================================== SLURM JOB ===================================

--- SLURM job-script output ---
 operating system is UNIX !
 hostname is         c-4-5.local

 ridft (c-4-5.local) : TURBOMOLE V7.0( ) 6 Jul 2015 at 18:30:05
 Copyright (C) 2015 TURBOMOLE GmbH, Karlsruhe


    2015-08-27 19:41:29.091 



                                  r i d f t

                        DFT program with RI approximation 
                                for coulomb part 




                                                 
                                 References:     
                                                 
          TURBOMOLE:                             
              R. Ahlrichs, M. Baer, M. Haeser, H. Horn, and
              C. Koelmel
              Electronic structure calculations on workstation
              computers: the program system TURBOMOLE
              Chem. Phys. Lett. 162: 165 (1989)
          Density Functional:                              
              O. Treutler and R. Ahlrichs                      
              Efficient Molecular Numerical Integration Schemes
              J. Chem. Phys. 102: 346 (1995)                   
          Parallel Version:                                
              Performance of parallel TURBOMOLE for Density    
              Functional Calculations                          
              M. v. Arnim and R. Ahlrichs                      
              J. Comp. Chem. 19: 1746 (1998)                   
          RI-J Method:                                     
              Auxiliary Basis Sets to approximate Coulomb      
              Potentials                                       
              Chem. Phys. Lett. 240: 283 (1995)                
              K. Eichkorn, O. Treutler, H. Oehm, M. Haeser     
              and R. Ahlrichs                                  
              Chem. Phys. Lett. 242: 652 (1995)                
                                                           
              Auxiliary Basis Sets for Main Row Atoms and their
              Use to approximate Coulomb Potentials            
              K. Eichkorn, F. Weigend, O. Treutler and         
              R. Ahlrichs                                      
              Theo. Chem. Acc. 97: 119 (1997)                   
                                                           
              Accurate Coulomb-fitting basis sets for H to Rn 
              F. Weigend                                        
              Phys. Chem. Chem. Phys. 8: 1057 (2006)            
                                                           
          Multipole accelerated RI-J (MARI-J):             
              Fast evaluation of the Coulomb potential for     
              electron densities using multipole accelerated   
              resolution of identity approximation             
              M. Sierka, A. Hogekamp and R. Ahlrichs           
              J. Chem. Phys. 118: 9136 (2003)                  
          RI-JK Method:                                     
              A fully direct RI-HF algorithm: Implementation,
              optimised auxiliary basis sets, demonstration of
              accuracy and efficiency                         
              F. Weigend                                      
              Phys. Chem. Chem. Phys. 4: 4285 (2002)           
          Two-component HF and DFT with spin-orbit coupling:  
              Self-consistent treatment of spin-orbit         
              interactions with efficient Hartree-Fock and    
              density functional methods                      
              M. K. Armbruster, F. Weigend, C. van Wüllen and 
              W. Klopper                                      
              Phys. Chem. Chem. Phys. 10: 1748 (2008)         
          Relativistic all-electron 2c calculations           
              An efficient implementation of two-component    
              relativistic exact-decoupling methods for large 
              molecules                                       
              D. Peng, N. Middendorf, F. Weigend, M. Reiher   
              J. Chem. Phys. 138, 184105 (2013)               
                                         


 


              +--------------------------------------------------+
              |      general information about current run       |
              +--------------------------------------------------+

 
 PBE functional
 exchange:    LDA + PBE
 correlation: LDA (PW) + PBE
 A DFT calculation using the RI-J approximation will be carried out.
 Allocatable memory for RI due to $ricore (MB):        3000


              +--------------------------------------------------+
              | Atomic coordinate, charge and isotop information |
              +--------------------------------------------------+

                    atomic coordinates            atom    charge  isotop
         -4.56740353    0.00000000    6.08402416    c      6.000     0
         -2.33360055    0.00000000    7.49350698    c      6.000     0
         -0.72112223   -2.21938601    7.49350698    c      6.000     0
          1.88792250   -1.37165599    7.49350698    c      6.000     0
         -5.26492406   -2.20015438    4.61292699    c      6.000     0
         -1.41140531   -4.34385889    6.08402416    c      6.000     0
         -5.26492406    2.20015438    4.61292699    c      6.000     0
         -0.72112223    2.21938601    7.49350698    c      6.000     0
          1.88792250    1.37165599    7.49350698    c      6.000     0
         -1.41140531    4.34385889    6.08402416    c      6.000     0
          3.69510707   -2.68465243    6.08402416    c      6.000     0
         -3.71942217   -4.32735524    4.61292699    c      6.000     0
          0.46552016   -5.68712543    4.61292699    c      6.000     0
          3.69510707    2.68465243    6.08402416    c      6.000     0
          2.96619474   -4.87460700    4.61292699    c      6.000     0
          5.55263134   -1.31468243    4.61292699    c      6.000     0
         -6.41310566   -1.35890351    2.27969114    c      6.000     0
         -3.71942217    4.32735524    4.61292699    c      6.000     0
         -6.41310566    1.35890351    2.27969114    c      6.000     0
         -3.27415267   -5.67930165    2.27969114    c      6.000     0
         -0.68936460   -6.51915021    2.27969114    c      6.000     0
          4.38956803   -4.86890496    2.27969114    c      6.000     0
          5.98705491   -2.67015290    2.27969114    c      6.000     0
          5.55263134    1.31468243    4.61292699    c      6.000     0
         -6.14450752   -2.74987098    0.00000000    c      6.000     0
         -4.51403997   -4.99401705    0.00000000    c      6.000     0
          0.71652547   -6.69353079    0.00000000    c      6.000     0
          3.35467740   -5.83634326    0.00000000    c      6.000     0
          6.58734462   -1.38695855    0.00000000    c      6.000     0
          5.98705491    2.67015290    2.27969114    c      6.000     0
         -6.41310566   -1.35890351   -2.27969114    c      6.000     0
         -6.14450752    2.74987098    0.00000000    c      6.000     0
         -3.27415267   -5.67930165   -2.27969114    c      6.000     0
         -0.68936460   -6.51915021   -2.27969114    c      6.000     0
          4.38956803   -4.86890496   -2.27969114    c      6.000     0
          5.98705491   -2.67015290   -2.27969114    c      6.000     0
          6.58734462    1.38695855    0.00000000    c      6.000     0
         -5.26492406   -2.20015438   -4.61292699    c      6.000     0
         -6.41310566    1.35890351   -2.27969114    c      6.000     0
         -3.71942217   -4.32735524   -4.61292699    c      6.000     0
          0.46552016   -5.68712543   -4.61292699    c      6.000     0
          2.96619474   -4.87460700   -4.61292699    c      6.000     0
          5.55263134   -1.31468243   -4.61292699    c      6.000     0
          5.98705491    2.67015290   -2.27969114    c      6.000     0
          0.46552016    5.68712543    4.61292699    c      6.000     0
          2.96619474    4.87460700    4.61292699    c      6.000     0
         -3.27415267    5.67930165    2.27969114    c      6.000     0
          4.38956803    4.86890496    2.27969114    c      6.000     0
         -4.51403997    4.99401705    0.00000000    c      6.000     0
         -4.56740353    0.00000000   -6.08402416    c      6.000     0
         -5.26492406    2.20015438   -4.61292699    c      6.000     0
         -1.41140531   -4.34385889   -6.08402416    c      6.000     0
          3.69510707   -2.68465243   -6.08402416    c      6.000     0
          5.55263134    1.31468243   -4.61292699    c      6.000     0
          4.38956803    4.86890496   -2.27969114    c      6.000     0
         -0.68936460    6.51915021    2.27969114    c      6.000     0
          3.35467740    5.83634326    0.00000000    c      6.000     0
         -3.27415267    5.67930165   -2.27969114    c      6.000     0
         -2.33360055    0.00000000   -7.49350698    c      6.000     0
         -3.71942217    4.32735524   -4.61292699    c      6.000     0
         -0.72112223   -2.21938601   -7.49350698    c      6.000     0
          1.88792250   -1.37165599   -7.49350698    c      6.000     0
          3.69510707    2.68465243   -6.08402416    c      6.000     0
          2.96619474    4.87460700   -4.61292699    c      6.000     0
          0.71652547    6.69353079    0.00000000    c      6.000     0
         -0.68936460    6.51915021   -2.27969114    c      6.000     0
         -0.72112223    2.21938601   -7.49350698    c      6.000     0
         -1.41140531    4.34385889   -6.08402416    c      6.000     0
          1.88792250    1.37165599   -7.49350698    c      6.000     0
          0.46552016    5.68712543   -4.61292699    c      6.000     0
 
       center of nuclear mass  :    0.00000000   -0.00000000   -0.00000000
       center of nuclear charge:    0.00000000   -0.00000000   -0.00000000

              +--------------------------------------------------+
              |               basis set information              |
              +--------------------------------------------------+

              we will work with the 1s 3p 5d 7f 9g ... basis set
              ...i.e. with spherical basis functions...

   type   atoms  prim   cont   basis
   ---------------------------------------------------------------------------
    c       70     77     57   def2-QZVP   [7s4p3d2f1g|15s8p3d2f1g]
   ---------------------------------------------------------------------------
   total:   70   5390   3990
   ---------------------------------------------------------------------------

   total number of primitive shells          :   29
   total number of contracted shells         : 1190
   total number of cartesian basis functions : 5040
   total number of SCF-basis functions       : 3990


 integral neglect threshold       :  0.66E-14
 integral storage threshold THIZE :  0.10E-04
 integral storage threshold THIME :         5

 RI-J AUXILIARY BASIS SET information:

              we will work with the 1s 3p 5d 7f 9g ... basis set
              ...i.e. with spherical basis functions...

   type   atoms  prim   cont   basis
   ---------------------------------------------------------------------------
    c       70     70     49   def2-QZVP   [6s4p3d1f1g|12s5p4d2f1g]
   ---------------------------------------------------------------------------
   total:   70   4900   3430
   ---------------------------------------------------------------------------

   total number of primitive shells          :   24
   total number of contracted shells         : 1050
   total number of cartesian basis functions : 4270
   total number of SCF-basis functions       : 3430


 symmetry group of the molecule :   c1 

 the group has the following generators :
   c1(z)

    1 symmetry operations found

 there are 1 real representations :   a   

 maximum number of shells which are related by symmetry :  1


    mo occupation :
   irrep   mo's   occupied
    a     3990      210
 
 number of basis functions   :         3990
 number of occupied orbitals :          210
 
  
           ------------------
           density functional
           ------------------
 PBE functional
 exchange:    LDA + PBE
 correlation: LDA (PW) + PBE
 spherical integration : Lebedev's spherical grid
 spherical gridsize    :           6
    i.e. gridpoints    :         974
 value for diffuse not defined
 radial integration    : Chebyshev 2nd kind (scaling 3)
 radial gridsize       :          10
 integration cells     :          70
 partition function    : becke
 partition sharpness   :           3
  

 biggest AO integral is expected to be     5.262544080
  
           ------------------------
               RI-J - INFORMATION
           ------------------------
 Contributions to RI integral batches: 
  neglected integral batches:      329370
  direct contribution:             356200
  memory contribution:       23075
 Memory core needed for (P|Q) and Cholesky     90 MByte
 Memory core minimum needed except of (P|Q)     9 MByte
 Total minimum memory core needed (sum)        99 MByte
  
 ****************************************
 Memory allocated for RI-J  2311 MByte
 ****************************************
                                            

          ------------------------
          nuclear repulsion energy  :   10621.3046106    
          ------------------------

 
          -----------------
          -S,T+V- integrals
          -----------------

 1e-integrals will be neglected if expon. factor < 0.663088E-15
 
   Difference densities algorithm switched on.
   The maximal number of linear combinations of
   difference densities is          20 .

 automatic virtual orbital shift switched on 
      shift if e(lumo)-e(homo) < 0.10000000    


 DIIS switched on: error vector is FDS-SDF
 Max. Iterations for DIIS is     :   4
 DIIS matrix (see manual) 
    Scaling factor of diagonals  :  1.200
    threshold for scaling factor :  0.000

 scf convergence criterion : increment of total energy < .1000000D-08
                  and increment of one-electron energy < .1000000D-05


 <geterg> : there is no data group $energy 

  MOs are in ASCII format !


 reading orbital data $scfmo  from file mos . 

 orbital characterization : expanded
 
 mo provided and orthogonalized by Cholesky decomposition

 DSCF restart information will be dumped onto file mos


 Starting SCF iterations

          Overall gridpoints after grid construction =       2170350

 ITERATION  ENERGY          1e-ENERGY        2e-ENERGY     NORM[dD(SAO)]  TOL
   1  -2657.5606052948    -24641.482625     11362.617409    0.000D+00 0.661D-14
                            Exc = -370.675806809     Coul =  11733.2932160    
                              N = 420.00003656    
                            current damping = 0.700
 
          max. resid. norm for Fia-block=  5.188D-01 for orbital     71a         
          max. resid. fock norm         =  4.710D+01 for orbital   3248a         

 ITERATION  ENERGY          1e-ENERGY        2e-ENERGY     NORM[dD(SAO)]  TOL
   2  -2663.5606984057    -24741.681159     11456.815850    0.229D+02 0.659D-14
                            Exc = -375.478220444     Coul =  11832.2940709    
                              N = 420.00002343    
                            current damping = 0.650
 
          Norm of current diis error:  9.8191    
          max. resid. norm for Fia-block=  1.416D-01 for orbital     76a         
          max. resid. fock norm         =  1.768D-01 for orbital    424a         

 ITERATION  ENERGY          1e-ENERGY        2e-ENERGY     NORM[dD(SAO)]  TOL
   3  -2664.7584414666    -24748.592985     11462.529933    0.113D+02 0.636D-14
                            Exc = -376.585914488     Coul =  11839.1158476    
                              N = 420.00001233    
                            current damping = 0.550
 
          Norm of current diis error:  4.8955    
          max. resid. norm for Fia-block=  6.521D-02 for orbital     76a         
          max. resid. fock norm         =  7.372D-02 for orbital     76a         

 ITERATION  ENERGY          1e-ENERGY        2e-ENERGY     NORM[dD(SAO)]  TOL
   4  -2665.1595876350    -24771.888580     11485.424382    0.358D+01 0.348D-14
                            Exc = -377.242962677     Coul =  11862.6673444    
                              N = 420.00000860    
                            current damping = 0.450
 
          Norm of current diis error:  1.9901    
          max. resid. norm for Fia-block=  2.839D-02 for orbital     75a         
          max. resid. fock norm         =  3.251D-02 for orbital     75a         

 ITERATION  ENERGY          1e-ENERGY        2e-ENERGY     NORM[dD(SAO)]  TOL
   5  -2665.2255257213    -24765.823461     11479.293325    0.126D+01 0.274D-14
                            Exc = -377.397069090     Coul =  11856.6903937    
                              N = 420.00000663    
                            current damping = 0.500
 
          Norm of current diis error: 0.88059    
          max. resid. norm for Fia-block=  8.957D-03 for orbital    114a         
          max. resid. fock norm         =  1.049D-02 for orbital    213a         
          mo-orthogonalization: Cholesky decomposition

 ITERATION  ENERGY          1e-ENERGY        2e-ENERGY     NORM[dD(SAO)]  TOL
   6  -2665.2396198856    -24772.392004     11485.847773    0.291D+00 0.257D-14
                            Exc = -377.554832474     Coul =  11863.4026058    
                              N = 420.00000646    
                            current damping = 0.550
 
          Norm of current diis error: 0.26298    
          max. resid. norm for Fia-block=  3.270D-03 for orbital    184a         
          max. resid. fock norm         =  5.522D-03 for orbital   3943a         

 ITERATION  ENERGY          1e-ENERGY        2e-ENERGY     NORM[dD(SAO)]  TOL
   7  -2665.2403294629    -24771.681660     11485.136720    0.135D+00 0.246D-14
                            Exc = -377.560809504     Coul =  11862.6975295    
                              N = 420.00000621    
                            current damping = 0.600
 
          Norm of current diis error: 0.18911    
          max. resid. norm for Fia-block=  1.692D-03 for orbital    192a         
          max. resid. fock norm         =  3.714D-03 for orbital   3948a         

 ITERATION  ENERGY          1e-ENERGY        2e-ENERGY     NORM[dD(SAO)]  TOL
   8  -2665.2410371242    -24771.653287     11485.107640    0.487D-01 0.241D-14
                            Exc = -377.562238276     Coul =  11862.6698779    
                              N = 420.00000623    
                            current damping = 0.450
 
          Norm of current diis error: 0.58122E-01
          max. resid. norm for Fia-block=  1.127D-03 for orbital    196a         
          max. resid. fock norm         =  1.919D-03 for orbital   3922a         
          irrep a   : virtual orbitals shifted by    0.00806

 ITERATION  ENERGY          1e-ENERGY        2e-ENERGY     NORM[dD(SAO)]  TOL
   9  -2665.2409684743    -24771.669129     11485.123550    0.254D-01 0.238D-14
                            Exc = -377.567286827     Coul =  11862.6908363    
                              N = 420.00000620    
                            current damping = 0.500
 
          Norm of current diis error: 0.83329E-01
          max. resid. norm for Fia-block=  4.487D-04 for orbital    202a         
          max. resid. fock norm         =  8.054D-04 for orbital   3922a         
          irrep a   : virtual orbitals shifted by    0.00516

 ITERATION  ENERGY          1e-ENERGY        2e-ENERGY     NORM[dD(SAO)]  TOL
  10  -2665.2410865437    -24771.922167     11485.376469    0.413D-02 0.236D-14
                            Exc = -377.572300361     Coul =  11862.9487698    
                              N = 420.00000620    
                            current damping = 0.350
 
          Norm of current diis error: 0.38612E-01
          max. resid. norm for Fia-block=  3.095D-04 for orbital    202a         
          max. resid. fock norm         =  4.601D-04 for orbital   3922a         
          irrep a   : virtual orbitals shifted by    0.01468
          mo-orthogonalization: Cholesky decomposition

 ITERATION  ENERGY          1e-ENERGY        2e-ENERGY     NORM[dD(SAO)]  TOL
  11  -2665.2411126531    -24771.724610     11485.178886    0.114D-02 0.233D-14
                            Exc = -377.569067429     Coul =  11862.7479537    
                              N = 420.00000619    
                            current damping = 0.400
 
          Norm of current diis error: 0.12211E-01
          max. resid. norm for Fia-block=  1.393D-04 for orbital    192a         
          max. resid. fock norm         =  2.955D-04 for orbital   3948a         
          irrep a   : virtual orbitals shifted by    0.01149

 ITERATION  ENERGY          1e-ENERGY        2e-ENERGY     NORM[dD(SAO)]  TOL
  12  -2665.2411132508    -24771.792607     11485.246883    0.117D-02 0.233D-14
                            Exc = -377.569287838     Coul =  11862.8161711    
                              N = 420.00000620    
                            current damping = 0.450
 
          Norm of current diis error: 0.99340E-02
          max. resid. norm for Fia-block=  5.947D-05 for orbital    192a         
          max. resid. fock norm         =  1.485D-04 for orbital   3949a         
          irrep a   : virtual orbitals shifted by    0.00838

 ITERATION  ENERGY          1e-ENERGY        2e-ENERGY     NORM[dD(SAO)]  TOL
  13  -2665.2411152992    -24771.779989     11485.234263    0.241D-03 0.229D-14
                            Exc = -377.568941703     Coul =  11862.8032043    
                              N = 420.00000620    
                            current damping = 0.500
 
          Norm of current diis error: 0.19250E-02
          max. resid. norm for Fia-block=  1.902D-05 for orbital    202a         
          max. resid. fock norm         =  2.972D-05 for orbital     80a         
          irrep a   : virtual orbitals shifted by    0.00524

 ITERATION  ENERGY          1e-ENERGY        2e-ENERGY     NORM[dD(SAO)]  TOL
  14  -2665.2411153474    -24771.768909     11485.223183    0.154D-03 0.226D-14
                            Exc = -377.568859212     Coul =  11862.7920421    
                              N = 420.00000620    
                            current damping = 0.350
 
          Norm of current diis error: 0.97925E-03
          max. resid. norm for Fia-block=  8.731D-06 for orbital    210a         
          max. resid. fock norm         =  1.763D-05 for orbital   3943a         
          irrep a   : virtual orbitals shifted by    0.01472

 ITERATION  ENERGY          1e-ENERGY        2e-ENERGY     NORM[dD(SAO)]  TOL
  15  -2665.2411153607    -24771.772323     11485.226597    0.151D-03 0.225D-14
                            Exc = -377.568969157     Coul =  11862.7955665    
                              N = 420.00000620    
                            current damping = 0.400
 
          Norm of current diis error: 0.47714E-03
          max. resid. norm for Fia-block=  9.199D-06 for orbital    210a         
          max. resid. fock norm         =  1.821D-05 for orbital   3988a         
          irrep a   : virtual orbitals shifted by    0.01156
          mo-orthogonalization: Cholesky decomposition

 ITERATION  ENERGY          1e-ENERGY        2e-ENERGY     NORM[dD(SAO)]  TOL
  16  -2665.2411153560    -24771.772070     11485.226344    0.529D-04 0.222D-14
                            Exc = -377.568967791     Coul =  11862.7953117    
                              N = 420.00000620    
                            current damping = 0.450
 
          Norm of current diis error: 0.68166E-03
          max. resid. norm for Fia-block=  2.800D-06 for orbital    210a         
          max. resid. fock norm         =  6.109D-06 for orbital   3988a         
          irrep a   : virtual orbitals shifted by    0.00840

 ITERATION  ENERGY          1e-ENERGY        2e-ENERGY     NORM[dD(SAO)]  TOL
  17  -2665.2411153669    -24771.772194     11485.226468    0.195D-04 0.221D-14
                            Exc = -377.568961360     Coul =  11862.7954296    
                              N = 420.00000620    
                            current damping = 0.500
 
          Norm of current diis error: 0.31728E-03
          max. resid. norm for Fia-block=  2.591D-06 for orbital    210a         
          max. resid. fock norm         =  4.915D-06 for orbital   3988a         
          irrep a   : virtual orbitals shifted by    0.00524

 ITERATION  ENERGY          1e-ENERGY        2e-ENERGY     NORM[dD(SAO)]  TOL
  18  -2665.2411153705    -24771.772127     11485.226401    0.194D-04 0.216D-14
                            Exc = -377.568955693     Coul =  11862.7953570    
                              N = 420.00000620    
                            current damping = 0.550
 
          Norm of current diis error: 0.73313E-04
          max. resid. norm for Fia-block=  1.577D-06 for orbital    202a         
          max. resid. fock norm         =  3.854D-06 for orbital    732a         
          irrep a   : virtual orbitals shifted by    0.00208

 ITERATION  ENERGY          1e-ENERGY        2e-ENERGY     NORM[dD(SAO)]  TOL
  19  -2665.2411153727    -24771.771911     11485.226185    0.226D-04 0.200D-14
                            Exc = -377.568953533     Coul =  11862.7951382    
                              N = 420.00000620    
                            current damping = 0.400
 
          Norm of current diis error: 0.11211E-03
          max. resid. norm for Fia-block=  7.832D-07 for orbital    202a         
          max. resid. fock norm         =  4.799D-06 for orbital    732a         
          irrep a   : virtual orbitals shifted by    0.01156

 ITERATION  ENERGY          1e-ENERGY        2e-ENERGY     NORM[dD(SAO)]  TOL
  20  -2665.2411153734    -24771.772034     11485.226308    0.969D-05 0.178D-14
                            Exc = -377.568955238     Coul =  11862.7952629    
                              N = 420.00000620    
                            current damping = 0.450
 
          Norm of current diis error: 0.39369E-04
          max. resid. norm for Fia-block=  2.712D-07 for orbital    207a         
          max. resid. fock norm         =  7.873D-06 for orbital    731a         
          irrep a   : virtual orbitals shifted by    0.00840
          mo-orthogonalization: Cholesky decomposition

 ITERATION  ENERGY          1e-ENERGY        2e-ENERGY     NORM[dD(SAO)]  TOL
  21  -2665.2411153759    -24771.772055     11485.226329    0.777D-05 0.155D-14
                            Exc = -377.568955031     Coul =  11862.7952838    
                              N = 420.00000620    
                            current damping = 0.300
 
          Norm of current diis error: 0.11066E-04
          max. resid. norm for Fia-block=  1.502D-07 for orbital    210a         
          max. resid. fock norm         =  1.740D-05 for orbital    731a         
          irrep a   : virtual orbitals shifted by    0.01788

 ITERATION  ENERGY          1e-ENERGY        2e-ENERGY     NORM[dD(SAO)]  TOL
  22  -2665.2411153700    -24771.772045     11485.226319    0.777D-05 0.661D-14
                            Exc = -377.568955041     Coul =  11862.7952744    
                              N = 420.00000620    
                            current damping = 0.350
 
          Norm of current diis error: 0.13624E-04
          max. resid. norm for Fia-block=  8.076D-08 for orbital    210a         
          max. resid. fock norm         =  6.171D-06 for orbital    732a         
          irrep a   : virtual orbitals shifted by    0.01472

 ITERATION  ENERGY          1e-ENERGY        2e-ENERGY     NORM[dD(SAO)]  TOL
  23  -2665.2411153681    -24771.772051     11485.226325    0.175D-03 0.419D-14
                            Exc = -377.568955085     Coul =  11862.7952805    
                              N = 420.00000620    
                            current damping = 0.400
 
          Norm of current diis error: 0.52698E-05
          max. resid. norm for Fia-block=  2.534D-08 for orbital    210a         
          max. resid. fock norm         =  8.306D-06 for orbital    713a         
          irrep a   : virtual orbitals shifted by    0.01156

 ITERATION  ENERGY          1e-ENERGY        2e-ENERGY     NORM[dD(SAO)]  TOL
  24  -2665.2411153709    -24771.772057     11485.226331    0.972D-04 0.330D-14
                            Exc = -377.568955159     Coul =  11862.7952864    
                              N = 420.00000620    
                            current damping = 0.250
 
          Norm of current diis error: 0.25070E-05
          max. resid. norm for Fia-block=  1.909D-08 for orbital    195a         
          max. resid. fock norm         =  8.990D-06 for orbital    713a         
          irrep a   : virtual orbitals shifted by    0.02103

 ITERATION  ENERGY          1e-ENERGY        2e-ENERGY     NORM[dD(SAO)]  TOL
  25  -2665.2411153672    -24771.772054     11485.226328    0.693D-04 0.275D-14
                            Exc = -377.568955121     Coul =  11862.7952830    
                              N = 420.00000620    
                            current damping = 0.300
 
          Norm of current diis error: 0.11407E-05
          max. resid. norm for Fia-block=  2.550D-08 for orbital    207a         
          max. resid. fock norm         =  1.820D-05 for orbital    713a         
          irrep a   : virtual orbitals shifted by    0.01788
          mo-orthogonalization: Cholesky decomposition

 ENERGY CONVERGED !


 ITERATION  ENERGY          1e-ENERGY        2e-ENERGY     NORM[dD(SAO)]  TOL
  26  -2665.2411153683    -24771.772054     11485.226328    0.740D-04 0.258D-14
                            Exc = -377.568955092     Coul =  11862.7952835    
                              N = 420.00000620    
                            current damping = 0.350
 
          Norm of current diis error: 0.22146E-05
          max. resid. norm for Fia-block=  1.411D-08 for orbital    207a         
          max. resid. fock norm         =  7.336D-06 for orbital    731a         

 End of SCF iterations

   convergence criteria satisfied after   26 iterations


                  ------------------------------------------ 
                 |  total energy      =  -2665.24111536829  |
                  ------------------------------------------ 
                 :  kinetic energy    =   2653.15306172776  :
                 :  potential energy  =  -5318.39417709604  :
                 :  virial theorem    =      1.99546455532  :
                 :  wavefunction norm =      1.00000000000  :
                  .......................................... 


 <geterg> : there is no data group $energy 


 <skperg> : $end is missing 


 orbitals $scfmo  will be written to file mos

    irrep                206a        207a        208a        209a        210a   
 eigenvalues H         -0.22704    -0.22313    -0.21630    -0.21445    -0.21445
            eV          -6.1781     -6.0717     -5.8859     -5.8356     -5.8356
 occupation              2.0000      2.0000      2.0000      2.0000      2.0000 

    irrep                211a        212a        213a        214a        215a   
 eigenvalues H         -0.15128    -0.15128    -0.14752    -0.13351    -0.12393
            eV          -4.1166     -4.1166     -4.0144     -3.6330     -3.3722
 
 
 
 
 ==============================================================================
                           electrostatic moments
 ==============================================================================

 reference point for electrostatic moments:    0.00000   0.00000   0.00000

 
              nuc           elec       ->  total
 ------------------------------------------------------------------------------
                          charge      
 ------------------------------------------------------------------------------
         420.000000    -420.000000       0.000000
 
 ------------------------------------------------------------------------------
                       dipole moment  
 ------------------------------------------------------------------------------
   x       0.000000       0.000017       0.000017
   y      -0.000000       0.000000       0.000000
   z       0.000000      -0.000000      -0.000000
 
   | dipole moment | =     0.0000 a.u. =     0.0000 debye 
 
 ------------------------------------------------------------------------------
                     quadrupole moment
 ------------------------------------------------------------------------------
  xx    6680.787746   -6968.666322    -287.878576
  yy    6680.787746   -6968.666171    -287.878425
  zz    8767.210255   -9054.734329    -287.524073
  xy      -0.000000      -0.000000      -0.000000
  xz       0.000000      -0.000000      -0.000000
  yz      -0.000000      -0.000000      -0.000000
 
     1/3  trace=    -287.760358
     anisotropy=       0.354427
 
 ==============================================================================
 
 


    ------------------------------------------------------------------------
         total  cpu-time : 17 hours 52 minutes and  9 seconds
         total wall-time : 17 hours 54 minutes and 26 seconds
    ------------------------------------------------------------------------


   ****  ridft : all done  ****


    2015-08-28 13:35:55.320 

 ridft ended normally
Job Done
