
   OpenMP run-time library returned nthreads = 16

 rirpa (c-3-41) : TURBOMOLE V7.3 ( 22142 ) 4 Jul 2018 at 18:12:42
 Copyright (C) 2018 TURBOMOLE GmbH, Karlsruhe


    2019-02-25 08:24:06.583 

 
 
    *************************************************************************
    *************************** PROGRAM RIRPA *******************************
    ******                                                             ******
    ******              H. Eshuis, J. E. Bates and F. Furche           ******
    ******                                                             ******
    ****** Nov 2011                                                    ******
    ****** Copyright TURBOMOLE GmbH                                    ******
    *************************************************************************
    
    
                                References:                                  
    
                   RIRPA:                                                    
                     H. Eshuis, J. Yarkony and F. Furche                     
                     Fast computation of molecular random phase              
                     approximation correlation energies using resolution     
                     of the identity imaginary frequency integration         
                     J. Chem. Phys. 132: 234114 (2010)                       
    
                     H. Eshuis, J. E. Bates and F. Furche                    
                     Electron correlation methods based on                   
                     the random phase approximation                          
                     Theor. Chem. Acc.  131: 1084 (2012)                     
    
                   TWO-COMPONENT RIRPA:                                      
                     M. Kuehn                                                
                     Correlation energies from the                           
                     two-component random-phase approximation                
                     J. Chem. Theory Comput. 10: 623 (2014)                  
    
                   RIRPA GRADIENTS:                                          
                     Asbjoern M. Burow, Jefferson E. Bates, Filipp Furche*,  
                     and Henk Eshuis                                         
                     Analytical First-Order Molecular Properties and Forces  
                     within the Adiabatic Connection Random Phase            
                     Approximation                                           
                     J. Chem. Theory Comput. 10: 180 (2014)                  
    
    
    
      ... OpenMP parallelization enabled, threads:   16

   *-----------------------------------------------------------------------*
   |                     program will use 16 thread(s)                     |
   *-----------------------------------------------------------------------*
 
                FOUND RI-J FLAG
 
  HF exact exchange energy will be computed using RI-J.
 
  The HXX energy will NOT be computed due to nohxx option. 
 


              +--------------------------------------------------+
              | Atomic coordinate, charge and isotop information |
              +--------------------------------------------------+

                    atomic coordinates            atom    charge  isotop
         -0.29620678    6.06902116   14.96060107    n      7.000     0
          0.13396702    6.36741847  -14.56819755    n      7.000     0
         -0.02222308   -5.66218014   17.61321468    c      6.000     0
          1.67261956   -6.52157006   18.41468211    h      1.000     0
         -1.68000536   -6.51987666   18.49061991    h      1.000     0
         -0.02915002   -2.81327148   17.86104810    c      6.000     0
          2.15939286   -1.43011483   17.30535209    c      6.000     0
          3.91762145   -2.40038535   16.87343448    h      1.000     0
          2.11076263    1.19510437   17.32691632    c      6.000     0
          3.83156279    2.23693670   16.91123023    h      1.000     0
         -0.12719271    2.48682764   17.90514801    c      6.000     0
         -2.28289651    1.10992772   18.55748387    c      6.000     0
         -4.00568142    2.08290656   19.10851632    h      1.000     0
         -2.23416227   -1.52806191   18.53532632    c      6.000     0
         -3.91971482   -2.57318311   19.06917457    h      1.000     0
         -0.22561361    5.33768700   17.70523289    c      6.000     0
         -1.91281628    6.11870819   18.59804319    h      1.000     0
          1.43734949    6.24523558   18.52017498    h      1.000     0
          1.83129052    6.84842876   13.76192248    c      6.000     0
          3.46270375    7.19952785   14.94860293    h      1.000     0
          1.87370791    7.17222528   11.17909969    c      6.000     0
          3.60795474    7.83990178   10.31983251    h      1.000     0
         -0.29578804    6.69171534    9.70524113    c      6.000     0
         -2.49946148    6.00088061   11.04151196    c      6.000     0
         -4.25601861    5.63230822   10.05680467    h      1.000     0
         -2.45153000    5.69144045   13.62014300    c      6.000     0
         -4.08753108    5.09537940   14.69681189    h      1.000     0
         -0.25989399    6.84692861    6.94484804    c      6.000     0
          2.00966478    6.49477441    5.60478259    c      6.000     0
          3.74913935    6.08471727    6.60850509    h      1.000     0
          2.04113715    6.53816245    2.98842792    c      6.000     0
          3.80534517    6.17217645    2.01133389    h      1.000     0
         -0.18002197    6.96618612    1.59365694    c      6.000     0
         -2.44221094    7.35423208    2.93835066    c      6.000     0
         -4.17175406    7.78852966    1.92680421    h      1.000     0
         -2.48674599    7.28436030    5.55542942    c      6.000     0
         -4.25352690    7.66771563    6.52483528    h      1.000     0
         -0.13396511    7.00483232   -1.19192776    c      6.000     0
          2.06636669    7.69549088   -2.51789760    c      6.000     0
          3.72799199    8.31751536   -1.49040963    h      1.000     0
          2.12612028    7.68507910   -5.13529321    c      6.000     0
          3.83654661    8.29884751   -6.08656851    h      1.000     0
         -0.02765862    7.01064775   -6.54506335    c      6.000     0
         -2.24077662    6.36261246   -5.22057047    c      6.000     0
         -3.91698994    5.76809086   -6.23983008    h      1.000     0
         -2.28680197    6.34747857   -2.60400156    c      6.000     0
         -3.99411369    5.74305211   -1.64616689    h      1.000     0
          0.03784852    6.91372358   -9.30716396    c      6.000     0
          2.31723203    6.54270264  -10.64164833    c      6.000     0
          4.10310713    6.38696636   -9.65414335    h      1.000     0
          2.31721760    6.26505979  -13.22440905    c      6.000     0
          4.02194122    5.90986074  -14.30065812    h      1.000     0
         -2.08027291    6.84935910  -13.36917885    c      6.000     0
         -3.73966644    7.00048443  -14.55903782    h      1.000     0
         -2.17127769    7.13325863  -10.78452123    c      6.000     0
         -3.97876544    7.56063226   -9.92344393    h      1.000     0
          0.42699944   -6.10847053  -14.67286391    n      7.000     0
         -0.06413079   -6.34847902   14.85635337    n      7.000     0
          0.15324266    5.65529239  -17.31760415    c      6.000     0
         -1.53578702    6.48388321  -18.16215656    h      1.000     0
          1.81710518    6.52863061  -18.16714513    h      1.000     0
          0.19947363    2.80485433  -17.54746499    c      6.000     0
         -2.02813933    1.40997728  -17.23564519    c      6.000     0
         -3.82918017    2.37003770  -17.00565680    h      1.000     0
         -1.96448403   -1.21717488  -17.25760301    c      6.000     0
         -3.71698896   -2.26674199  -17.04435531    h      1.000     0
          0.32800040   -2.49716765  -17.59160042    c      6.000     0
          2.53652646   -1.10632579  -17.99572129    c      6.000     0
          4.31308531   -2.06847787  -18.36482566    h      1.000     0
          2.47258708    1.52953997  -17.97414987    c      6.000     0
          4.20028580    2.58250125  -18.32722381    h      1.000     0
          0.41976851   -5.34998165  -17.40979217    c      6.000     0
          2.12659862   -6.12691495  -18.26758053    h      1.000     0
         -1.22445222   -6.24532188  -18.27438674    h      1.000     0
         -1.76712970   -6.70434611  -13.48795854    c      6.000     0
         -3.41571473   -6.90800458  -14.68487913    h      1.000     0
         -1.85157834   -7.03272617  -10.90839914    c      6.000     0
         -3.64111615   -7.55101743  -10.05977502    h      1.000     0
          0.34290717   -6.74202741   -9.42162289    c      6.000     0
          2.60721910   -6.25262577  -10.74338488    c      6.000     0
          4.38247699   -6.03640064   -9.74816084    h      1.000     0
          2.60091458   -5.93366724  -13.32140337    c      6.000     0
          4.29097858   -5.48782425  -14.38701812    h      1.000     0
          0.27526242   -6.88564383   -6.66159104    c      6.000     0
         -1.96667409   -6.35358970   -5.33383957    c      6.000     0
         -3.66349939   -5.81336562   -6.34915140    h      1.000     0
         -2.02016460   -6.38394016   -2.71742218    c      6.000     0
         -3.75434607   -5.86869476   -1.75557504    h      1.000     0
          0.15505998   -6.97298819   -1.30963398    c      6.000     0
          2.38620302   -7.54766640   -2.63950810    c      6.000     0
          4.06979574   -8.11583375   -1.61661705    h      1.000     0
          2.45199062   -7.49157908   -5.25612461    c      6.000     0
          4.18901533   -8.01707590   -6.21211256    h      1.000     0
          0.10117091   -6.98486753    1.47612795    c      6.000     0
         -2.14343478   -7.49928972    2.80770361    c      6.000     0
         -3.84982624   -7.99243121    1.78380674    h      1.000     0
         -2.19502782   -7.48077987    5.42579526    c      6.000     0
         -3.94386071   -7.96194593    6.38415247    h      1.000     0
          0.00819281   -6.97061928    6.82783070    c      6.000     0
          2.26120568   -6.48951519    5.50013273    c      6.000     0
          3.97792158   -6.01829863    6.51610017    h      1.000     0
          2.29826769   -6.48140150    2.88360759    c      6.000     0
          4.04482171   -6.01532142    1.91743554    h      1.000     0
         -0.03648796   -6.87107329    9.59072442    c      6.000     0
         -2.26705659   -6.29543089   10.93677481    c      6.000     0
         -4.03636849   -5.97932016    9.95654245    h      1.000     0
         -2.23245297   -6.03265279   13.52091309    c      6.000     0
         -3.89136898   -5.52266103   14.60674949    h      1.000     0
          2.09326764   -7.02037532   13.64603158    c      6.000     0
          3.73669635   -7.32853284   14.82806548    h      1.000     0
          2.14978573   -7.29296845   11.05764190    c      6.000     0
          3.90923066   -7.87535134   10.18739597    h      1.000     0
 
       center of nuclear mass  :    0.03155509   -0.00185714    0.14554156
       center of nuclear charge:    0.03189515   -0.00186961    0.14548091
              +-------------------------------------------------+
              |        Rotational Constants Section             |
              +-------------------------------------------------+
                                   Center of Mass [a.u]:
               0.03155509015757        -0.00185714372430         0.14554155733085
                     Principal Moments of Inertia [a.u.]
           33608.94041317832307    122691.84849522428703    150319.19330492362496
                       Rotational constants A,B,C [a.u.]
               0.00001487699386         0.00000407525036         0.00000332625521
                     Rotational constants A,B,C [cm**-1]
               0.00179118073216         0.00049065758838         0.00040047904178
                        Rotational constants A,B,C [MHz]
              53.69824744169581        14.70954444565491        12.00605963138139

   * BASIS SET information:

              +--------------------------------------------------+
              |               basis set information              |
              +--------------------------------------------------+

              we will work with the 1s 3p 5d 7f 9g ... basis set
              ...i.e. with spherical basis functions...

   type   atoms  prim   cont   basis
   ---------------------------------------------------------------------------
    n        4     50     30   cc-pVTZ   [4s3p2d1f|18s5p2d1f]
    c       60     50     30   cc-pVTZ   [4s3p2d1f|18s5p2d1f]
    h       48     16     14   cc-pVTZ   [3s2p1d|5s2p1d]
   ---------------------------------------------------------------------------
   total:  112   3968   2592
   ---------------------------------------------------------------------------

   total number of primitive shells          :   60
   total number of contracted shells         :  928
   total number of cartesian basis functions : 2960
   total number of SCF-basis functions       : 2592


   * AUXILIARY BASIS SET information:

              +--------------------------------------------------+
              |               basis set information              |
              +--------------------------------------------------+

              we will work with the 1s 3p 5d 7f 9g ... basis set
              ...i.e. with spherical basis functions...

   type   atoms  prim   cont   basis
   ---------------------------------------------------------------------------
    n        4     81     81   cc-pVTZ   [8s6p5d3f1g|8s6p5d3f1g]
    c       60     81     81   cc-pVTZ   [8s6p5d3f1g|8s6p5d3f1g]
    h       48     30     30   cc-pVTZ   [4s3p2d1f|4s3p2d1f]
   ---------------------------------------------------------------------------
   total:  112   6624   6624
   ---------------------------------------------------------------------------

   total number of primitive shells          :   56
   total number of contracted shells         : 1952
   total number of cartesian basis functions : 8144
   total number of SCF-basis functions       : 6624


   * RIJ AUXILIARY BASIS SET information:

              +--------------------------------------------------+
              |               basis set information              |
              +--------------------------------------------------+

              we will work with the 1s 3p 5d 7f 9g ... basis set
              ...i.e. with spherical basis functions...

   type   atoms  prim   cont   basis
   ---------------------------------------------------------------------------
    n        4     70     49   cc-pVTZ   [6s4p3d1f1g|12s5p4d2f1g]
    c       60     70     49   cc-pVTZ   [6s4p3d1f1g|12s5p4d2f1g]
    h       48     16     11   cc-pVTZ   [3s1p1d|5s2p1d]
   ---------------------------------------------------------------------------
   total:  112   5248   3664
   ---------------------------------------------------------------------------

   total number of primitive shells          :   56
   total number of contracted shells         : 1200
   total number of cartesian basis functions : 4480
   total number of SCF-basis functions       : 3664

  No keyword $dft found! - HARTREE FOCK CALCULATION

 reading orbital data $scfmo  from file mos
 orbital characterization : scfconv=7

 integral neglect threshold       :  0.29E+02

 scfconv                     7

 MAXIMUM CORE MEMORY WHICH CAN BE ALLOCATED DYNAMICALLY = 56000 MiB
              ( or 7340032000 double words per process)


 there are 1 real representations :   a   

 maximum number of shells which are related by symmetry :  1

 time elapsed for calculating density matrices :   1.340 sec

     total memory allocated for calculation of (Q|P)**(-1/2) : 503 MiB


     calculation of (P|Q) ...
     time in lp2sym        cpu: 17.96 sec    wall:  1.18 sec    ratio: 15.2


     calculation of the Cholesky decomposition of (P|Q)**(-1) ...
     time in invmetri      cpu: 38.97 sec    wall:  5.13 sec    ratio:  7.6

   threshold for RMS(d[D]) in SCF was     :  0.10E-06
   integral neglect threshold             :  0.41E-12
   derivative integral neglect threshold  :  0.10E-06


 setting up bound for integral derivative estimation

 increment for numerical differentiation : 0.00050000
 total memory allocated for calculation of (Q|P)**(-1/2) : 503 MiB
 Dividing biap into                    231  block chunks,
 using                   120 MiB per block
 Reserved                  27737 MiB for BLAS routines
 Estimated total memory usage:                  55818 MiB
 number of passes for ispin    1
 =    1
 
 Number of eigenvalues < 6e-3:                      0
 
 
            -----------------------------
            Complex frequency integration
            -----------------------------
 
 Number of Clenshaw-Curtis nodes:                    100
 Optimized scaling parameter    :    1.00000000000000     
 Sensitivity measure            :  -1.504879554303784E-012
 
 Done with rirpa frequency point #                     1
 Done with rirpa frequency point #                     2
 Done with rirpa frequency point #                     3
 Done with rirpa frequency point #                     4
 Done with rirpa frequency point #                     5
 Done with rirpa frequency point #                     6
 Done with rirpa frequency point #                     7
 Done with rirpa frequency point #                     8
 Done with rirpa frequency point #                     9
 Done with rirpa frequency point #                    10
 Done with rirpa frequency point #                    11
 Done with rirpa frequency point #                    12
 Done with rirpa frequency point #                    13
 Done with rirpa frequency point #                    14
 Done with rirpa frequency point #                    15
 Done with rirpa frequency point #                    16
 Done with rirpa frequency point #                    17
 Done with rirpa frequency point #                    18
 Done with rirpa frequency point #                    19
 Done with rirpa frequency point #                    20
 Done with rirpa frequency point #                    21
 Done with rirpa frequency point #                    22
 Done with rirpa frequency point #                    23
 Done with rirpa frequency point #                    24
 Done with rirpa frequency point #                    25
 Done with rirpa frequency point #                    26
 Done with rirpa frequency point #                    27
 Done with rirpa frequency point #                    28
 Done with rirpa frequency point #                    29
 Done with rirpa frequency point #                    30
 Done with rirpa frequency point #                    31
 Done with rirpa frequency point #                    32
 Done with rirpa frequency point #                    33
 Done with rirpa frequency point #                    34
 Done with rirpa frequency point #                    35
 Done with rirpa frequency point #                    36
 Done with rirpa frequency point #                    37
 Done with rirpa frequency point #                    38
 Done with rirpa frequency point #                    39
 Done with rirpa frequency point #                    40
 Done with rirpa frequency point #                    41
 Done with rirpa frequency point #                    42
 Done with rirpa frequency point #                    43
 Done with rirpa frequency point #                    44
 Done with rirpa frequency point #                    45
 Done with rirpa frequency point #                    46
 Done with rirpa frequency point #                    47
 Done with rirpa frequency point #                    48
 Done with rirpa frequency point #                    49
 Done with rirpa frequency point #                    50
 Done with rirpa frequency point #                    51
 Done with rirpa frequency point #                    52
 Done with rirpa frequency point #                    53
 Done with rirpa frequency point #                    54
 Done with rirpa frequency point #                    55
 Done with rirpa frequency point #                    56
 Done with rirpa frequency point #                    57
 Done with rirpa frequency point #                    58
 Done with rirpa frequency point #                    59
 Done with rirpa frequency point #                    60
 Done with rirpa frequency point #                    61
 Done with rirpa frequency point #                    62
 Done with rirpa frequency point #                    63
 Done with rirpa frequency point #                    64
 Done with rirpa frequency point #                    65
 Done with rirpa frequency point #                    66
 Done with rirpa frequency point #                    67
 Done with rirpa frequency point #                    68
 Done with rirpa frequency point #                    69
 Done with rirpa frequency point #                    70
 Done with rirpa frequency point #                    71
 Done with rirpa frequency point #                    72
 Done with rirpa frequency point #                    73
 Done with rirpa frequency point #                    74
 Done with rirpa frequency point #                    75
 Done with rirpa frequency point #                    76
 Done with rirpa frequency point #                    77
 Done with rirpa frequency point #                    78
 Done with rirpa frequency point #                    79
 Done with rirpa frequency point #                    80
 Done with rirpa frequency point #                    81
 Done with rirpa frequency point #                    82
 Done with rirpa frequency point #                    83
 Done with rirpa frequency point #                    84
 Done with rirpa frequency point #                    85
 Done with rirpa frequency point #                    86
 Done with rirpa frequency point #                    87
 Done with rirpa frequency point #                    88
 Done with rirpa frequency point #                    89
 Done with rirpa frequency point #                    90
 Done with rirpa frequency point #                    91
 Done with rirpa frequency point #                    92
 Done with rirpa frequency point #                    93
 Done with rirpa frequency point #                    94
 Done with rirpa frequency point #                    95
 Done with rirpa frequency point #                    96
 Done with rirpa frequency point #                    97
 Done with rirpa frequency point #                    98
 Done with rirpa frequency point #                    99
 Done with rirpa frequency point #                   100
 


 RI-RPA correlation energy: -0.1160067523513153E+02
 
 
 HXX Energy calculation skipped due to nohxx option
 

                  --------------------------------------------------- 
                 |  HXX+RIRPA total energy     =    -11.60067523513  |
                  ---------------------------------------------------- 
                 :  RIRPA correlation energy   =    -11.60067523513  :
                 :  HXX total energy           =      0.00000000000  :
                 :  Hartree energy             =      0.00000000000  :
                 :  Exact Exchange energy      =      0.00000000000  :
                  .................................................... 


    ------------------------------------------------------------------------
    Rirpa profiling                cpu                    wall         ratio
    ------------------------------------------------------------------------
    module                         sec     %               sec     %
    ------------------------------------------------------------------------
    RIRPA                    116903.4  100.00        17457.6  100.00   6.7
    riccmos                      18.0    0.02           17.7    0.10   1.0
    ccmkbaoi                  15681.6   13.41         1271.9    7.29  12.3
    cc3idxnrm                   667.9    0.57          108.2    0.62   6.2
    ecrpa                    100447.6   85.92        16021.3   91.77   6.3
    tread                      2501.0    2.14         9182.6   52.60   0.3
    tqbuild                   94210.0   80.59         6219.1   35.62  15.1
    trpaln                     1443.3    1.23           93.6    0.54  15.4
    ------------------------------------------------------------------------
    sum                      331957.0  283.96        50408.4  288.75   6.6
    ------------------------------------------------------------------------


    ------------------------------------------------------------------------
         total  cpu-time :   1 days  8 hours 28 minutes and 26 seconds
         total wall-time :  4 hours 50 minutes and 58 seconds
    ------------------------------------------------------------------------

   ****  rirpa : all done  ****


    2019-02-25 13:15:04.457 

