 operating system is UNIX !
 hostname is c-9-331.local

 ridft (c-9-331.local) : TURBOMOLE V7.1 ( ) 5 Apr 2016 at 11:29:09
 Copyright (C) 2016 TURBOMOLE GmbH, Karlsruhe


    2016-06-15 16:37:24.217 



                                  r i d f t

                        DFT program with RI approximation 
                                for coulomb part 




                                                 
                                 References:     
                                                 
          TURBOMOLE:                             
              R. Ahlrichs, M. Baer, M. Haeser, H. Horn, and
              C. Koelmel
              Electronic structure calculations on workstation
              computers: the program system TURBOMOLE
              Chem. Phys. Lett. 162: 165 (1989)
          Density Functional:                              
              O. Treutler and R. Ahlrichs                      
              Efficient Molecular Numerical Integration Schemes
              J. Chem. Phys. 102: 346 (1995)                   
          Parallel Version:                                
              Performance of parallel TURBOMOLE for Density    
              Functional Calculations                          
              M. v. Arnim and R. Ahlrichs                      
              J. Comp. Chem. 19: 1746 (1998)                   
          RI-J Method:                                     
              Auxiliary Basis Sets to approximate Coulomb      
              Potentials                                       
              Chem. Phys. Lett. 240: 283 (1995)                
              K. Eichkorn, O. Treutler, H. Oehm, M. Haeser     
              and R. Ahlrichs                                  
              Chem. Phys. Lett. 242: 652 (1995)                
                                                           
              Auxiliary Basis Sets for Main Row Atoms and their
              Use to approximate Coulomb Potentials            
              K. Eichkorn, F. Weigend, O. Treutler and         
              R. Ahlrichs                                      
              Theo. Chem. Acc. 97: 119 (1997)                   
                                                           
              Accurate Coulomb-fitting basis sets for H to Rn 
              F. Weigend                                        
              Phys. Chem. Chem. Phys. 8: 1057 (2006)            
                                                           
          Multipole accelerated RI-J (MARI-J):             
              Fast evaluation of the Coulomb potential for     
              electron densities using multipole accelerated   
              resolution of identity approximation             
              M. Sierka, A. Hogekamp and R. Ahlrichs           
              J. Chem. Phys. 118: 9136 (2003)                  
          RI-JK Method:                                     
              A fully direct RI-HF algorithm: Implementation,
              optimised auxiliary basis sets, demonstration of
              accuracy and efficiency                         
              F. Weigend                                      
              Phys. Chem. Chem. Phys. 4: 4285 (2002)           
          Two-component HF and DFT with spin-orbit coupling:  
              Self-consistent treatment of spin-orbit         
              interactions with efficient Hartree-Fock and    
              density functional methods                      
              M. K. Armbruster, F. Weigend, C. van Wüllen and 
              W. Klopper                                      
              Phys. Chem. Chem. Phys. 10: 1748 (2008)         
          Relativistic all-electron 2c calculations           
              An efficient implementation of two-component    
              relativistic exact-decoupling methods for large 
              molecules                                       
              D. Peng, N. Middendorf, F. Weigend, M. Reiher   
              J. Chem. Phys. 138, 184105 (2013)               
                                         


 


              +--------------------------------------------------+
              |      general information about current run       |
              +--------------------------------------------------+

 
 A HF calculation using the RI-JK approximation will be carried out.
 Allocatable memory for RI due to $ricore (MB):       10000


              +--------------------------------------------------+
              | Atomic coordinate, charge and isotop information |
              +--------------------------------------------------+

                    atomic coordinates            atom    charge  isotop
          0.63057368    1.28356241    0.00000000    c      6.000     0
         -0.61370302   -1.30841396    0.00000000    c      6.000     0
          1.39760304   -3.40016757    0.00000000    c      6.000     0
         -1.37998949    3.38127206    0.00000000    n      7.000     0
         -2.52042880    3.23835781    1.56470223    h      1.000     0
         -2.52042880    3.23835781   -1.56470223    h      1.000     0
         -0.58224140    5.15095032    0.00000000    h      1.000     0
         -1.82421173   -1.49962627    1.67388051    h      1.000     0
         -1.82421173   -1.49962627   -1.67388051    h      1.000     0
          1.77942314    1.61308086   -1.68322357    h      1.000     0
          1.77942314    1.61308086    1.68322357    h      1.000     0
          0.48020997   -5.24852734    0.00000000    h      1.000     0
          2.59899101   -3.28115036   -1.67865314    h      1.000     0
          2.59899101   -3.28115036    1.67865314    h      1.000     0
 
       center of nuclear mass  :   -0.03949448    0.10422748    0.00000000
       center of nuclear charge:   -0.03450196    0.09035819    0.00000000

              +--------------------------------------------------+
              |               basis set information              |
              +--------------------------------------------------+

              we will work with the 1s 3p 5d 7f 9g ... basis set
              ...i.e. with spherical basis functions...

   type   atoms  prim   cont   basis
   ---------------------------------------------------------------------------
    c        3     77     57   def2-QZVP   [7s4p3d2f1g|15s8p3d2f1g]
    n        1     77     57   def2-QZVP   [7s4p3d2f1g|15s8p3d2f1g]
    h       10     33     30   def2-QZVP   [4s3p2d1f|7s3p2d1f]
   ---------------------------------------------------------------------------
   total:   14    638    528
   ---------------------------------------------------------------------------

   total number of primitive shells          :   71
   total number of contracted shells         :  168
   total number of cartesian basis functions :  638
   total number of SCF-basis functions       :  528


 integral neglect threshold       :  0.52E-13
 integral storage threshold THIZE :  0.10E-04
 integral storage threshold THIME :         5

 RI-JK AUXILIARY BASIS SET information:

              we will work with the 1s 3p 5d 7f 9g ... basis set
              ...i.e. with spherical basis functions...

   type   atoms  prim   cont   basis
   ---------------------------------------------------------------------------
    c        3     97     75   def2-QZVP   [10s8p5d1f1g|14s10p6d2f1g]
    n        1     97     77   def2-QZVP   [10s8p4d2f1g|14s10p6d2f1g]
    h       10     20     18   def2-QZVP   [2s2p2d|4s2p2d]
   ---------------------------------------------------------------------------
   total:   14    588    482
   ---------------------------------------------------------------------------

   total number of primitive shells          :   74
   total number of contracted shells         :  160
   total number of cartesian basis functions :  560
   total number of SCF-basis functions       :  482


 symmetry group of the molecule :   c1 

 the group has the following generators :
   c1(z)

    1 symmetry operations found

 there are 1 real representations :   a   

 maximum number of shells which are related by symmetry :  1


    mo occupation :
   irrep   mo's   occupied
    a      528       17
 
 number of basis functions   :          528
 number of occupied orbitals :           17
 

 biggest AO integral is expected to be     6.129561670
  
           ------------------------
               RI-JK - INFORMATION
           ------------------------
 Contributions to RI integral batches: 
  neglected integral batches:        1521
  direct contribution:                  0
  memory contribution:       12675
 Memory core needed for (P|Q) and Cholesky      2 MByte
 Memory core minimum needed except of (P|Q)     2 MByte
 Total minimum memory core needed (sum)         4 MByte
  
 ****************************************
 Memory allocated for RI-J   780 MByte
 ****************************************
                                            
 total memory allocated for calculation of  (Q|P)**(-1/2) :    3 MiB

  forming (P|Q)**(-1/2) 
 eigenvalues of original matrix 
 smallest =0.2299020271379E-06  largest = 26.88667816646    
  The symmetry information takes            1  MB

          ------------------------
          nuclear repulsion energy  :   138.660160745    
          ------------------------

 
          -----------------
          -S,T+V- integrals
          -----------------

 1e-integrals will be neglected if expon. factor < 0.523818E-14
 
   Difference densities algorithm switched on.
   The maximal number of linear combinations of
   difference densities is          20 .

 DIIS switched on: error vector is FDS-SDF
 Max. Iterations for DIIS is     :   5
 DIIS matrix (see manual) 
    Scaling factor of diagonals  :  1.200
    threshold for scaling factor :  0.000

 scf convergence criterion : increment of total energy < .1000000D-08
                  and increment of one-electron energy < .1000000D-05

  MOs are in ASCII format !


 automatic virtual orbital shift switched on 
      shift if e(lumo)-e(homo) < 0.10000000    


 reading orbital data $scfmo  from file mos
 orbital characterization : scfconv=9

 DSCF restart information will be dumped onto file mos


 Starting SCF iterations

 
 BLOCKING OF MOS FOR RI-K
 
 
 occupied MOs partitioned into blocks of maximum length 17
 this requires 41 MiB core memory.
 
            MULTIPLE PASS Statistics 
 ----------------------------------------------------
  pass       irrep     lambda      batch : MO  to  MO
 ----------------------------------------------------
   1       1  ->  1    1  -> 17             1  ->  17



 ITERATION  ENERGY          1e-ENERGY        2e-ENERGY     NORM[dD(SAO)]  TOL
   1  -173.70891135626    -501.27069389     188.90162178    0.000D+00 0.522D-13
                           RI-K = -25.4914177346     Coul =  214.393039519    
                            current damping = 0.700
 
          max. resid. norm for Fia-block=  9.902D-02 for orbital      1a         
          max. resid. fock norm         =  6.143D-01 for orbital    524a         

 End of SCF iterations

   convergence criteria cannot be satisfied within    1 iterations !


                  ------------------------------------------ 
                 |  total energy      =   -173.70891135626  |
                  ------------------------------------------ 
                 :  kinetic energy    =    174.04634986231  :
                 :  potential energy  =   -347.75526121857  :
                 :  virial theorem    =      2.00194255150  :
                 :  wavefunction norm =      1.00000000000  :
                  .......................................... 


 ATTENTION : $energy will not be updated since 
 this calculation did not converge (sob) 

 A POSSIBLE REASON MAY BE THAT ...
 - THE GEOMETRY IS FAR FROM BEING REASONABLE

    irrep                 13a         14a         15a         16a         17a   
 eigenvalues H         -0.65952    -0.63930    -0.59048    -0.57763    -0.57075
            eV         -17.9465    -17.3963    -16.0679    -15.7184    -15.5310
 occupation              2.0000      2.0000      2.0000      2.0000      2.0000 

    irrep                 18a         19a         20a         21a         22a   
 eigenvalues H         -0.13588    -0.07955    -0.07821    -0.07107    -0.03402
            eV          -3.6974     -2.1647     -2.1282     -1.9339     -0.9258
 
 
 
 
 ==============================================================================
                           electrostatic moments
 ==============================================================================

 reference point for electrostatic moments:    0.00000   0.00000   0.00000

 
              nuc           elec       ->  total
 ------------------------------------------------------------------------------
                          charge      
 ------------------------------------------------------------------------------
          35.000000     -34.000000       1.000000
 
 ------------------------------------------------------------------------------
                       dipole moment  
 ------------------------------------------------------------------------------
   x      -1.207568       0.282996      -0.924572
   y       3.162537      -0.768275       2.394262
   z       0.000000       0.000000       0.000000
 
   | dipole moment | =     2.5666 a.u. =     6.5236 debye 
 
 ------------------------------------------------------------------------------
                     quadrupole moment
 ------------------------------------------------------------------------------
  xx      69.468318     -85.008311     -15.539993
  yy     275.841683    -281.911212      -6.069528
  zz      21.802574     -38.900370     -17.097796
  xy     -79.188171      75.034122      -4.154050
  xz       0.000000       0.000000       0.000000
  yz       0.000000       0.000000       0.000000
 
     1/3  trace=     -12.902439
     anisotropy=      12.595156
 
 ==============================================================================
 

 ATTENTION: ridft did not converge! 



    ------------------------------------------------------------------------
         total  cpu-time :   5.60 seconds
         total wall-time :   5.65 seconds
    ------------------------------------------------------------------------

   ****  ridft : all done  ****


    2016-06-15 16:37:29.829 

