
 eiger (gplogin2.gp.local) : TURBOMOLE V7.3 ( 22118 ) 1 Jul 2018 at 20:38:15
 Copyright (C) 2018 TURBOMOLE GmbH, Karlsruhe


    2019-08-06 12:06:20.482 

                                                                                
  
 HOMO-LUMO Separation
   HOMO:   385.   385 a     -0.35901582 H =     -9.76932 eV
   LUMO:   386.   386 a     -0.17415996 H =     -4.73914 eV
   Gap :                    +0.18485586 H =     +5.03019 eV
 
Number of MOs=   4272, Electrons=    770.00, Symmetry: c1   
 
   Nr.   Orbital    Occupation       Energy
  402.   402 a                     -0.136890 H =        -3.725 eV
  401.   401 a                     -0.137141 H =        -3.732 eV
  400.   400 a                     -0.139288 H =        -3.790 eV
  399.   399 a                     -0.145390 H =        -3.956 eV
  398.   398 a                     -0.145468 H =        -3.958 eV
  397.   397 a                     -0.147149 H =        -4.004 eV
  396.   396 a                     -0.148526 H =        -4.042 eV
  395.   395 a                     -0.148718 H =        -4.047 eV
  394.   394 a                     -0.150359 H =        -4.091 eV
  393.   393 a                     -0.151080 H =        -4.111 eV
  392.   392 a                     -0.152763 H =        -4.157 eV
  391.   391 a                     -0.153350 H =        -4.173 eV
  390.   390 a                     -0.159697 H =        -4.346 eV
  389.   389 a                     -0.159969 H =        -4.353 eV
  388.   388 a                     -0.169190 H =        -4.604 eV
  387.   387 a                     -0.169378 H =        -4.609 eV
  386.   386 a                     -0.174160 H =        -4.739 eV
  385.   385 a        2.000        -0.359016 H =        -9.769 eV
  384.   384 a        2.000        -0.365067 H =        -9.934 eV
  383.   383 a        2.000        -0.365124 H =        -9.936 eV
  382.   382 a        2.000        -0.365565 H =        -9.948 eV
  381.   381 a        2.000        -0.368617 H =       -10.031 eV
  380.   380 a        2.000        -0.368652 H =       -10.032 eV
  379.   379 a        2.000        -0.372299 H =       -10.131 eV
  378.   378 a        2.000        -0.372966 H =       -10.149 eV
  377.   377 a        2.000        -0.373666 H =       -10.168 eV
  376.   376 a        2.000        -0.373686 H =       -10.169 eV
  375.   375 a        2.000        -0.374677 H =       -10.195 eV
  374.   374 a        2.000        -0.374812 H =       -10.199 eV
  373.   373 a        2.000        -0.375811 H =       -10.226 eV
  372.   372 a        2.000        -0.376419 H =       -10.243 eV
  371.   371 a        2.000        -0.381830 H =       -10.390 eV
  370.   370 a        2.000        -0.382088 H =       -10.397 eV


    ------------------------------------------------------------------------
         total  cpu-time :   8.36 seconds
         total wall-time :   8.60 seconds
    ------------------------------------------------------------------------

   ****  eiger : all done  ****


    2019-08-06 12:06:29.067 

