 operating system is UNIX !
 hostname is         c-16-38.local

 ridft (c-16-38.local) : TURBOMOLE V7.0.2( ) 8 Jan 2016 at 10:54:38
 Copyright (C) 2016 TURBOMOLE GmbH, Karlsruhe


    2017-11-13 16:06:03.745 



                                  r i d f t

                        DFT program with RI approximation 
                                for coulomb part 




                                                 
                                 References:     
                                                 
          TURBOMOLE:                             
              R. Ahlrichs, M. Baer, M. Haeser, H. Horn, and
              C. Koelmel
              Electronic structure calculations on workstation
              computers: the program system TURBOMOLE
              Chem. Phys. Lett. 162: 165 (1989)
          Density Functional:                              
              O. Treutler and R. Ahlrichs                      
              Efficient Molecular Numerical Integration Schemes
              J. Chem. Phys. 102: 346 (1995)                   
          Parallel Version:                                
              Performance of parallel TURBOMOLE for Density    
              Functional Calculations                          
              M. v. Arnim and R. Ahlrichs                      
              J. Comp. Chem. 19: 1746 (1998)                   
          RI-J Method:                                     
              Auxiliary Basis Sets to approximate Coulomb      
              Potentials                                       
              Chem. Phys. Lett. 240: 283 (1995)                
              K. Eichkorn, O. Treutler, H. Oehm, M. Haeser     
              and R. Ahlrichs                                  
              Chem. Phys. Lett. 242: 652 (1995)                
                                                           
              Auxiliary Basis Sets for Main Row Atoms and their
              Use to approximate Coulomb Potentials            
              K. Eichkorn, F. Weigend, O. Treutler and         
              R. Ahlrichs                                      
              Theo. Chem. Acc. 97: 119 (1997)                   
                                                           
              Accurate Coulomb-fitting basis sets for H to Rn 
              F. Weigend                                        
              Phys. Chem. Chem. Phys. 8: 1057 (2006)            
                                                           
          Multipole accelerated RI-J (MARI-J):             
              Fast evaluation of the Coulomb potential for     
              electron densities using multipole accelerated   
              resolution of identity approximation             
              M. Sierka, A. Hogekamp and R. Ahlrichs           
              J. Chem. Phys. 118: 9136 (2003)                  
          RI-JK Method:                                     
              A fully direct RI-HF algorithm: Implementation,
              optimised auxiliary basis sets, demonstration of
              accuracy and efficiency                         
              F. Weigend                                      
              Phys. Chem. Chem. Phys. 4: 4285 (2002)           
          Two-component HF and DFT with spin-orbit coupling:  
              Self-consistent treatment of spin-orbit         
              interactions with efficient Hartree-Fock and    
              density functional methods                      
              M. K. Armbruster, F. Weigend, C. van Wüllen and 
              W. Klopper                                      
              Phys. Chem. Chem. Phys. 10: 1748 (2008)         
          Relativistic all-electron 2c calculations           
              An efficient implementation of two-component    
              relativistic exact-decoupling methods for large 
              molecules                                       
              D. Peng, N. Middendorf, F. Weigend, M. Reiher   
              J. Chem. Phys. 138, 184105 (2013)               
                                         


 


              +--------------------------------------------------+
              |      general information about current run       |
              +--------------------------------------------------+

 

 DENSITY CONVERGENCE CHECK SWITCHED ON !
 SCF CONVERGENCE IF RMS(delta[D]) <     0.1000000000E-06

 A HF calculation using the RI-JK approximation will be carried out.
 Allocatable memory for RI due to $ricore (MB):       14000


              +--------------------------------------------------+
              | Atomic coordinate, charge and isotop information |
              +--------------------------------------------------+

                    atomic coordinates            atom    charge  isotop
         -5.15269622   -1.49751083    0.00000000    c      6.000     0
         -3.00705392    0.44567660    0.00000000    c      6.000     0
         -0.39443384   -0.80942280    0.00000000    c      6.000     0
          1.71855890    1.14347612    0.00000000    c      6.000     0
          4.27353760   -0.09642687    0.00000000    n      7.000     0
          4.50165703   -1.22112629    1.55661749    h      1.000     0
          5.74673163    1.28287101    0.00000000    h      1.000     0
          4.50165703   -1.22112629   -1.55661749    h      1.000     0
         -6.99946037   -0.56392489    0.00000000    h      1.000     0
         -5.04823215   -2.71227120   -1.67478415    h      1.000     0
         -5.04823215   -2.71227120    1.67478415    h      1.000     0
         -3.17430905    1.67160147    1.66483625    h      1.000     0
         -3.17430905    1.67160147   -1.66483625    h      1.000     0
         -0.20676741   -2.02591813    1.67034669    h      1.000     0
         -0.20676741   -2.02591813   -1.67034669    h      1.000     0
          1.65296896    2.34247296    1.67799366    h      1.000     0
          1.65296896    2.34247296   -1.67799366    h      1.000     0
          8.36418128    3.98574441    0.00000000    cl    17.000     0
 
       center of nuclear mass  :    2.44928440    1.16914103    0.00000000
       center of nuclear charge:    2.08816667    0.99340742    0.00000000

              +--------------------------------------------------+
              |               basis set information              |
              +--------------------------------------------------+

              we will work with the 1s 3p 5d 7f 9g ... basis set
              ...i.e. with spherical basis functions...

   type   atoms  prim   cont   basis
   ---------------------------------------------------------------------------
    c        4     77     57   def2-QZVP   [7s4p3d2f1g|15s8p3d2f1g]
    n        1     77     57   def2-QZVP   [7s4p3d2f1g|15s8p3d2f1g]
    h       12     33     30   def2-QZVP   [4s3p2d1f|7s3p2d1f]
    cl       1    105     70   def2-QZVP   [9s6p4d2f1g|20s14p4d2f1g]
   ---------------------------------------------------------------------------
   total:   18    886    715
   ---------------------------------------------------------------------------

   total number of primitive shells          :  112
   total number of contracted shells         :  227
   total number of cartesian basis functions :  866
   total number of SCF-basis functions       :  715


 integral neglect threshold       :  0.38E-13
 integral storage threshold THIZE :  0.10E-04
 integral storage threshold THIME :         5

 RI-JK AUXILIARY BASIS SET information:

              we will work with the 1s 3p 5d 7f 9g ... basis set
              ...i.e. with spherical basis functions...

   type   atoms  prim   cont   basis
   ---------------------------------------------------------------------------
    c        4     97     75   def2-QZVP   [10s8p5d1f1g|14s10p6d2f1g]
    n        1     97     77   def2-QZVP   [10s8p4d2f1g|14s10p6d2f1g]
    h       12     20     18   def2-QZVP   [2s2p2d|4s2p2d]
    cl       1    139    128   def2-QZVP   [13s11p9d4f1g|16s12p10d4f1g]
   ---------------------------------------------------------------------------
   total:   18    864    721
   ---------------------------------------------------------------------------

   total number of primitive shells          :  117
   total number of contracted shells         :  235
   total number of cartesian basis functions :  844
   total number of SCF-basis functions       :  721


 symmetry group of the molecule :   c1 

 the group has the following generators :
   c1(z)

    1 symmetry operations found

 there are 1 real representations :   a   

 maximum number of shells which are related by symmetry :  1


    mo occupation :
   irrep   mo's   occupied
    a      715       30
 
 number of basis functions   :          715
 number of occupied orbitals :           30
 

 biggest AO integral is expected to be    12.165751258
  
           ------------------------
               RI-JK - INFORMATION
           ------------------------
 Contributions to RI integral batches: 
  neglected integral batches:        5874
  direct contribution:               3783
  memory contribution:       16221
 Memory core needed for (P|Q) and Cholesky      4 MByte
 Memory core minimum needed except of (P|Q)     2 MByte
 Total minimum memory core needed (sum)         6 MByte
  
 ****************************************
 Memory allocated for RI-J  1248 MByte
 ****************************************
                                            
 total memory allocated for calculation of  (Q|P)**(-1/2) :    6 MiB

  forming (P|Q)**(-1/2) 
 eigenvalues of original matrix 
 smallest =0.1914915439961E-06  largest = 30.48641437862    
  The symmetry information takes            1  MB

          ------------------------
          nuclear repulsion energy  :   278.462747858    
          ------------------------

 
          -----------------
          -S,T+V- integrals
          -----------------

 1e-integrals will be neglected if expon. factor < 0.385908E-14
 
   Difference densities algorithm switched on.
   The maximal number of linear combinations of
   difference densities is          20 .

 automatic virtual orbital shift switched on 
      shift if e(lumo)-e(homo) < 0.10000000    


 DIIS switched on: error vector is FDS-SDF
 Max. Iterations for DIIS is     :   5
 DIIS matrix (see manual) 
    Scaling factor of diagonals  :  1.200
    threshold for scaling factor :  0.000

 scf convergence criterion : increment of total energy < .1000000D-08
                  and increment of one-electron energy < .1000000D-05

  MOs are in ASCII format !


 reading orbital data $scfmo  from file mos . 

 orbital characterization : scfconv=9
 

 DSCF restart information will be dumped onto file mos


 Starting SCF iterations

 
 BLOCKING OF MOS FOR RI-K
 
 
 occupied MOs partitioned into blocks of maximum length 30
 this requires 144 MiB core memory.
 
            MULTIPLE PASS Statistics 
 ----------------------------------------------------
  pass       irrep     lambda      batch : MO  to  MO
 ----------------------------------------------------
   1       1  ->  1    1  -> 30             1  ->  30



 ENERGY & DENSITY CONVERGED !


 ITERATION  ENERGY          1e-ENERGY        2e-ENERGY     RMS[dD(SAO)]   TOL
   1  -672.48823169681    -1475.6931351     524.74215551    0.000D+00 0.385D-13
                           RI-K = -59.1487534875     Coul =  583.890908996    
                            current damping = 0.700
 
          max. resid. norm for Fia-block=  2.634D-01 for orbital      1a         
          max. resid. fock norm         =  1.065D+00 for orbital    709a         

 End of SCF iterations

   convergence criteria satisfied after    1 iterations


                  ------------------------------------------ 
                 |  total energy      =   -672.48823169681  |
                  ------------------------------------------ 
                 :  kinetic energy    =    672.99965875387  :
                 :  potential energy  =  -1345.48789045069  :
                 :  virial theorem    =      2.00076049964  :
                 :  wavefunction norm =      1.00000000000  :
                  .......................................... 


 orbitals $scfmo  will be written to file mos

    irrep                 26a         27a         28a         29a         30a   
 eigenvalues H         -0.50237    -0.50332    -0.33464    -0.33096    -0.33119
            eV         -13.6703    -13.6961     -9.1061     -9.0058     -9.0123
 occupation              2.0000      2.0000      2.0000      2.0000      2.0000 

    irrep                 31a         32a         33a         34a         35a   
 eigenvalues H          0.07591     0.10130     0.10607     0.10804     0.14431
            eV           2.0656      2.7567      2.8863      2.9401      3.9270
 
 
 
 
 ==============================================================================
                           electrostatic moments
 ==============================================================================

 reference point for electrostatic moments:    0.00000   0.00000   0.00000

 
              nuc           elec       ->  total
 ------------------------------------------------------------------------------
                          charge      
 ------------------------------------------------------------------------------
          60.000000     -60.000000       0.000000
 
 ------------------------------------------------------------------------------
                       dipole moment  
 ------------------------------------------------------------------------------
   x     125.290000    -128.876739      -3.586739
   y      59.604445     -62.436682      -2.832237
   z       0.000000       0.000000       0.000000
 
   | dipole moment | =     4.5701 a.u. =    11.6162 debye 
 
 ------------------------------------------------------------------------------
                     quadrupole moment
 ------------------------------------------------------------------------------
  xx    1748.582986   -1821.184053     -72.601066
  yy     340.983445    -386.684879     -45.701434
  zz      27.210721     -61.531664     -34.320943
  xy     641.494509    -665.485677     -23.991168
  xz       0.000000       0.000000       0.000000
  yz       0.000000       0.000000       0.000000
 
     1/3  trace=     -50.874481
     anisotropy=      53.721181
 
 ==============================================================================
 
 


    ------------------------------------------------------------------------
         total  cpu-time :  41.07 seconds
         total wall-time :  41.18 seconds
    ------------------------------------------------------------------------


   ****  ridft : all done  ****


    2017-11-13 16:06:44.924 

