
 define (gplogin3.local) : TURBOMOLE V7.1 ( ) 5 Apr 2016 at 11:26:39
 Copyright (C) 2016 TURBOMOLE GmbH, Karlsruhe


    2016-06-13 12:05:52.421 

             OPERATING SYSTEM = unix
                    HOST NAME = gplogin3.local
   STANDARD BASIS SET LIBRARY = /beegfs/modfac/apps/TURBOMOLE/7.1_intel/basen/
  ALTERNATE BASIS SET LIBRARY = /beegfs/modfac/apps/TURBOMOLE/7.1_intel/basold/
 LIBRARY FOR RI-J  BASIS SETS = /beegfs/modfac/apps/TURBOMOLE/7.1_intel/jbasen/
 LIBRARY FOR RI-JK BASIS SETS = /beegfs/modfac/apps/TURBOMOLE/7.1_intel/jkbasen/
 LIBRARY FOR RIMP2/RICC2 SETS = /beegfs/modfac/apps/TURBOMOLE/7.1_intel/cbasen/
 LIBRARY FOR RIR12 BASIS SETS = /beegfs/modfac/apps/TURBOMOLE/7.1_intel/cabasen/
 LIBRARY FOR OEP   BASIS SETS = /beegfs/modfac/apps/TURBOMOLE/7.1_intel/xbasen/
            STRUCTURE LIBRARY = /beegfs/modfac/apps/TURBOMOLE/7.1_intel/structures/

 
 ***********************************************************
 *                                                         *
 *                       D E F I N E                       *
 *                                                         *
 *         TURBOMOLE'S  INTERACTIVE  INPUT  PROGRAM        *
 *                                                         *
 *  Quantum Chemistry Group       University of Karlsruhe  *
 *                                                         *
 ***********************************************************
 

 FILE control ALREADY EXISTS 
 I WILL PLUG IN THE NEW DATA. 

 DATA WILL BE TAKEN FROM control BY DEFAULT
 
 INPUT TITLE 

 SYMMETRY c1   AND CARTESIAN COORDINATES FOR  88 ATOMS 
 HAVE BEEN READ FROM THE DEFAULT INPUT FILE control . 

 keyword $intdef  missing in file <control>

 DEFINITIONS OF INTERNAL COORDINATES HAVE  N O T  BEEN READ. 
 SPECIFICATION OF BOND TOPOLOGY HAS BEEN READ. 
 DO YOU WANT TO CHANGE THE GEOMETRY DATA ?  DEFAULT=n  GOBACK=&


 ATOMIC ATTRIBUTE DATA (BASES,CHARGES,MASSES,ECPS) HAVE BEEN
 TAKEN FROM THE DEFAULT INPUT FILE control.
 DO YOU WANT TO CHANGE THESE DATA ? DEFAULT=n  GOBACK=&


 BASIS SETS WILL BE WRITTEN TO FILE basis BY DEFAULT


              ATOMIC COORDINATES              ATOM SHELLS CHARGE PSEUDO MASS
    12.16567890   -2.59366801    4.59296047    c     17      6.     0 12.011
    10.46167505   -1.31107309    3.01375413    c     17      6.     0 12.011
    10.45676176    1.34625979    3.01494466    c     17      6.     0 12.011
    12.15600350    2.63374911    4.59528483    c     17      6.     0 12.011
    13.85405471    1.33998590    6.13098967    c     17      6.     0 12.011
    13.85893021   -1.29499152    6.12981804    c     17      6.     0 12.011
     8.65897081    2.89585412    1.51828156    c     17      6.     0 12.011
     7.12904853    4.60781372    2.80987158    c     17      6.     0 12.011
     5.65887939    6.44663063    1.59967207    c     17      6.     0 12.011
     5.73752979    6.55139704   -1.13886235    c     17      6.     0 12.011
     7.21113823    4.74357164   -2.39855379    c     17      6.     0 12.011
     8.67059262    2.93234473   -1.15365891    c     17      6.     0 12.011
     4.02328363    8.15828787    3.04372519    c     17      6.     0 12.011
     2.99408208   10.10891987    1.65600480    c     17      6.     0 12.011
     3.09992565   10.23819604   -1.03999188    c     17      6.     0 12.011
     4.23506524    8.42483374   -2.52985196    c     17      6.     0 12.011
     1.01113576   11.69005373   -1.86880686    c     17      6.     0 12.011
    -0.38574980   12.44386548    0.28788088    c     17      6.     0 12.011
     0.84661620   11.48199488    2.46210528    c     17      6.     0 12.011
    -2.95305613   12.96217957    0.21622246    c     17      6.     0 12.011
    -4.00771229   13.06507515   -2.30149746    c     17      6.     0 12.011
    -2.63588450   12.34352102   -4.42177018    c     17      6.     0 12.011
    -0.06774668   11.43063212   -4.24697051    c     17      6.     0 12.011
     1.35960126    9.86032640   -5.94827205    c     17      6.     0 12.011
     3.40430383    8.42010942   -5.12283968    c     17      6.     0 12.011
    -4.19299993   12.83059794    2.64693939    c     17      6.     0 12.011
    -2.98232799   11.90317704    4.78524010    c     17      6.     0 12.011
    -0.40850210   10.99431326    4.71418640    c     17      6.     0 12.011
     0.87552901    9.23248379    6.34534131    c     17      6.     0 12.011
     2.98177997    7.87390298    5.54216991    c     17      6.     0 12.011
    10.41883496    1.35340296   -2.68352449    c     17      6.     0 12.011
    10.42367266   -1.31330297   -2.68469612    c     17      6.     0 12.011
    12.09488976   -2.58552330   -4.30927478    c     17      6.     0 12.011
    13.74785210   -1.28956801   -5.88999290    c     17      6.     0 12.011
    13.74308999    1.34455904   -5.88882127    c     17      6.     0 12.011
    12.08542223    2.63310660   -4.30696932    c     17      6.     0 12.011
     8.66957217   -2.86593976    1.51574933    c     17      6.     0 12.011
     7.14598047   -4.58464567    2.80584646    c     17      6.     0 12.011
     5.68236869   -6.42761998    1.59398399    c     17      6.     0 12.011
     5.76118916   -6.52951402   -1.14466381    c     17      6.     0 12.011
     7.22822136   -4.71524465   -2.40273009    c     17      6.     0 12.011
     8.68119398   -2.89993593   -1.15622893    c     17      6.     0 12.011
     4.26528196   -8.40697583   -2.53729748    c     17      6.     0 12.011
     3.13675641  -10.22578054   -1.04908146    c     17      6.     0 12.011
     3.03066718  -10.09945234    1.64704750    c     17      6.     0 12.011
     4.05300902   -8.14647708    3.03654423    c     17      6.     0 12.011
     0.88819018  -11.48093663    2.45201414    c     17      6.     0 12.011
    -0.34092549  -12.44511270    0.27697716    c     17      6.     0 12.011
     1.05308768  -11.68430896   -1.87910587    c     17      6.     0 12.011
     3.43436938   -8.40283733   -5.13024740    c     17      6.     0 12.011
     1.39478796   -9.84963055   -5.95690810    c     17      6.     0 12.011
    -0.02683411  -11.42656921   -4.25696716    c     17      6.     0 12.011
    -2.59172160  -12.34847211   -4.43240934    c     17      6.     0 12.011
    -3.96082818  -13.07688594   -2.31270353    c     17      6.     0 12.011
    -2.90636100  -12.97257306    0.20503529    c     17      6.     0 12.011
     3.01065498   -7.86817711    5.53531020    c     17      6.     0 12.011
     0.90933622   -9.23503492    6.33738556    c     17      6.     0 12.011
    -0.36847770  -10.99992574    4.70468108    c     17      6.     0 12.011
    -2.93899657  -11.91816257    4.77509227    c     17      6.     0 12.011
    -4.14655046  -12.84783224    2.63599788    c     17      6.     0 12.011
     0.71904079    9.61063689   -7.88418309    h     10      1.     0  1.008
     4.24959723    7.11434646   -6.46273109    h     10      1.     0  1.008
     3.71331185    6.41928629    6.79322530    h     10      1.     0  1.008
     0.07470087    8.78104711    8.18245746    h     10      1.     0  1.008
    -4.08477532   11.67998149    6.50483419    h     10      1.     0  1.008
    -6.18890978   13.29753037    2.78817753    h     10      1.     0  1.008
    -5.98990272   13.54759782   -2.54610361    h     10      1.     0  1.008
    -3.60348097   12.29166694   -6.23350731    h     10      1.     0  1.008
    -3.55965822  -12.29839436   -6.24403309    h     10      1.     0  1.008
    -5.94129896  -13.56626832   -2.55764983    h     10      1.     0  1.008
    -6.14074066  -13.32209681    2.77699035    h     10      1.     0  1.008
    -4.04208640  -11.70057950    6.49498872    h     10      1.     0  1.008
     0.10709078   -8.78822807    8.17499305    h     10      1.     0  1.008
     3.73710350   -6.41214313    6.78768840    h     10      1.     0  1.008
     4.27495736   -7.09289807   -6.46900498    h     10      1.     0  1.008
     0.75326373   -9.60047016   -7.89255458    h     10      1.     0  1.008
     7.13791134    4.55015817    4.86230313    h     10      1.     0  1.008
     7.27274330    4.78323699   -4.45038063    h     10      1.     0  1.008
     7.15478660   -4.52887986    4.85831581    h     10      1.     0  1.008
     7.28988312   -4.75279351   -4.45459472    h     10      1.     0  1.008
    12.07387600    4.68625625   -4.29094444    h     10      1.     0  1.008
    15.02351173    2.39139173   -7.10436870    h     10      1.     0  1.008
    15.03207219   -2.33069373   -7.10644740    h     10      1.     0  1.008
    12.09078905   -4.63871074   -4.29504514    h     10      1.     0  1.008
    12.13517872    4.68695545    4.58687555    h     10      1.     0  1.008
    15.16386169    2.38358716    7.31769989    h     10      1.     0  1.008
    15.17261112   -2.33479443    7.31560229    h     10      1.     0  1.008
    12.15246971   -4.64693105    4.58273705    h     10      1.     0  1.008
 

 we will work with the  1s 3p 5d  7f  9g basis set


 there are 1 real representations :   a   

    mo occupation :
   irrep   mo's   occupied
    a     4260      194
 
 number of basis functions   :         4260
 number of occupied orbitals :          194
 

 reading orbital data $scfmo  from file mos
 orbital characterization : expanded

 MOLECULAR ORBITAL DATA (OCCUPATION NUMBERS,MOS) HAVE BEEN 
 TAKEN FROM THE DEFAULT INPUT FILE control . 
 DO YOU WANT TO CHANGE THESE DATA ?  DEFAULT=n  GOBACK=&


 ADJUSTING DATA GROUP  $drvopt  FOR CURRENT REQUIREMENTS

 ADJUSTING DATA GROUP  $optimize  FOR CURRENT REQUIREMENTS


 DO YOU WANT TO DELETE DATA GROUPS LIKE
     $energy
     $grad
 LEFT OVER FROM PREVIOUS CALCULATIONS ? DEFAULT(n)


    mo occupation :
   irrep   mo's   occupied
    a     4260      194
 
 number of basis functions   :         4260
 number of occupied orbitals :          194
 

 GENERAL MENU : SELECT YOUR TOPIC 
 scf    : SELECT NON-DEFAULT SCF PARAMETER 
 mp2    : OPTIONS AND DATA GROUPS FOR rimp2 and mpgrad
 cc     : OPTIONS AND DATA GROUPS FOR ricc2
 ex     : EXCITED STATE AND RESPONSE OPTIONS
 prop   : SELECT TOOLS FOR SCF-ORBITAL ANALYSIS 
 drv    : SELECT NON-DEFAULT INPUT PARAMETER FOR EVALUATION
          OF ANALYTICAL ENERGY DERIVATIVES 
          (GRADIENTS, FORCE CONSTANTS) 
 rex    : SELECT OPTIONS FOR GEOMETRY UPDATES USING RELAX
 stp    : SELECT NON-DEFAULT STRUCTURE OPTIMIZATION PARAMETER
 e      : DEFINE EXTERNAL ELECTROSTATIC FIELD 
 dft    : DFT Parameters 
 ri     : RI Parameters 
 rijk   : RI-JK-HF Parameters 
 rirpa  : RIRPA Parameters 
 senex  : seminumeric exchange parameters 
 hybno  : hybrid Noga/Diag parameters
 dsp    : DFT dispersion correction
 trunc  : USE TRUNCATED AUXBASIS DURING ITERATIONS 
 marij  : MULTIPOLE ACCELERATED RI-J 
 dis    : DISPLAY MOLECULAR GEOMETRY 
 list   : LIST OF CONTROL FILE 
 &      : GO BACK TO OCCUPATION/ORBITAL ASSIGNMENT MENU

 * or q : END OF DEFINE SESSION 


 NO DEFINITION OF BASIS SETS ($jkbas) IN control
  TRY TO OBTAIN BASIS SETS FROM LIBRARY !

 keyword $jkbas  missing in file <control>

 c def2-QZVP                                                             
 c dhf-QZVP                                                              
 c def2-QZVPP                                                            
 c dhf-QZVPP                                                             
 c dhf-SV(P)                                                             
 c dhf-SVP                                                               
 c dhf-SV(P)-2c                                                          
 c dhf-SVP-2c                                                            
 c dhf-TZVP-2c                                                           
 c dhf-TZVPP-2c                                                          
 c dhf-QZVP-2c                                                           
 c dhf-QZVPP-2c                                                          
 c def2-SV(P)                                                            
 c def2-SVP                                                              
 c def-SVP                                                               
 c def-SV(P)                                                             
 c SVP                                                                   
 c SV(P)                                                                 
 c universal                                                             
 c small                                                                 
 # c (14s10p6d2f1g) / [10s8p5d1f1g]                                      
 # errors per atom /uH for [J+K]-HF(def2-QZVPP):                         
 # C2H2:6 C2H3N:6 C2H4:4 C2H6:1 C4H4:6 C6H6:13 CF4:39 CH2O:17            
 # CH2O2:21 CH3N:8 CH3OH:5 CH4:-1 H2CO3:29                               
 # ...leading to errors per atom for MP2(-only-)energies:                
 # C2H2:23 C2H3N:21 C2H4:13 C2H6:12 C4H4:19 C6H6:18 CF4:74 CH2O:23       
 # CH2O2:29 CH3N:15 CH3OH:17 CH4:10 H2CO3:34                             
 # F. Weigend 07/06 J. Comput. Chem. 29(2), 167-75 (2008)                

 keyword $jkbas  missing in file <control>

 h def2-QZVP                                                             
 h dhf-QZVP                                                              
 h def2-QZVPP                                                            
 h dhf-QZVPP                                                             
 h dhf-SV(P)                                                             
 h dhf-SVP                                                               
 h dhf-SV(P)-2c                                                          
 h dhf-SVP-2c                                                            
 h dhf-TZVP-2c                                                           
 h dhf-TZVPP-2c                                                          
 h dhf-QZVP-2c                                                           
 h dhf-QZVPP-2c                                                          
 h def2-SV(P)                                                            
 h def2-SVP                                                              
 h def-SVP                                                               
 h def-SV(P)                                                             
 h SVP                                                                   
 h SV(P)                                                                 
 h universal                                                             
 h small                                                                 
 # h (4s2p2d) / [2s2p2d]                                                 
 # errors per atom /uH for [J+K]-HF(def2-QZVPP):                         
 # H2:-5                                                                 
 # ...leading to errors per atom for MP2(-only-)energies:                
 # H2:6                                                                  
 # F. Weigend 07/06 J. Comput. Chem. 29(2), 167-75 (2008)                


STATUS OF RI-OPTIONS:
    RI IS USED
    Memory for RI:         15000 Mb
    Filename for auxbasis: auxbasis

 ENTER RI-OPTION TO BE MODIFIED 
      m: CHANGE MEMORY FOR RI 
      f: CHANGE FILENAME 
  jkbas: ASSIGN AUXILIARY RI-JK BASIS SETS
    off: TO SWITCH OFF RI 
 Use <ENTER>, q, end, or '*' to leave this menu

 GENERAL MENU : SELECT YOUR TOPIC 
 scf    : SELECT NON-DEFAULT SCF PARAMETER 
 mp2    : OPTIONS AND DATA GROUPS FOR rimp2 and mpgrad
 cc     : OPTIONS AND DATA GROUPS FOR ricc2
 ex     : EXCITED STATE AND RESPONSE OPTIONS
 prop   : SELECT TOOLS FOR SCF-ORBITAL ANALYSIS 
 drv    : SELECT NON-DEFAULT INPUT PARAMETER FOR EVALUATION
          OF ANALYTICAL ENERGY DERIVATIVES 
          (GRADIENTS, FORCE CONSTANTS) 
 rex    : SELECT OPTIONS FOR GEOMETRY UPDATES USING RELAX
 stp    : SELECT NON-DEFAULT STRUCTURE OPTIMIZATION PARAMETER
 e      : DEFINE EXTERNAL ELECTROSTATIC FIELD 
 dft    : DFT Parameters 
 ri     : RI Parameters 
 rijk   : RI-JK-HF Parameters 
 rirpa  : RIRPA Parameters 
 senex  : seminumeric exchange parameters 
 hybno  : hybrid Noga/Diag parameters
 dsp    : DFT dispersion correction
 trunc  : USE TRUNCATED AUXBASIS DURING ITERATIONS 
 marij  : MULTIPOLE ACCELERATED RI-J 
 dis    : DISPLAY MOLECULAR GEOMETRY 
 list   : LIST OF CONTROL FILE 
 &      : GO BACK TO OCCUPATION/ORBITAL ASSIGNMENT MENU

 * or q : END OF DEFINE SESSION 

 
 ***********************************************************
 *                                                         *
 *                       e n d   o f                       *
 *                       D E F I N E                       *
 *                                                         *
 *         TURBOMOLE'S  INTERACTIVE  INPUT  PROGRAM        *
 *                                                         *
 *  Quantum Chemistry Group       University of Karlsruhe  *
 *                                                         *
 ***********************************************************


    ------------------------------------------------------------------------
         total  cpu-time :   1.64 seconds
         total wall-time :   2.13 seconds
    ------------------------------------------------------------------------

   ****  define : all done  ****


    2016-06-13 12:05:54.546 

