           Doing BLAS/Lapack in the master proc. with  8 CPUs.
           SMPCPUS    set: Shared-memory Parallelization with   8 CPUs.

           SMP Parallelization Reference:
           C. van Wullen, J. Comput. Chem. 32 (2011) 1195--1201
 operating system is UNIX !

 ridft (c-12-11.gp.local) : TURBOMOLE V7.2 ( 21454 ) 4 Oct 2017 at 12:48:15
 Copyright (C) 2017 TURBOMOLE GmbH, Karlsruhe


    2018-04-24 21:11:08.670 



                                  r i d f t

                        DFT program with RI approximation 
                                for coulomb part 




                                                 
                                 References:     
                                                 
          TURBOMOLE:                             
              R. Ahlrichs, M. Baer, M. Haeser, H. Horn, and
              C. Koelmel
              Electronic structure calculations on workstation
              computers: the program system TURBOMOLE
              Chem. Phys. Lett. 162: 165 (1989)
          Density Functional:                              
              O. Treutler and R. Ahlrichs                      
              Efficient Molecular Numerical Integration Schemes
              J. Chem. Phys. 102: 346 (1995)                   
          Parallel Version:                                
              Performance of parallel TURBOMOLE for Density    
              Functional Calculations                          
              M. v. Arnim and R. Ahlrichs                      
              J. Comp. Chem. 19: 1746 (1998)                   
          RI-J Method:                                     
              Auxiliary Basis Sets to approximate Coulomb      
              Potentials                                       
              Chem. Phys. Lett. 240: 283 (1995)                
              K. Eichkorn, O. Treutler, H. Oehm, M. Haeser     
              and R. Ahlrichs                                  
              Chem. Phys. Lett. 242: 652 (1995)                
                                                           
              Auxiliary Basis Sets for Main Row Atoms and their
              Use to approximate Coulomb Potentials            
              K. Eichkorn, F. Weigend, O. Treutler and         
              R. Ahlrichs                                      
              Theo. Chem. Acc. 97: 119 (1997)                   
                                                           
              Accurate Coulomb-fitting basis sets for H to Rn 
              F. Weigend                                        
              Phys. Chem. Chem. Phys. 8: 1057 (2006)            
                                                           
          Multipole accelerated RI-J (MARI-J):             
              Fast evaluation of the Coulomb potential for     
              electron densities using multipole accelerated   
              resolution of identity approximation             
              M. Sierka, A. Hogekamp and R. Ahlrichs           
              J. Chem. Phys. 118: 9136 (2003)                  
          RI-JK Method:                                     
              A fully direct RI-HF algorithm: Implementation,
              optimised auxiliary basis sets, demonstration of
              accuracy and efficiency                         
              F. Weigend                                      
              Phys. Chem. Chem. Phys. 4: 4285 (2002)           
          Two-component HF and DFT with spin-orbit coupling:  
              Self-consistent treatment of spin-orbit         
              interactions with efficient Hartree-Fock and    
              density functional methods                      
              M. K. Armbruster, F. Weigend, C. van Wüllen and 
              W. Klopper                                      
              Phys. Chem. Chem. Phys. 10: 1748 (2008)         
          Relativistic all-electron 2c calculations           
              An efficient implementation of two-component    
              relativistic exact-decoupling methods for large 
              molecules                                       
              D. Peng, N. Middendorf, F. Weigend, M. Reiher   
              J. Chem. Phys. 138, 184105 (2013)               
                                         




              +--------------------------------------------------+
              |      general information about current run       |
              +--------------------------------------------------+

 

 DENSITY CONVERGENCE CHECK SWITCHED ON !
 SCF CONVERGENCE IF RMS(delta[D]) <     0.1000000000E-06

 PBE functional
 exchange:    LDA + PBE
 correlation: LDA (PW) + PBE
 A DFT calculation using the RI-J approximation will be carried out.
 Allocatable memory for RI due to $ricore (MB):                   500


              +--------------------------------------------------+
              | Atomic coordinate, charge and isotop information |
              +--------------------------------------------------+

                    atomic coordinates            atom    charge  isotop
         -0.99272944   -0.09632139   -0.59435073    o      8.000     0
         -1.78013455    1.41332926    0.02126474    h      1.000     0
          0.76287587    0.11297913   -0.13902407    h      1.000     0
          4.37780247    0.08598414    0.13579268    o      8.000     0
          5.07318923   -0.99508548    1.41613566    h      1.000     0
          5.25653470   -0.80526723   -2.24934238    c      6.000     0
          4.44240838    0.42512153   -3.67252165    h      1.000     0
          7.30870866   -0.70928264   -2.38977157    h      1.000     0
          4.63605708   -2.73254127   -2.62555026    h      1.000     0
 
       center of nuclear mass  :    2.75486104   -0.24657239   -0.83507922
       center of nuclear charge:    2.82367490   -0.26427789   -0.87692807

              +--------------------------------------------------+
              |               basis set information              |
              +--------------------------------------------------+

              we will work with the 1s 3p 5d 7f 9g ... basis set
              ...i.e. with spherical basis functions...

   type   atoms  prim   cont   basis
   ---------------------------------------------------------------------------
    o        2     77     55   cc-pVQZ   [5s4p3d2f1g|21s6p3d2f1g]
    h        6     32     30   cc-pVQZ   [4s3p2d1f|6s3p2d1f]
    c        1     77     55   cc-pVQZ   [5s4p3d2f1g|21s6p3d2f1g]
   ---------------------------------------------------------------------------
   total:    9    423    345
   ---------------------------------------------------------------------------

   total number of primitive shells          :   78
   total number of contracted shells         :  105
   total number of cartesian basis functions :  420
   total number of SCF-basis functions       :  345


 integral neglect threshold       :  0.79E-13
 integral storage threshold THIZE :  0.10E-04
 integral storage threshold THIME :         5

 RI-J AUXILIARY BASIS SET information:

              we will work with the 1s 3p 5d 7f 9g ... basis set
              ...i.e. with spherical basis functions...

   type   atoms  prim   cont   basis
   ---------------------------------------------------------------------------
    o        2     70     49   cc-pVQZ   [6s4p3d1f1g|12s5p4d2f1g]
    h        6     16     11   cc-pVQZ   [3s1p1d|5s2p1d]
    c        1     70     49   cc-pVQZ   [6s4p3d1f1g|12s5p4d2f1g]
   ---------------------------------------------------------------------------
   total:    9    306    213
   ---------------------------------------------------------------------------

   total number of primitive shells          :   56
   total number of contracted shells         :   75
   total number of cartesian basis functions :  255
   total number of SCF-basis functions       :  213


 symmetry group of the molecule :   c1 

 the group has the following generators :
   c1(z)

    1 symmetry operations found

 there are 1 real representations :   a   

 maximum number of shells which are related by symmetry :  1


    mo occupation :
   irrep   mo's   occupied
    a      345       14
 
 number of basis functions   :                    345
 number of occupied orbitals :                     14
 
  
           ------------------
           density functional
           ------------------
 PBE functional
 exchange:    LDA + PBE
 correlation: LDA (PW) + PBE

 iterations will be done with small grid
  
 spherical integration : Lebedev's spherical grid
 spherical gridsize    :                     5
    i.e. gridpoints    :                   590
 value for diffuse not defined
 radial integration    : Chebyshev 2nd kind (scaling 3)
 radial gridsize       :                     8
 integration cells     :                     9
 partition function    : becke
 partition sharpness   :                     3
  

 biggest AO integral is expected to be     4.785886462
  
           ------------------------
               RI-J - INFORMATION
           ------------------------
 Contributions to RI integral batches: 
  neglected integral batches:                   655
  direct contribution:                            0
  memory contribution:                  4910
 Memory core needed for (P|Q) and Cholesky      1 MByte
 Memory core minimum needed except of (P|Q)     1 MByte
 Total minimum memory core needed (sum)         1 MByte
  
 ****************************************
 Memory allocated for RI-J   151 MByte
 ****************************************
                                            

          ------------------------
          nuclear repulsion energy  :   79.9833807273    
          ------------------------


         -----------------
         -S,T+V- integrals
         -----------------

 1e-integrals will be neglected if expon. factor < 0.795705E-14
 Difference densities >>NOT<< switched on in parallel ridft!

 DIIS switched on: error vector is FDS-SDF
 Max. Iterations for DIIS is     :   4
 DIIS matrix (see manual) 
    Scaling factor of diagonals  :  1.200
    threshold for scaling factor :  0.000

 scf convergence criterion : increment of total energy < .1000000D-08
                  and increment of one-electron energy < .1000000D-05

  MOs are in ASCII format !


 automatic virtual orbital shift switched on 
      shift if e(lumo)-e(homo) < 0.10000000    


 reading orbital data $scfmo  from file mos
 orbital characterization : expanded
 mo provided and orthogonalized by Cholesky decomposition

 DSCF restart information will be dumped onto file mos


 Starting SCF iterations

          Overall gridpoints after grid construction =         40588

 ITERATION  ENERGY          1e-ENERGY        2e-ENERGY     RMS[dD(SAO)]   TOL
   1  -191.33116492032    -421.44655523     150.13200958    0.000D+00 0.794D-13
                            Exc = -24.6867747015     Coul =  174.818784284    
                              N = 27.999991057    
                            current damping = 0.700
 
          max. resid. norm for Fia-block=  3.280D-01 for orbital      1a         
          max. resid. fock norm         =  1.316D+01 for orbital    330a         

 ITERATION  ENERGY          1e-ENERGY        2e-ENERGY     RMS[dD(SAO)]   TOL
   2  -191.90532674576    -420.53097035     148.64226288    0.399D-02 0.794D-13
                            Exc = -24.5120952849     Coul =  173.154358167    
                              N = 27.999996360    
                            current damping = 0.650
 
          Norm of current diis error:  2.0074    
          max. resid. norm for Fia-block=  1.432D-01 for orbital      2a         
          max. resid. fock norm         =  2.070D-01 for orbital    321a         

 ITERATION  ENERGY          1e-ENERGY        2e-ENERGY     RMS[dD(SAO)]   TOL
   3  -191.99801173433    -421.27464584     149.29325338    0.222D-02 0.794D-13
                            Exc = -24.6408438692     Coul =  173.934097251    
                              N = 27.999998906    
                            current damping = 0.600
 
          Norm of current diis error: 0.92748    
          max. resid. norm for Fia-block=  5.808D-02 for orbital      2a         
          max. resid. fock norm         =  6.042D-02 for orbital      2a         

 ITERATION  ENERGY          1e-ENERGY        2e-ENERGY     RMS[dD(SAO)]   TOL
   4  -192.02465029757    -420.71483717     148.70680615    0.131D-02 0.794D-13
                            Exc = -24.5853824445     Coul =  173.292188590    
                              N = 28.000001400    
                            current damping = 0.650
 
          Norm of current diis error: 0.34687    
          max. resid. norm for Fia-block=  2.156D-02 for orbital      2a         
          max. resid. fock norm         =  3.602D-02 for orbital    328a         

 ITERATION  ENERGY          1e-ENERGY        2e-ENERGY     RMS[dD(SAO)]   TOL
   5  -192.02893846473    -421.08470004     149.07238084    0.543D-03 0.794D-13
                            Exc = -24.6368296558     Coul =  173.709210501    
                              N = 28.000001964    
                            current damping = 0.700
 
          Norm of current diis error: 0.14548    
          max. resid. norm for Fia-block=  8.706D-03 for orbital      2a         
          max. resid. fock norm         =  1.318D-02 for orbital    305a         
          mo-orthogonalization: Cholesky decomposition

 ITERATION  ENERGY          1e-ENERGY        2e-ENERGY     RMS[dD(SAO)]   TOL
   6  -192.02978040444    -420.95665536     148.94349423    0.307D-03 0.794D-13
                            Exc = -24.6259347585     Coul =  173.569428985    
                              N = 28.000002356    
                            current damping = 0.750
 
          Norm of current diis error: 0.60381E-01
          max. resid. norm for Fia-block=  3.660D-03 for orbital      2a         
          max. resid. fock norm         =  5.075D-03 for orbital    328a         

 ITERATION  ENERGY          1e-ENERGY        2e-ENERGY     RMS[dD(SAO)]   TOL
   7  -192.02992490994    -420.97286393     148.95955829    0.118D-03 0.794D-13
                            Exc = -24.6281545662     Coul =  173.587712859    
                              N = 28.000002488    
                            current damping = 0.800
 
          Norm of current diis error: 0.25221E-01
          max. resid. norm for Fia-block=  1.724D-03 for orbital      5a         
          max. resid. fock norm         =  3.029D-03 for orbital    293a         

 ITERATION  ENERGY          1e-ENERGY        2e-ENERGY     RMS[dD(SAO)]   TOL
   8  -192.02995015983    -420.98704725     148.97371637    0.482D-04 0.794D-13
                            Exc = -24.6306223739     Coul =  173.604338740    
                              N = 28.000002541    
                            current damping = 0.650
 
          Norm of current diis error: 0.11037E-01
          max. resid. norm for Fia-block=  6.873D-04 for orbital      2a         
          max. resid. fock norm         =  1.063D-03 for orbital    305a         

 ITERATION  ENERGY          1e-ENERGY        2e-ENERGY     RMS[dD(SAO)]   TOL
   9  -192.02995546576    -420.98484975     148.97151355    0.256D-04 0.794D-13
                            Exc = -24.6306048678     Coul =  173.602118420    
                              N = 28.000002560    
                            current damping = 0.700
 
          Norm of current diis error: 0.45161E-02
          max. resid. norm for Fia-block=  2.741D-04 for orbital      2a         
          max. resid. fock norm         =  3.514D-04 for orbital    305a         

 ITERATION  ENERGY          1e-ENERGY        2e-ENERGY     RMS[dD(SAO)]   TOL
  10  -192.02995631316    -420.98288430     148.96954725    0.109D-04 0.794D-13
                            Exc = -24.6304154802     Coul =  173.599962735    
                              N = 28.000002578    
                            current damping = 0.550
 
          Norm of current diis error: 0.24474E-02
          max. resid. norm for Fia-block=  1.421D-04 for orbital      4a         
          max. resid. fock norm         =  2.384D-04 for orbital    305a         
          mo-orthogonalization: Cholesky decomposition

 ITERATION  ENERGY          1e-ENERGY        2e-ENERGY     RMS[dD(SAO)]   TOL
  11  -192.02995648890    -420.98640062     148.97306340    0.346D-05 0.794D-13
                            Exc = -24.6308807382     Coul =  173.603944138    
                              N = 28.000002579    
                            current damping = 0.600
 
          Norm of current diis error: 0.81498E-03
          max. resid. norm for Fia-block=  5.114D-05 for orbital     13a         
          max. resid. fock norm         =  9.092D-05 for orbital    305a         

 ITERATION  ENERGY          1e-ENERGY        2e-ENERGY     RMS[dD(SAO)]   TOL
  12  -192.02995651107    -420.98526047     148.97192323    0.186D-05 0.794D-13
                            Exc = -24.6307827767     Coul =  173.602706006    
                              N = 28.000002580    
                            current damping = 0.650
 
          Norm of current diis error: 0.40788E-03
          max. resid. norm for Fia-block=  2.423D-05 for orbital     14a         
          max. resid. fock norm         =  2.709D-05 for orbital     12a         

 ITERATION  ENERGY          1e-ENERGY        2e-ENERGY     RMS[dD(SAO)]   TOL
  13  -192.02995651538    -420.98515860     148.97182136    0.674D-06 0.794D-13
                            Exc = -24.6307619201     Coul =  173.602583280    
                              N = 28.000002581    
                            current damping = 0.500
 
          Norm of current diis error: 0.21819E-03
          max. resid. norm for Fia-block=  1.139D-05 for orbital      5a         
          max. resid. fock norm         =  1.812D-05 for orbital    282a         

 ITERATION  ENERGY          1e-ENERGY        2e-ENERGY     RMS[dD(SAO)]   TOL
  14  -192.02995651634    -420.98544786     148.97211062    0.225D-06 0.794D-13
                            Exc = -24.6307982418     Coul =  173.602908863    
                              N = 28.000002581    
                            current damping = 0.550
 
          Norm of current diis error: 0.11946E-03
          max. resid. norm for Fia-block=  5.986D-06 for orbital      7a         
          max. resid. fock norm         =  1.014D-05 for orbital    326a         

 DENSITY CONVERGED !


 ITERATION  ENERGY          1e-ENERGY        2e-ENERGY     RMS[dD(SAO)]   TOL
  15  -192.02995651657    -420.98551784     148.97218060    0.687D-07 0.794D-13
                            Exc = -24.6308094713     Coul =  173.602990070    
                              N = 28.000002581    
                            current damping = 0.400
 
          Norm of current diis error: 0.54789E-04
          max. resid. norm for Fia-block=  2.575D-06 for orbital     13a         
          max. resid. fock norm         =  2.789D-06 for orbital     13a         
          mo-orthogonalization: Cholesky decomposition

 DENSITY CONVERGED !


 ITERATION  ENERGY          1e-ENERGY        2e-ENERGY     RMS[dD(SAO)]   TOL
  16  -192.02995651664    -420.98541185     148.97207461    0.706D-07 0.794D-13
                            Exc = -24.6307968216     Coul =  173.602871431    
                              N = 28.000002581    
                            current damping = 0.450
 
          Norm of current diis error: 0.14610E-04
          max. resid. norm for Fia-block=  6.281D-07 for orbital      7a         
          max. resid. fock norm         =  8.733D-07 for orbital    285a         

 ENERGY & DENSITY CONVERGED !

          Overall gridpoints after grid construction =        135926

 ITERATION  ENERGY          1e-ENERGY        2e-ENERGY     RMS[dD(SAO)]   TOL
  17  -192.02996091229    -420.98543095     148.97208931    0.112D-07 0.794D-13
                            Exc = -24.6308030069     Coul =  173.602892316    
                              N = 28.000000011    
                            current damping = 0.500
 
          Norm of current diis error: 0.64787E-05
          max. resid. norm for Fia-block=  3.119D-07 for orbital      8a         
          max. resid. fock norm         =  5.504D-07 for orbital    293a         

 End of SCF iterations

   convergence criteria satisfied after    17 iterations


                  ------------------------------------------ 
                 |  total energy      =   -192.02996091229  |
                  ------------------------------------------ 
                 :  kinetic energy    =    191.38789473183  :
                 :  potential energy  =   -383.41785564412  :
                 :  virial theorem    =      1.99665642706  :
                 :  wavefunction norm =      1.00000000000  :
                  .......................................... 


 <geterg> : there is no data group $energy 


 <skperg> : $end is missing 


 orbitals $scfmo  will be written to file mos

    irrep                 10a         11a         12a         13a         14a   
 eigenvalues H         -0.39479    -0.32121    -0.30240    -0.25060    -0.23203
            eV         -10.7429     -8.7406     -8.2288     -6.8192     -6.3138
 occupation              2.0000      2.0000      2.0000      2.0000      2.0000 

    irrep                 15a         16a         17a         18a         19a   
 eigenvalues H         -0.01379     0.02910     0.03296     0.07301     0.07730
            eV          -0.3754      0.7919      0.8970      1.9868      2.1034
 
 
 
 
 ==============================================================================
                           electrostatic moments
 ==============================================================================

 reference point for electrostatic moments:    0.00000   0.00000   0.00000

 
              nuc           elec       ->  total
 ------------------------------------------------------------------------------
                          charge      
 ------------------------------------------------------------------------------
          28.000000     -28.000000       0.000000
 
 ------------------------------------------------------------------------------
                       dipole moment  
 ------------------------------------------------------------------------------
   x      79.062897     -78.108435       0.954462
   y      -7.399781       7.429800       0.030019
   z     -24.553986      24.798029       0.244043
 
   | dipole moment | =     0.9856 a.u. =     2.5052 debye 
 
 ------------------------------------------------------------------------------
                     quadrupole moment
 ------------------------------------------------------------------------------
  xx     451.125620    -461.026267      -9.900647
  yy      15.175152     -29.371858     -14.196706
  zz      61.447944     -75.327933     -13.879989
  xy     -45.062728      41.189702      -3.873026
  xz    -100.379228      99.578054      -0.801174
  yz      17.332679     -17.676942      -0.344263
 
     1/3  trace=     -12.659114
     anisotropy=       8.029818
 
 ==============================================================================
 


    ------------------------------------------------------------------------
         total  cpu-time :  2 minutes and 48 seconds
         total wall-time :  18.13 seconds
    ------------------------------------------------------------------------

   ****  ridft : all done  ****


    2018-04-24 21:11:26.750 

