
   OpenMP run-time library returned nthreads = 16
 operating system is UNIX !

 dscf (c-3-41) : TURBOMOLE V7.3 ( 22142 ) 4 Jul 2018 at 18:12:42
 Copyright (C) 2018 TURBOMOLE GmbH, Karlsruhe


    2019-04-02 16:47:56.565 



                             d s c f - program

                   idea & directorship : reinhart ahlrichs
                   program development : marco haeser
                                         michael baer
                           dft version : oliver treutler


                          quantum chemistry group
                          universitaet  karlsruhe
                                  germany




                          References             
                                                 
          TURBOMOLE:                             
              R. Ahlrichs, M. Baer, M. Haeser, H. Horn, and
              C. Koelmel
              Electronic structure calculations on workstation
              computers: the program system TURBOMOLE
              Chem. Phys. Lett. 162: 165 (1989)
          Density Functional:                              
              O. Treutler and R. Ahlrichs                      
              Efficient Molecular Numerical Integration Schemes
              J. Chem. Phys. 102: 346 (1995)                   
          Parallel Version:                                
              Performance of parallel TURBOMOLE for Density    
              Functional Calculations                          
              M. v. Arnim and R. Ahlrichs                      
              J. Comp. Chem. 19: 1746 (1998)                   
                                         




              +--------------------------------------------------+
              | Atomic coordinate, charge and isotop information |
              +--------------------------------------------------+

                    atomic coordinates            atom    charge  isotop
         -1.37949844    0.04302458    0.00172843    n      7.000     0
          0.56393690    0.13984817    0.00306710    h      1.000     0
         -2.45064320   -2.34406698    0.00283900    c      6.000     0
         -1.12268414   -4.25853093    0.00497698    o      8.000     0
         -5.18469474   -2.38546120    0.00090589    c      6.000     0
         -6.14083600   -4.17976272    0.00157434    h      1.000     0
         -6.46668057   -0.18124213   -0.00174344    c      6.000     0
         -8.50546285   -0.09300481   -0.00329845    h      1.000     0
         -5.24368170    2.08892017   -0.00267977    n      7.000     0
         -6.20555461    3.73008769   -0.00469737    h      1.000     0
         -2.62951359    2.33762860   -0.00099283    c      6.000     0
         -1.58707461    4.37856212   -0.00189209    o      8.000     0
          7.83070283   -2.05168288    0.00094349    n      7.000     0
          8.67587109   -0.33850781    0.00167447    h      1.000     0
          9.44839867   -4.15800525   -0.00189086    c      6.000     0
         11.73393176   -3.87132545   -0.00330664    o      8.000     0
          8.09872144   -6.54316756   -0.00284403    c      6.000     0
          9.16941107   -8.27232508   -0.00499574    h      1.000     0
          5.54727184   -6.55038230   -0.00102971    c      6.000     0
          4.45696933   -8.27563567   -0.00163192    h      1.000     0
          4.15267019   -4.37553270    0.00171117    n      7.000     0
          2.21317573   -4.41605372    0.00299065    h      1.000     0
          5.23505040   -2.02345664    0.00275174    c      6.000     0
          4.00612203   -0.05583920    0.00508819    o      8.000     0
 
       center of nuclear mass  :    1.90528142   -1.80827455    0.00032245
       center of nuclear charge:    1.85843692   -1.83895033    0.00028890

              +--------------------------------------------------+
              |               basis set information              |
              +--------------------------------------------------+

              we will work with the 1s 3p 5d 7f 9g ... basis set
              ...i.e. with spherical basis functions...

   type   atoms  prim   cont   basis
   ---------------------------------------------------------------------------
    n        4     77     57   def2-QZVP   [7s4p3d2f1g|15s8p3d2f1g]
    h        8     33     30   def2-QZVP   [4s3p2d1f|7s3p2d1f]
    c        8     77     57   def2-QZVP   [7s4p3d2f1g|15s8p3d2f1g]
    o        4     77     57   def2-QZVP   [7s4p3d2f1g|15s8p3d2f1g]
   ---------------------------------------------------------------------------
   total:   24   1496   1152
   ---------------------------------------------------------------------------

   total number of primitive shells          :  100
   total number of contracted shells         :  352
   total number of cartesian basis functions : 1432
   total number of SCF-basis functions       : 1152


 integral neglect threshold       :  0.23E-13
 integral storage threshold THIZE :  0.10E-04
 integral storage threshold THIME :         5


 DENSITY CONVERGENCE CHECK SWITCHED ON !
 SCF CONVERGENCE IF RMS(delta[D]) <     0.1000000000E-06


 symmetry group of the molecule :   c1 

 the group has the following generators :
   c1(z)

    1 symmetry operations found

 there are 1 real representations :   a   

 maximum number of shells which are related by symmetry :  1


    mo occupation :
   irrep   mo's   occupied
    a     1152       58
 
 number of basis functions   :                   1152
 number of occupied orbitals :                     58
 

 automatic virtual orbital shift switched on 
      shift if e(lumo)-e(homo) < 0.10000000    


          ------------------------
          nuclear repulsion energy  :   1040.55250353    
          ------------------------


         -----------------
         -S,T+V- integrals
         -----------------

 1e-integrals will be neglected if expon. factor < 0.233377E-14
 
   Difference densities algorithm switched on.
   The maximal number of linear combinations of
   difference densities is                    20 .

 DIIS switched on: error vector is FDS-SDF
 Max. Iterations for DIIS is     :   5
 DIIS matrix (see manual) 
    Scaling factor of diagonals  :  1.200
    threshold for scaling factor :  0.000

 scf convergence criterion : increment of total energy < .1000000D-08
                  and increment of one-electron energy < .1000000D-05

  MOs are in ASCII format !


 reading orbital data $scfmo  from file mos
 orbital characterization : scfconv=9

 DSCF restart information will be dumped onto file mos

 
                                              current damping :  0.700
 ITERATION  ENERGY          1e-ENERGY        2e-ENERGY     RMS[dD(SAO)]   TOL
   1  -825.11758908927    -3196.5194438     1330.8493512    0.000D+00 0.233D-13
          max. resid. norm for Fia-block=  2.612D-01 for orbital      1a         
          max. resid. fock norm         =  8.018D-01 for orbital   1152a         
          Delta Eig. =    62.2334844118 eV 
 
                                              current damping :  0.650
 ITERATION  ENERGY          1e-ENERGY        2e-ENERGY     RMS[dD(SAO)]   TOL
   2  -825.28002144285    -3194.3313576     1328.4988326    0.680D-03 0.153D-13
          Norm of current diis error:  1.2174    
          max. resid. norm for Fia-block=  1.128D-01 for orbital      4a         
          max. resid. fock norm         =  3.308D-01 for orbital   1152a         
          Delta Eig. =    26.9306736163 eV 
 
                                              current damping :  0.600
 ITERATION  ENERGY          1e-ENERGY        2e-ENERGY     RMS[dD(SAO)]   TOL
   3  -825.31363835614    -3194.5663135     1328.7001716    0.300D-03 0.116D-13
          Norm of current diis error: 0.54920    
          max. resid. norm for Fia-block=  4.770D-02 for orbital      4a         
          max. resid. fock norm         =  1.280D-01 for orbital   1152a         
          Delta Eig. =    10.0521329070 eV 
 
                                              current damping :  0.650
 ITERATION  ENERGY          1e-ENERGY        2e-ENERGY     RMS[dD(SAO)]   TOL
   4  -825.32207128556    -3194.4671395     1328.5925647    0.159D-03 0.102D-13
          Norm of current diis error: 0.22859    
          max. resid. norm for Fia-block=  1.740D-02 for orbital      3a         
          max. resid. fock norm         =  4.955D-02 for orbital   1150a         
          Delta Eig. =     4.1067564465 eV 
 
                                              current damping :  0.500
 ITERATION  ENERGY          1e-ENERGY        2e-ENERGY     RMS[dD(SAO)]   TOL
   5  -825.32373903255    -3194.4273757     1328.5511332    0.577D-04 0.943D-14
          Norm of current diis error: 0.10363    
          max. resid. norm for Fia-block=  6.978D-03 for orbital      4a         
          max. resid. fock norm         =  1.922D-02 for orbital   1151a         
 mo-orthogonalization: Cholesky decomposition
          Delta Eig. =     1.6790789404 eV 
 
                                              current damping :  0.350
 ITERATION  ENERGY          1e-ENERGY        2e-ENERGY     RMS[dD(SAO)]   TOL
   6  -825.32418199211    -3194.4147644     1328.5380789    0.308D-04 0.876D-14
          Norm of current diis error: 0.45045E-01
          max. resid. norm for Fia-block=  2.398D-03 for orbital     47a         
          max. resid. fock norm         =  6.437D-03 for orbital   1150a         
          Delta Eig. =     0.6338289361 eV 
 
                                              current damping :  0.200
 ITERATION  ENERGY          1e-ENERGY        2e-ENERGY     RMS[dD(SAO)]   TOL
   7  -825.32429457468    -3194.4123271     1328.5355290    0.144D-04 0.811D-14
          Norm of current diis error: 0.18742E-01
          max. resid. norm for Fia-block=  1.091D-03 for orbital     40a         
          max. resid. fock norm         =  1.657D-03 for orbital   1151a         
          Delta Eig. =     0.1822676373 eV 
 
                                              current damping :  0.050
 ITERATION  ENERGY          1e-ENERGY        2e-ENERGY     RMS[dD(SAO)]   TOL
   8  -825.32432034183    -3194.4112486     1328.5344247    0.654D-05 0.752D-14
          Norm of current diis error: 0.70483E-02
          max. resid. norm for Fia-block=  4.619D-04 for orbital     58a         
          max. resid. fock norm         =  5.185D-04 for orbital     60a         
          Delta Eig. =     0.0392096887 eV 
 
                                              current damping :  0.100
 ITERATION  ENERGY          1e-ENERGY        2e-ENERGY     RMS[dD(SAO)]   TOL
   9  -825.32432484614    -3194.4121484     1328.5353201    0.275D-05 0.704D-14
          Norm of current diis error: 0.22100E-02
          max. resid. norm for Fia-block=  1.358D-04 for orbital     58a         
          max. resid. fock norm         =  1.462D-04 for orbital     60a         
          Delta Eig. =     0.0076765745 eV 
 
                                              current damping :  0.150
 ITERATION  ENERGY          1e-ENERGY        2e-ENERGY     RMS[dD(SAO)]   TOL
  10  -825.32432521018    -3194.4118508     1328.5350221    0.779D-06 0.679D-14
          Norm of current diis error: 0.86182E-03
          max. resid. norm for Fia-block=  5.550D-05 for orbital     56a         
          max. resid. fock norm         =  6.873D-05 for orbital     56a         
 mo-orthogonalization: Cholesky decomposition
          Delta Eig. =     0.0039127656 eV 
 
                                              current damping :  0.200
 ITERATION  ENERGY          1e-ENERGY        2e-ENERGY     RMS[dD(SAO)]   TOL
  11  -825.32432525424    -3194.4121977     1328.5353689    0.236D-06 0.667D-14
          Norm of current diis error: 0.42357E-03
          max. resid. norm for Fia-block=  1.922D-05 for orbital     58a         
          max. resid. fock norm         =  2.334D-05 for orbital     54a         
          Delta Eig. =     0.0011246715 eV 
 
                                              current damping :  0.250
 ITERATION  ENERGY          1e-ENERGY        2e-ENERGY     RMS[dD(SAO)]   TOL
  12  -825.32432526389    -3194.4121740     1328.5353452    0.114D-06 0.654D-14
          Norm of current diis error: 0.14663E-03
          max. resid. norm for Fia-block=  1.107D-05 for orbital     55a         
          max. resid. fock norm         =  1.116D-05 for orbital     55a         
          Delta Eig. =     0.0001722436 eV 

 DENSITY CONVERGED !

 
                                              current damping :  0.300
 ITERATION  ENERGY          1e-ENERGY        2e-ENERGY     RMS[dD(SAO)]   TOL
  13  -825.32432526587    -3194.4121786     1328.5353498    0.544D-07 0.664D-14
          Norm of current diis error: 0.70245E-04
          max. resid. norm for Fia-block=  6.049D-06 for orbital     55a         
          max. resid. fock norm         =  6.103D-06 for orbital     55a         
          Delta Eig. =     0.0000916515 eV 

 DENSITY CONVERGED !

 
                                              current damping :  0.150
 ITERATION  ENERGY          1e-ENERGY        2e-ENERGY     RMS[dD(SAO)]   TOL
  14  -825.32432526636    -3194.4121866     1328.5353578    0.302D-07 0.663D-14
          Norm of current diis error: 0.31404E-04
          max. resid. norm for Fia-block=  2.942D-06 for orbital     55a         
          max. resid. fock norm         =  2.967D-06 for orbital     55a         
          Delta Eig. =     0.0000540302 eV 

 ENERGY & DENSITY CONVERGED !

 
                                              current damping :  0.050
 ITERATION  ENERGY          1e-ENERGY        2e-ENERGY     RMS[dD(SAO)]   TOL
  15  -825.32432526642    -3194.4121870     1328.5353582    0.178D-07 0.664D-14
          max. resid. norm for Fia-block=  4.722D-07 for orbital     51a         
          max. resid. fock norm         =  5.583D-07 for orbital     42a         

 convergence criteria satisfied after    15 iterations


                  ------------------------------------------ 
                 |  total energy      =   -825.32432526642  |
                  ------------------------------------------ 
                 :  kinetic energy    =    824.18459741322  :
                 :  potential energy  =  -1649.50892267965  :
                 :  virial theorem    =      1.99861905457  :
                 :  wavefunction norm =      1.00000000000  :
                  .......................................... 


 orbitals $scfmo  will be written to file mos

    irrep                 54a         55a         56a         57a         58a   
 eigenvalues H         -0.44228    -0.44147    -0.43414    -0.37437    -0.35713
            eV         -12.0352    -12.0130    -11.8135    -10.1871     -9.7180
 occupation              2.0000      2.0000      2.0000      2.0000      2.0000 

    irrep                 59a         60a         61a         62a         63a   
 eigenvalues H          0.07168     0.07509     0.09381     0.10323     0.11362
            eV           1.9505      2.0433      2.5526      2.8090      3.0918
 
 
 
 
 ==============================================================================
                           electrostatic moments
 ==============================================================================

 reference point for electrostatic moments:    0.00000   0.00000   0.00000

 
              nuc           elec       ->  total
 ------------------------------------------------------------------------------
                          charge      
 ------------------------------------------------------------------------------
         116.000000    -116.000000      -0.000000
 
 ------------------------------------------------------------------------------
                       dipole moment  
 ------------------------------------------------------------------------------
   x     215.578682    -218.979391      -3.400708
   y    -213.318238     212.489280      -0.828958
   z       0.033512      -0.035225      -0.001712
 
   | dipole moment | =     3.5003 a.u. =     8.8968 debye 
 
 ------------------------------------------------------------------------------
                     quadrupole moment
 ------------------------------------------------------------------------------
  xx    4116.796029   -4192.309554     -75.513525
  yy    1543.082257   -1610.307056     -67.224799
  zz       0.000903     -69.190152     -69.189249
  xy   -1577.762475    1577.442457      -0.320017
  xz      -0.147389       0.166345       0.018956
  yz      -0.121668       0.125110       0.003442
 
     1/3  trace=     -70.642525
     anisotropy=       7.522473
 
 ==============================================================================
 


    ------------------------------------------------------------------------
         total  cpu-time :  7 hours 28 minutes and 47 seconds
         total wall-time : 28 minutes and 46 seconds
    ------------------------------------------------------------------------

   ****  dscf : all done  ****


    2019-04-02 17:16:42.079 

