           Doing BLAS/Lapack in the master proc. with  8 CPUs.
           SMPCPUS    set: Shared-memory Parallelization with   8 CPUs.

           SMP Parallelization Reference:
           C. van Wullen, J. Comput. Chem. 32 (2011) 1195--1201
 operating system is UNIX !

 ridft (c-18-412.gp.local) : TURBOMOLE V7.2 ( 21454 ) 4 Oct 2017 at 12:48:15
 Copyright (C) 2017 TURBOMOLE GmbH, Karlsruhe


    2018-04-28 21:00:15.671 



                                  r i d f t

                        DFT program with RI approximation 
                                for coulomb part 




                                                 
                                 References:     
                                                 
          TURBOMOLE:                             
              R. Ahlrichs, M. Baer, M. Haeser, H. Horn, and
              C. Koelmel
              Electronic structure calculations on workstation
              computers: the program system TURBOMOLE
              Chem. Phys. Lett. 162: 165 (1989)
          Density Functional:                              
              O. Treutler and R. Ahlrichs                      
              Efficient Molecular Numerical Integration Schemes
              J. Chem. Phys. 102: 346 (1995)                   
          Parallel Version:                                
              Performance of parallel TURBOMOLE for Density    
              Functional Calculations                          
              M. v. Arnim and R. Ahlrichs                      
              J. Comp. Chem. 19: 1746 (1998)                   
          RI-J Method:                                     
              Auxiliary Basis Sets to approximate Coulomb      
              Potentials                                       
              Chem. Phys. Lett. 240: 283 (1995)                
              K. Eichkorn, O. Treutler, H. Oehm, M. Haeser     
              and R. Ahlrichs                                  
              Chem. Phys. Lett. 242: 652 (1995)                
                                                           
              Auxiliary Basis Sets for Main Row Atoms and their
              Use to approximate Coulomb Potentials            
              K. Eichkorn, F. Weigend, O. Treutler and         
              R. Ahlrichs                                      
              Theo. Chem. Acc. 97: 119 (1997)                   
                                                           
              Accurate Coulomb-fitting basis sets for H to Rn 
              F. Weigend                                        
              Phys. Chem. Chem. Phys. 8: 1057 (2006)            
                                                           
          Multipole accelerated RI-J (MARI-J):             
              Fast evaluation of the Coulomb potential for     
              electron densities using multipole accelerated   
              resolution of identity approximation             
              M. Sierka, A. Hogekamp and R. Ahlrichs           
              J. Chem. Phys. 118: 9136 (2003)                  
          RI-JK Method:                                     
              A fully direct RI-HF algorithm: Implementation,
              optimised auxiliary basis sets, demonstration of
              accuracy and efficiency                         
              F. Weigend                                      
              Phys. Chem. Chem. Phys. 4: 4285 (2002)           
          Two-component HF and DFT with spin-orbit coupling:  
              Self-consistent treatment of spin-orbit         
              interactions with efficient Hartree-Fock and    
              density functional methods                      
              M. K. Armbruster, F. Weigend, C. van Wüllen and 
              W. Klopper                                      
              Phys. Chem. Chem. Phys. 10: 1748 (2008)         
          Relativistic all-electron 2c calculations           
              An efficient implementation of two-component    
              relativistic exact-decoupling methods for large 
              molecules                                       
              D. Peng, N. Middendorf, F. Weigend, M. Reiher   
              J. Chem. Phys. 138, 184105 (2013)               
                                         




              +--------------------------------------------------+
              |      general information about current run       |
              +--------------------------------------------------+

 

 DENSITY CONVERGENCE CHECK SWITCHED ON !
 SCF CONVERGENCE IF RMS(delta[D]) <     0.1000000000E-06

 TPSS meta-GGA functional
 exchange:    LDA + TPSS
 correlation: LDA (PW) + TPSS
 A DFT calculation using the RI-J approximation will be carried out.
 Allocatable memory for RI due to $ricore (MB):                  5000


              +--------------------------------------------------+
              | Atomic coordinate, charge and isotop information |
              +--------------------------------------------------+

                    atomic coordinates            atom    charge  isotop
          4.03846890    0.47624381    0.85740428    o      8.000     0
          5.40068707    1.66166831    1.02826351    h      1.000     0
          5.01939581   -1.99053978    1.29937681    c      6.000     0
          3.44606368   -3.29215987    1.09986601    h      1.000     0
          6.46718824   -2.49886240   -0.07422879    h      1.000     0
          5.79058745   -2.18225098    3.19975058    h      1.000     0
 
       center of nuclear mass  :    4.56190510   -0.70690534    1.08045759
       center of nuclear charge:    4.64048070   -0.80249406    1.10606369

              +--------------------------------------------------+
              |               basis set information              |
              +--------------------------------------------------+

              we will work with the 1s 3p 5d 7f 9g ... basis set
              ...i.e. with spherical basis functions...

   type   atoms  prim   cont   basis
   ---------------------------------------------------------------------------
    o        1     77     55   cc-pVQZ   [5s4p3d2f1g|21s6p3d2f1g]
    h        4     32     30   cc-pVQZ   [4s3p2d1f|6s3p2d1f]
    c        1     77     55   cc-pVQZ   [5s4p3d2f1g|21s6p3d2f1g]
   ---------------------------------------------------------------------------
   total:    6    282    230
   ---------------------------------------------------------------------------

   total number of primitive shells          :   78
   total number of contracted shells         :   70
   total number of cartesian basis functions :  280
   total number of SCF-basis functions       :  230


 integral neglect threshold       :  0.12E-12
 integral storage threshold THIZE :  0.10E-04
 integral storage threshold THIME :         5

 RI-J AUXILIARY BASIS SET information:

              we will work with the 1s 3p 5d 7f 9g ... basis set
              ...i.e. with spherical basis functions...

   type   atoms  prim   cont   basis
   ---------------------------------------------------------------------------
    o        1     70     49   cc-pVQZ   [6s4p3d1f1g|12s5p4d2f1g]
    h        4     16     11   cc-pVQZ   [3s1p1d|5s2p1d]
    c        1     70     49   cc-pVQZ   [6s4p3d1f1g|12s5p4d2f1g]
   ---------------------------------------------------------------------------
   total:    6    204    142
   ---------------------------------------------------------------------------

   total number of primitive shells          :   56
   total number of contracted shells         :   50
   total number of cartesian basis functions :  170
   total number of SCF-basis functions       :  142


 symmetry group of the molecule :   c1 

 the group has the following generators :
   c1(z)

    1 symmetry operations found

 there are 1 real representations :   a   

 maximum number of shells which are related by symmetry :  1


    mo occupation :
   irrep   mo's   occupied
    a      230        9
 
 number of basis functions   :                    230
 number of occupied orbitals :                      9
 
  
           ------------------
           density functional
           ------------------
 TPSS meta-GGA functional
 exchange:    LDA + TPSS
 correlation: LDA (PW) + TPSS

 iterations will be done with small grid
  
 spherical integration : Lebedev's spherical grid
 spherical gridsize    :                     5
    i.e. gridpoints    :                   590
 value for diffuse not defined
 radial integration    : Chebyshev 2nd kind (scaling 3)
 radial gridsize       :                     8
 integration cells     :                     6
 partition function    : becke
 partition sharpness   :                     3
  

 biggest AO integral is expected to be     4.785886462
  
           ------------------------
               RI-J - INFORMATION
           ------------------------
 Contributions to RI integral batches: 
  neglected integral batches:                    23
  direct contribution:                            0
  memory contribution:                  2462
 Memory core needed for (P|Q) and Cholesky      1 MByte
 Memory core minimum needed except of (P|Q)     1 MByte
 Total minimum memory core needed (sum)         1 MByte
  
 ****************************************
 Memory allocated for RI-J    52 MByte
 ****************************************
                                            

          ------------------------
          nuclear repulsion energy  :   40.3037887413    
          ------------------------


         -----------------
         -S,T+V- integrals
         -----------------

 1e-integrals will be neglected if expon. factor < 0.119356E-13
 Difference densities >>NOT<< switched on in parallel ridft!

 DIIS switched on: error vector is FDS-SDF
 Max. Iterations for DIIS is     :   4
 DIIS matrix (see manual) 
    Scaling factor of diagonals  :  1.200
    threshold for scaling factor :  0.000

 scf convergence criterion : increment of total energy < .1000000D-08
                  and increment of one-electron energy < .1000000D-05

  MOs are in ASCII format !


 automatic virtual orbital shift switched on 
      shift if e(lumo)-e(homo) < 0.10000000    


 reading orbital data $scfmo  from file mos
 orbital characterization : expanded
 mo provided and orthogonalized by Cholesky decomposition

 DSCF restart information will be dumped onto file mos


 Starting SCF iterations

          Overall gridpoints after grid construction =         27156

 ITERATION  ENERGY          1e-ENERGY        2e-ENERGY     RMS[dD(SAO)]   TOL
   1  -115.33684924658    -236.18642041     80.545782425    0.000D+00 0.119D-12
                            Exc = -15.4154634936     Coul =  95.9612459183    
                              N = 18.000003883    
                            current damping = 0.700
 
          max. resid. norm for Fia-block=  3.073D-01 for orbital      1a         
          max. resid. fock norm         =  1.189D+01 for orbital    210a         

 ITERATION  ENERGY          1e-ENERGY        2e-ENERGY     RMS[dD(SAO)]   TOL
   2  -115.70762166272    -236.40772872     80.396318317    0.496D-02 0.119D-12
                            Exc = -15.4099084814     Coul =  95.8062267984    
                              N = 18.000003614    
                            current damping = 0.650
 
          Norm of current diis error:  1.6639    
          max. resid. norm for Fia-block=  1.377D-01 for orbital      1a         
          max. resid. fock norm         =  2.155D-01 for orbital    221a         

 ITERATION  ENERGY          1e-ENERGY        2e-ENERGY     RMS[dD(SAO)]   TOL
   3  -115.77018289566    -237.02254047     80.948568834    0.252D-02 0.119D-12
                            Exc = -15.5178751486     Coul =  96.4664439827    
                              N = 18.000003168    
                            current damping = 0.600
 
          Norm of current diis error: 0.78280    
          max. resid. norm for Fia-block=  5.452D-02 for orbital      1a         
          max. resid. fock norm         =  5.681D-02 for orbital      1a         

 ITERATION  ENERGY          1e-ENERGY        2e-ENERGY     RMS[dD(SAO)]   TOL
   4  -115.78908207512    -236.79458029     80.701709471    0.156D-02 0.119D-12
                            Exc = -15.5060409509     Coul =  96.2077504218    
                              N = 18.000003118    
                            current damping = 0.650
 
          Norm of current diis error: 0.29818    
          max. resid. norm for Fia-block=  2.211D-02 for orbital      4a         
          max. resid. fock norm         =  3.868D-02 for orbital    212a         

 ITERATION  ENERGY          1e-ENERGY        2e-ENERGY     RMS[dD(SAO)]   TOL
   5  -115.79222766744    -237.07448674     80.978470332    0.634D-03 0.119D-12
                            Exc = -15.5472502365     Coul =  96.5257205683    
                              N = 18.000003008    
                            current damping = 0.700
 
          Norm of current diis error: 0.12742    
          max. resid. norm for Fia-block=  9.341D-03 for orbital      8a         
          max. resid. fock norm         =  1.224D-02 for orbital    212a         
          mo-orthogonalization: Cholesky decomposition

 ITERATION  ENERGY          1e-ENERGY        2e-ENERGY     RMS[dD(SAO)]   TOL
   6  -115.79287498911    -236.99387035     80.897206615    0.405D-03 0.119D-12
                            Exc = -15.5414010336     Coul =  96.4386076483    
                              N = 18.000002964    
                            current damping = 0.750
 
          Norm of current diis error: 0.48951E-01
          max. resid. norm for Fia-block=  3.612D-03 for orbital      4a         
          max. resid. fock norm         =  8.735D-03 for orbital    224a         

 ITERATION  ENERGY          1e-ENERGY        2e-ENERGY     RMS[dD(SAO)]   TOL
   7  -115.79297607390    -237.01890491     80.922140098    0.143D-03 0.119D-12
                            Exc = -15.5455814372     Coul =  96.4677215352    
                              N = 18.000002939    
                            current damping = 0.800
 
          Norm of current diis error: 0.20209E-01
          max. resid. norm for Fia-block=  1.515D-03 for orbital      4a         
          max. resid. fock norm         =  3.674D-03 for orbital    224a         

 ITERATION  ENERGY          1e-ENERGY        2e-ENERGY     RMS[dD(SAO)]   TOL
   8  -115.79299432633    -237.02157118     80.924788115    0.667D-04 0.119D-12
                            Exc = -15.5464880903     Coul =  96.4712762057    
                              N = 18.000002928    
                            current damping = 0.650
 
          Norm of current diis error: 0.90752E-02
          max. resid. norm for Fia-block=  6.942D-04 for orbital      4a         
          max. resid. fock norm         =  1.711D-03 for orbital    212a         

 ITERATION  ENERGY          1e-ENERGY        2e-ENERGY     RMS[dD(SAO)]   TOL
   9  -115.79299823057    -237.02471257     80.927925599    0.321D-04 0.119D-12
                            Exc = -15.5471317521     Coul =  96.4750573515    
                              N = 18.000002923    
                            current damping = 0.500
 
          Norm of current diis error: 0.35516E-02
          max. resid. norm for Fia-block=  2.794D-04 for orbital      8a         
          max. resid. fock norm         =  6.466D-04 for orbital    212a         

 ITERATION  ENERGY          1e-ENERGY        2e-ENERGY     RMS[dD(SAO)]   TOL
  10  -115.79299886153    -237.02353199     80.926744392    0.159D-04 0.119D-12
                            Exc = -15.5471128184     Coul =  96.4738572099    
                              N = 18.000002920    
                            current damping = 0.550
 
          Norm of current diis error: 0.15449E-02
          max. resid. norm for Fia-block=  1.200D-04 for orbital      5a         
          max. resid. fock norm         =  3.163D-04 for orbital    212a         
          mo-orthogonalization: Cholesky decomposition

 ITERATION  ENERGY          1e-ENERGY        2e-ENERGY     RMS[dD(SAO)]   TOL
  11  -115.79299893910    -237.02560073     80.928813050    0.353D-05 0.119D-12
                            Exc = -15.5473997931     Coul =  96.4762128434    
                              N = 18.000002919    
                            current damping = 0.600
 
          Norm of current diis error: 0.69230E-03
          max. resid. norm for Fia-block=  4.471D-05 for orbital      8a         
          max. resid. fock norm         =  7.910D-05 for orbital    224a         

 ITERATION  ENERGY          1e-ENERGY        2e-ENERGY     RMS[dD(SAO)]   TOL
  12  -115.79299895649    -237.02511608     80.928328383    0.213D-05 0.119D-12
                            Exc = -15.5473516316     Coul =  96.4756800143    
                              N = 18.000002919    
                            current damping = 0.650
 
          Norm of current diis error: 0.15859E-03
          max. resid. norm for Fia-block=  1.258D-05 for orbital      8a         
          max. resid. fock norm         =  3.845D-05 for orbital    212a         

 ITERATION  ENERGY          1e-ENERGY        2e-ENERGY     RMS[dD(SAO)]   TOL
  13  -115.79299895769    -237.02505119     80.928263493    0.650D-06 0.119D-12
                            Exc = -15.5473502256     Coul =  96.4756137190    
                              N = 18.000002919    
                            current damping = 0.500
 
          Norm of current diis error: 0.66510E-04
          max. resid. norm for Fia-block=  5.141D-06 for orbital      4a         
          max. resid. fock norm         =  1.618D-05 for orbital    212a         

 ITERATION  ENERGY          1e-ENERGY        2e-ENERGY     RMS[dD(SAO)]   TOL
  14  -115.79299895791    -237.02508531     80.928297609    0.263D-06 0.119D-12
                            Exc = -15.5473554126     Coul =  96.4756530219    
                              N = 18.000002919    
                            current damping = 0.550
 
          Norm of current diis error: 0.23238E-04
          max. resid. norm for Fia-block=  1.792D-06 for orbital      4a         
          max. resid. fock norm         =  6.265D-06 for orbital    212a         

 ENERGY & DENSITY CONVERGED !

          Overall gridpoints after grid construction =         91047

 ITERATION  ENERGY          1e-ENERGY        2e-ENERGY     RMS[dD(SAO)]   TOL
  15  -115.79298669085    -237.02508533     80.928309898    0.839D-07 0.119D-12
                            Exc = -15.5473441624     Coul =  96.4756540600    
                              N = 17.999999982    
                            current damping = 0.400
 
          Norm of current diis error: 0.80075E-05
          max. resid. norm for Fia-block=  6.537D-07 for orbital      8a         
          max. resid. fock norm         =  2.160D-06 for orbital    224a         

 End of SCF iterations

   convergence criteria satisfied after    15 iterations


                  ------------------------------------------ 
                 |  total energy      =   -115.79298669085  |
                  ------------------------------------------ 
                 :  kinetic energy    =    115.37325706557  :
                 :  potential energy  =   -231.16624375642  :
                 :  virial theorem    =      1.99637517230  :
                 :  wavefunction norm =      1.00000000000  :
                  .......................................... 


 <geterg> : there is no data group $energy 


 <skperg> : $end is missing 


 orbitals $scfmo  will be written to file mos

    irrep                  5a          6a          7a          8a          9a   
 eigenvalues H         -0.46235    -0.39830    -0.38352    -0.29727    -0.23221
            eV         -12.5814    -10.8384    -10.4362     -8.0891     -6.3189
 occupation              2.0000      2.0000      2.0000      2.0000      2.0000 

    irrep                 10a         11a         12a         13a         14a   
 eigenvalues H          0.00924     0.04365     0.08878     0.08884     0.11778
            eV           0.2514      1.1877      2.4158      2.4176      3.2050
 
 
 
 
 ==============================================================================
                           electrostatic moments
 ==============================================================================

 reference point for electrostatic moments:    0.00000   0.00000   0.00000

 
              nuc           elec       ->  total
 ------------------------------------------------------------------------------
                          charge      
 ------------------------------------------------------------------------------
          18.000000     -18.000000      -0.000000
 
 ------------------------------------------------------------------------------
                       dipole moment  
 ------------------------------------------------------------------------------
   x      83.528653     -82.930671       0.597981
   y     -14.444893      14.324386      -0.120507
   z      19.909146     -19.772542       0.136604
 
   | dipole moment | =     0.6251 a.u. =     1.5889 debye 
 
 ------------------------------------------------------------------------------
                     quadrupole moment
 ------------------------------------------------------------------------------
  xx     398.038057    -402.488903      -4.450846
  yy      50.193948     -58.681757      -8.487809
  zz      28.522362     -38.488079      -9.965717
  xy     -75.729446      76.159048       0.429602
  xz      94.225245     -93.022176       1.203069
  yz     -20.961573      20.876118      -0.085455
 
     1/3  trace=      -7.634791
     anisotropy=       5.418971
 
 ==============================================================================
 


    ------------------------------------------------------------------------
         total  cpu-time :  1 minutes and 42 seconds
         total wall-time :   8.93 seconds
    ------------------------------------------------------------------------

   ****  ridft : all done  ****


    2018-04-28 21:00:24.585 

