STARTING dscf ON 64 PROCESSORS!
RUNNING PROGRAM /beegfs/modfac/apps/TURBOMOLE/7.2.1-official/bin/em64t-unknown-linux-gnu_mpi/dscf_mpi.
PLEASE WAIT UNTIL dscf HAS FINISHED.
Look for the output in slave1.output.
MACHINEFILE is ./hostlist
Warning: Permanently added '10.201.4.15' (RSA) to the list of known hosts.
 this is node-proc. number 1 running on node c-4-11.local
 the total number of node-proc. spawned is  65
  parallel platform: MPP or cluster with fast interconnect

 dscf (c-4-11.local) : TURBOMOLE V7.2 ( 21471 ) 7 Nov 2017 at 16:15:16
 Copyright (C) 2017 TURBOMOLE GmbH, Karlsruhe


    2018-02-24 03:49:50.593 


 SCF run will be profiled !



                             d s c f - program

                   idea & directorship : reinhart ahlrichs
                   program development : marco haeser
                                         michael baer
                           dft version : oliver treutler
           parallelized version : malte v. arnim, gina corongiu, GMD 


                          quantum chemistry group
                          universitaet  karlsruhe
                                  germany




                          References             
                                                 
          TURBOMOLE:                             
              R. Ahlrichs, M. Baer, M. Haeser, H. Horn, and
              C. Koelmel
              Electronic structure calculations on workstation
              computers: the program system TURBOMOLE
              Chem. Phys. Lett. 162: 165 (1989)
          Density Functional:                              
              O. Treutler and R. Ahlrichs                      
              Efficient Molecular Numerical Integration Schemes
              J. Chem. Phys. 102: 346 (1995)                   
          Parallel Version:                                
              Performance of parallel TURBOMOLE for Density    
              Functional Calculations                          
              M. v. Arnim and R. Ahlrichs                      
              J. Comp. Chem. 19: 1746 (1998)                   
                                         




              +--------------------------------------------------+
              | Atomic coordinate, charge and isotop information |
              +--------------------------------------------------+

                    atomic coordinates            atom    charge  isotop
          1.29102896    2.23612775    5.35940406    c      6.000     0
          2.68444732    0.00000000    5.34775669    c      6.000     0
          1.29102896   -2.23612775    5.35940406    c      6.000     0
         -1.34222366   -2.32479958    5.34775669    c      6.000     0
         -2.58205792    0.00000000    5.35940406    c      6.000     0
         -1.34222366    2.32479958    5.34775669    c      6.000     0
         -2.74209098    4.74944089    5.17369628    c      6.000     0
         -3.47165961    6.01309083    7.36565771    c      6.000     0
         -4.78742225    8.29205857    7.27396970    c      6.000     0
         -5.38971831    9.33526596    4.93546263    c      6.000     0
         -4.67190964    8.09198487    2.72597715    c      6.000     0
         -3.35880377    5.81761878    2.81855316    c      6.000     0
         -2.74209098   -4.74944089    5.17369628    c      6.000     0
         -3.35880377   -5.81761878    2.81855316    c      6.000     0
         -4.67190964   -8.09198487    2.72597715    c      6.000     0
         -5.38971831   -9.33526596    4.93546263    c      6.000     0
         -4.78742225   -8.29205857    7.27396970    c      6.000     0
         -3.47165961   -6.01309083    7.36565771    c      6.000     0
          5.48418196    0.00000000    5.17369628    c      6.000     0
          6.71760754    0.00000000    2.81855316    c      6.000     0
          9.34381929    0.00000000    2.72597715    c      6.000     0
         10.77943663    0.00000000    4.93546263    c      6.000     0
          9.57484449    0.00000000    7.27396970    c      6.000     0
          6.94331922    0.00000000    7.36565771    c      6.000     0
          2.56458096    4.44198451    5.30703898    f      9.000     0
         -5.12916191    0.00000000    5.30703898    f      9.000     0
          2.56458096   -4.44198451    5.30703898    f      9.000     0
         -2.90994879    5.04017915    9.65013893    f      9.000     0
         -5.47160393    9.47709601    9.40663768    f      9.000     0
         -6.65606662   11.52864556    4.82298142    f      9.000     0
         -5.29334333    9.16833958    0.50315811    f      9.000     0
         -5.29334333   -9.16833958    0.50315811    f      9.000     0
         -6.65606662  -11.52864556    4.82298142    f      9.000     0
         -5.47160393   -9.47709601    9.40663768    f      9.000     0
         -2.90994879   -5.04017915    9.65013893    f      9.000     0
         10.58668665    0.00000000    0.50315811    f      9.000     0
         13.31213324    0.00000000    4.82298142    f      9.000     0
         10.94320787    0.00000000    9.40663768    f      9.000     0
          5.81989758    0.00000000    9.65013893    f      9.000     0
         -2.31430977    4.00850211   -0.59311698    i     53.000     0
         -2.31430977   -4.00850211   -0.59311698    i     53.000     0
          4.62861954    0.00000000   -0.59311698    i     53.000     0
          3.99736087   -2.26207693   -6.71003915    c      6.000     0
          5.92734477   -2.13882400   -5.97866723    h      1.000     0
          4.10220135   -2.23748546   -8.79875309    h      1.000     0
          2.68582355   -4.65198285   -5.81886616    c      6.000     0
          3.64577576   -6.31466884   -6.59083899    h      1.000     0
          2.75180702   -4.76626957   -3.75428211    h      1.000     0
         -0.03966435   -4.59285453   -6.71003915    c      6.000     0
         -0.11338143   -4.67135331   -8.79875309    h      1.000     0
         -1.11139647   -6.20264315   -5.97866723    h      1.000     0
         -3.95769652   -2.33077759   -6.71003915    c      6.000     0
         -4.81594831   -4.06381915   -5.97866723    h      1.000     0
         -3.98881992   -2.43386785   -8.79875309    h      1.000     0
         -5.37164710    0.00000000   -5.81886616    c      6.000     0
         -5.50361403    0.00000000   -3.75428211    h      1.000     0
         -7.29155151    0.00000000   -6.59083899    h      1.000     0
         -3.95769652    2.33077759   -6.71003915    c      6.000     0
         -3.98881992    2.43386785   -8.79875309    h      1.000     0
         -4.81594831    4.06381915   -5.97866723    h      1.000     0
         -0.03966435    4.59285453   -6.71003915    c      6.000     0
         -1.11139647    6.20264315   -5.97866723    h      1.000     0
         -0.11338143    4.67135331   -8.79875309    h      1.000     0
          2.68582355    4.65198285   -5.81886616    c      6.000     0
          3.64577576    6.31466884   -6.59083899    h      1.000     0
          2.75180702    4.76626957   -3.75428211    h      1.000     0
          3.99736087    2.26207693   -6.71003915    c      6.000     0
          4.10220135    2.23748546   -8.79875309    h      1.000     0
          5.92734477    2.13882400   -5.97866723    h      1.000     0
          0.00000000    0.00000000   -6.67566966    c      6.000     0
          0.00000000    0.00000000   -8.80405438    h      1.000     0
          2.63800737    0.00000000   -5.79850129    n      7.000     0
         -1.31900368   -2.28458139   -5.79850129    n      7.000     0
         -1.31900368    2.28458139   -5.79850129    n      7.000     0
 
       center of nuclear mass  :   -0.00000000   -0.00000000    1.58306549
       center of nuclear charge:   -0.00000000    0.00000000    1.50316784

              +--------------------------------------------------+
              |               basis set information              |
              +--------------------------------------------------+

              we will work with the 1s 3p 5d 7f 9g ... basis set
              ...i.e. with spherical basis functions...

   type   atoms  prim   cont   basis
   ---------------------------------------------------------------------------
    c       34     77     55   cc-pVQZ   [5s4p3d2f1g|21s6p3d2f1g]
    f       15     77     55   cc-pVQZ   [5s4p3d2f1g|21s6p3d2f1g]
    i        3    161     67   cc-pVQZ-PP   [6s6p4d2f1g|24s18p12d2f1g]
    h       19     32     30   cc-pVQZ   [4s3p2d1f|6s3p2d1f]
    n        3     77     55   cc-pVQZ   [5s4p3d2f1g|21s6p3d2f1g]
   ---------------------------------------------------------------------------
   total:   74   5095   3631
   ---------------------------------------------------------------------------

   total number of primitive shells          :  168
   total number of contracted shells         : 1027
   total number of cartesian basis functions : 4554
   total number of SCF-basis functions       : 3631


 integral neglect threshold       :  0.73E-14
 integral storage threshold THIZE :  0.10E-04
 integral storage threshold THIME :         5


 DENSITY CONVERGENCE CHECK SWITCHED ON !
 SCF CONVERGENCE IF RMS(delta[D]) <     0.1000000000E-06

 number of unique ecp types :                     1

 symmetry group of the molecule :   c1 

 the group has the following generators :
   c1(z)

    1 symmetry operations found

 there are 1 real representations :   a   

 maximum number of shells which are related by symmetry :  1


    mo occupation :
   irrep   mo's   occupied
    a     3631      227
 
 number of basis functions   :                   3631
 number of occupied orbitals :                    227
 

 automatic virtual orbital shift switched on 
      shift if e(lumo)-e(homo) < 0.10000000    


   ----> a dscf RESTART run will be tried ! <----

 $restart flag 'dscf' will be switched off !


 keyword $2e-ints_shell_statistics missing in file <control>

 ! One task per shell generated
  No pre-computed optimal task distribution found
  ... using automatic task generation

          ------------------------
          nuclear repulsion energy  :   10416.1814926    
          ------------------------


         -----------------
         -S,T+V- integrals
         -----------------

 1e-integrals will be neglected if expon. factor < 0.733852E-15


          ----------------
          -ecp-  integrals
          ----------------
 
   Difference densities algorithm switched on.
   The maximal number of linear combinations of
   difference densities is                    20 .

 DIIS switched on: error vector is FDS-SDF
 Max. Iterations for DIIS is     :   5
 DIIS matrix (see manual) 
    Scaling factor of diagonals  :  1.200
    threshold for scaling factor :  0.000

 scf convergence criterion : increment of total energy < .1000000D-08
                  and increment of one-electron energy < .1000000D-05

  MOs are in ASCII format !


 reading orbital data $scfmo  from file mos
 orbital characterization : scfdump=7

 DSCF restart information will be dumped onto file mos


 complete restart information read in from $restartd
 iterations from earlier run will be continued
no density matrices from previous iterations found
  expected :                      7  found :                      0
 
                                              current damping :  0.150
 ITERATION  ENERGY          1e-ENERGY        2e-ENERGY     RMS[dD(SAO)]   TOL
   8  -3838.5074447392    -26397.785995     12143.097058    0.585D-02 0.732D-14
          max. resid. norm for Fia-block=  1.180D-03 for orbital    213a         
          max. resid. fock norm         =  3.365D-03 for orbital   3484a         
          Delta Eig. =     0.2491079205 eV 
 
                                              current damping :  0.200
 ITERATION  ENERGY          1e-ENERGY        2e-ENERGY     RMS[dD(SAO)]   TOL
   9  -3838.5075287575    -26397.897538     12143.208516    0.700D-05 0.464D-14
          Norm of current diis error: 0.24519E-01
          max. resid. norm for Fia-block=  7.783D-04 for orbital    203a         
          max. resid. fock norm         =  1.011D-03 for orbital    203a         
          Delta Eig. =     0.0428707746 eV 
 
                                              current damping :  0.250
 ITERATION  ENERGY          1e-ENERGY        2e-ENERGY     RMS[dD(SAO)]   TOL
  10  -3838.5075624936    -26397.851511     12143.162456    0.370D-05 0.387D-14
          Norm of current diis error: 0.14809E-01
          max. resid. norm for Fia-block=  8.933D-04 for orbital    218a         
          max. resid. fock norm         =  1.063D-03 for orbital    231a         
 mo-orthogonalization: Cholesky decomposition
          Delta Eig. =     0.0168852777 eV 
 
                                              current damping :  0.300
 ITERATION  ENERGY          1e-ENERGY        2e-ENERGY     RMS[dD(SAO)]   TOL
  11  -3838.5075856670    -26397.856823     12143.167745    0.361D-05 0.308D-14
          Norm of current diis error: 0.69124E-02
          max. resid. norm for Fia-block=  5.905D-04 for orbital    218a         
          max. resid. fock norm         =  7.051D-04 for orbital    232a         
          Delta Eig. =     0.0082025039 eV 
 
                                              current damping :  0.150
 ITERATION  ENERGY          1e-ENERGY        2e-ENERGY     RMS[dD(SAO)]   TOL
  12  -3838.5075917850    -26397.862086     12143.173001    0.204D-05 0.272D-14
          Norm of current diis error: 0.30449E-02
          max. resid. norm for Fia-block=  2.813D-04 for orbital    217a         
          max. resid. fock norm         =  3.362D-04 for orbital    231a         
          Delta Eig. =     0.0045301646 eV 
 
                                              current damping :  0.200
 ITERATION  ENERGY          1e-ENERGY        2e-ENERGY     RMS[dD(SAO)]   TOL
  13  -3838.5075930307    -26397.859630     12143.170544    0.981D-06 0.250D-14
          Norm of current diis error: 0.13223E-02
          max. resid. norm for Fia-block=  1.088D-04 for orbital    218a         
          max. resid. fock norm         =  1.302D-04 for orbital    232a         
          Delta Eig. =     0.0023566902 eV 
 
                                              current damping :  0.250
 ITERATION  ENERGY          1e-ENERGY        2e-ENERGY     RMS[dD(SAO)]   TOL
  14  -3838.5075932351    -26397.861237     12143.172151    0.353D-06 0.237D-14
          Norm of current diis error: 0.68468E-03
          max. resid. norm for Fia-block=  5.317D-05 for orbital    218a         
          max. resid. fock norm         =  6.352D-05 for orbital    231a         
          Delta Eig. =     0.0009915857 eV 
 
                                              current damping :  0.300
 ITERATION  ENERGY          1e-ENERGY        2e-ENERGY     RMS[dD(SAO)]   TOL
  15  -3838.5075932893    -26397.859446     12143.170360    0.191D-06 0.228D-14
          Norm of current diis error: 0.34194E-03
          max. resid. norm for Fia-block=  2.437D-05 for orbital    217a         
          max. resid. fock norm         =  2.882D-05 for orbital    232a         
 mo-orthogonalization: Cholesky decomposition
          Delta Eig. =     0.0006275680 eV 

 DENSITY CONVERGED !

 
                                              current damping :  0.350
 ITERATION  ENERGY          1e-ENERGY        2e-ENERGY     RMS[dD(SAO)]   TOL
  16  -3838.5075933020    -26397.860056     12143.170970    0.992D-07 0.222D-14
          Norm of current diis error: 0.13338E-03
          max. resid. norm for Fia-block=  9.815D-06 for orbital    218a         
          max. resid. fock norm         =  1.151D-05 for orbital    231a         
          Delta Eig. =     0.0001429770 eV 

 DENSITY CONVERGED !

 
                                              current damping :  0.400
 ITERATION  ENERGY          1e-ENERGY        2e-ENERGY     RMS[dD(SAO)]   TOL
  17  -3838.5075933045    -26397.859799     12143.170713    0.432D-07 0.217D-14
          Norm of current diis error: 0.55424E-04
          max. resid. norm for Fia-block=  3.699D-06 for orbital    203a         
          max. resid. fock norm         =  3.824D-06 for orbital    203a         
          Delta Eig. =     0.0000915691 eV 

 ENERGY & DENSITY CONVERGED !

 
                                              current damping :  0.450
 ITERATION  ENERGY          1e-ENERGY        2e-ENERGY     RMS[dD(SAO)]   TOL
  18  -3838.5075933048    -26397.859801     12143.170715    0.171D-07 0.214D-14
          max. resid. norm for Fia-block=  1.250D-06 for orbital    203a         
          max. resid. fock norm         =  1.269D-06 for orbital    203a         

 convergence criteria satisfied after    18 iterations


                  ------------------------------------------ 
                 |  total energy      =  -3838.50759330485  |
                  ------------------------------------------ 
                 :  kinetic energy    =   3283.67717856124  :
                 :  potential energy  =  -7122.18477186609  :
                 :  virial theorem    =      1.85545673644  :
                 :  wavefunction norm =      1.00000000000  :
                  .......................................... 


 <geterg> : there is no data group $energy 


 <skperg> : $end is missing 


 orbitals $scfmo  will be written to file mos

    irrep                223a        224a        225a        226a        227a   
 eigenvalues H         -0.36323    -0.36323    -0.35098    -0.35098    -0.34321
            eV          -9.8841     -9.8841     -9.5508     -9.5508     -9.3393
 occupation              2.0000      2.0000      2.0000      2.0000      2.0000 

    irrep                228a        229a        230a        231a        232a   
 eigenvalues H          0.07819     0.07819     0.08354     0.08394     0.08394
            eV           2.1277      2.1277      2.2732      2.2841      2.2841
 
 
 
 
 ==============================================================================
                           electrostatic moments
 ==============================================================================

 reference point for electrostatic moments:    0.00000   0.00000   0.00000

 
              nuc           elec       ->  total
 ------------------------------------------------------------------------------
                          charge      
 ------------------------------------------------------------------------------
         454.000000    -454.000000      -0.000000
 
 ------------------------------------------------------------------------------
                       dipole moment  
 ------------------------------------------------------------------------------
   x      -0.000000       0.000000       0.000000
   y       0.000000       0.000000       0.000000
   z     858.526122    -862.170218      -3.644096
 
   | dipole moment | =     3.6441 a.u. =     9.2624 debye 
 
 ------------------------------------------------------------------------------
                     quadrupole moment
 ------------------------------------------------------------------------------
  xx   12052.426718  -12345.271022    -292.844303
  yy   12052.426718  -12345.271022    -292.844303
  zz   14615.844160  -14896.201153    -280.356993
  xy       0.000000      -0.000000      -0.000000
  xz      -0.000000       0.000000       0.000000
  yz      -0.000000      -0.000000      -0.000000
 
     1/3  trace=    -288.681867
     anisotropy=      12.487310
 
 ==============================================================================
 

    dscf profiling
  --------------------------------------------------------------------
             module   cpu total (s)       %  wall total (s)       %

          dscf.total          9398.8  100.00          8330.5  100.00
        dscf.prepare            40.6    0.43            40.8    0.49
      prepare.oneint             1.2    0.01             1.2    0.01
     prepare.moinput            11.1    0.12            11.1    0.13
     moinput_orthmos            27.6    0.29            27.8    0.33
            dscf.scf          9355.1   99.54          8286.2   99.47
             scf.pre             2.8    0.03             2.8    0.03
        scf.makedmat            18.0    0.19            19.0    0.23
          scf.shloop          7552.1   80.35          7549.0   90.62
          shloop_omp          7549.7   80.33          7546.6   90.59
          scf.symcar             2.7    0.03             2.7    0.03
        scf.makefock             3.6    0.04             5.7    0.07
          scf.newerg             0.2    0.00             0.2    0.00
          scf.newcnv           348.8    3.71            45.0    0.54
           scf.fdiag           826.6    8.79           104.1    1.25
         diag_tritrn           225.9    2.40            28.4    0.34
          diag_rdiag           594.7    6.33            74.8    0.90
          scf.modump           480.7    5.11           476.6    5.72
           ortho_all            70.3    0.75            31.6    0.38
            scf.post            48.1    0.51            49.2    0.59
        dscf.postscf             3.1    0.03             3.4    0.04
 


    ------------------------------------------------------------------------
         total  cpu-time :  2 hours 36 minutes and 39 seconds
         total wall-time :  2 hours 18 minutes and 52 seconds
    ------------------------------------------------------------------------

   ****  dscf : all done  ****


    2018-02-24 06:08:41.370 

