           Doing BLAS/Lapack in the master proc. with  8 CPUs.
           SMPCPUS    set: Shared-memory Parallelization with   8 CPUs.

           SMP Parallelization Reference:
           C. van Wullen, J. Comput. Chem. 32 (2011) 1195--1201
 operating system is UNIX !

 ridft (c-12-21.gp.local) : TURBOMOLE V7.2 ( 21454 ) 4 Oct 2017 at 12:48:15
 Copyright (C) 2017 TURBOMOLE GmbH, Karlsruhe


    2018-04-28 21:00:07.469 



                                  r i d f t

                        DFT program with RI approximation 
                                for coulomb part 




                                                 
                                 References:     
                                                 
          TURBOMOLE:                             
              R. Ahlrichs, M. Baer, M. Haeser, H. Horn, and
              C. Koelmel
              Electronic structure calculations on workstation
              computers: the program system TURBOMOLE
              Chem. Phys. Lett. 162: 165 (1989)
          Density Functional:                              
              O. Treutler and R. Ahlrichs                      
              Efficient Molecular Numerical Integration Schemes
              J. Chem. Phys. 102: 346 (1995)                   
          Parallel Version:                                
              Performance of parallel TURBOMOLE for Density    
              Functional Calculations                          
              M. v. Arnim and R. Ahlrichs                      
              J. Comp. Chem. 19: 1746 (1998)                   
          RI-J Method:                                     
              Auxiliary Basis Sets to approximate Coulomb      
              Potentials                                       
              Chem. Phys. Lett. 240: 283 (1995)                
              K. Eichkorn, O. Treutler, H. Oehm, M. Haeser     
              and R. Ahlrichs                                  
              Chem. Phys. Lett. 242: 652 (1995)                
                                                           
              Auxiliary Basis Sets for Main Row Atoms and their
              Use to approximate Coulomb Potentials            
              K. Eichkorn, F. Weigend, O. Treutler and         
              R. Ahlrichs                                      
              Theo. Chem. Acc. 97: 119 (1997)                   
                                                           
              Accurate Coulomb-fitting basis sets for H to Rn 
              F. Weigend                                        
              Phys. Chem. Chem. Phys. 8: 1057 (2006)            
                                                           
          Multipole accelerated RI-J (MARI-J):             
              Fast evaluation of the Coulomb potential for     
              electron densities using multipole accelerated   
              resolution of identity approximation             
              M. Sierka, A. Hogekamp and R. Ahlrichs           
              J. Chem. Phys. 118: 9136 (2003)                  
          RI-JK Method:                                     
              A fully direct RI-HF algorithm: Implementation,
              optimised auxiliary basis sets, demonstration of
              accuracy and efficiency                         
              F. Weigend                                      
              Phys. Chem. Chem. Phys. 4: 4285 (2002)           
          Two-component HF and DFT with spin-orbit coupling:  
              Self-consistent treatment of spin-orbit         
              interactions with efficient Hartree-Fock and    
              density functional methods                      
              M. K. Armbruster, F. Weigend, C. van Wüllen and 
              W. Klopper                                      
              Phys. Chem. Chem. Phys. 10: 1748 (2008)         
          Relativistic all-electron 2c calculations           
              An efficient implementation of two-component    
              relativistic exact-decoupling methods for large 
              molecules                                       
              D. Peng, N. Middendorf, F. Weigend, M. Reiher   
              J. Chem. Phys. 138, 184105 (2013)               
                                         




              +--------------------------------------------------+
              |      general information about current run       |
              +--------------------------------------------------+

 

 DENSITY CONVERGENCE CHECK SWITCHED ON !
 SCF CONVERGENCE IF RMS(delta[D]) <     0.1000000000E-06

 TPSS meta-GGA functional
 exchange:    LDA + TPSS
 correlation: LDA (PW) + TPSS
 A DFT calculation using the RI-J approximation will be carried out.
 Allocatable memory for RI due to $ricore (MB):                  5000


              +--------------------------------------------------+
              | Atomic coordinate, charge and isotop information |
              +--------------------------------------------------+

                    atomic coordinates            atom    charge  isotop
         -1.68837811   -0.08285376   -0.08125341    n      7.000     0
          0.18320566   -0.48388223   -0.13430270    h      1.000     0
         -2.58597454   -1.76385271    0.06394404    h      1.000     0
         -2.22190687    1.43223798    2.16418465    c      6.000     0
         -4.23606037    1.83722200    2.25826930    h      1.000     0
         -1.66445103    0.57494301    3.96315083    h      1.000     0
         -1.25289924    3.23961306    2.00463880    h      1.000     0
 
       center of nuclear mass  :   -1.93087720    0.62701007    1.06501626
       center of nuclear charge:   -1.92812597    0.63430526    1.14289079

              +--------------------------------------------------+
              |               basis set information              |
              +--------------------------------------------------+

              we will work with the 1s 3p 5d 7f 9g ... basis set
              ...i.e. with spherical basis functions...

   type   atoms  prim   cont   basis
   ---------------------------------------------------------------------------
    n        1     77     55   cc-pVQZ   [5s4p3d2f1g|21s6p3d2f1g]
    h        5     32     30   cc-pVQZ   [4s3p2d1f|6s3p2d1f]
    c        1     77     55   cc-pVQZ   [5s4p3d2f1g|21s6p3d2f1g]
   ---------------------------------------------------------------------------
   total:    7    314    260
   ---------------------------------------------------------------------------

   total number of primitive shells          :   78
   total number of contracted shells         :   80
   total number of cartesian basis functions :  315
   total number of SCF-basis functions       :  260


 integral neglect threshold       :  0.11E-12
 integral storage threshold THIZE :  0.10E-04
 integral storage threshold THIME :         5

 RI-J AUXILIARY BASIS SET information:

              we will work with the 1s 3p 5d 7f 9g ... basis set
              ...i.e. with spherical basis functions...

   type   atoms  prim   cont   basis
   ---------------------------------------------------------------------------
    n        1     70     49   cc-pVQZ   [6s4p3d1f1g|12s5p4d2f1g]
    h        5     16     11   cc-pVQZ   [3s1p1d|5s2p1d]
    c        1     70     49   cc-pVQZ   [6s4p3d1f1g|12s5p4d2f1g]
   ---------------------------------------------------------------------------
   total:    7    220    153
   ---------------------------------------------------------------------------

   total number of primitive shells          :   56
   total number of contracted shells         :   55
   total number of cartesian basis functions :  182
   total number of SCF-basis functions       :  153


 symmetry group of the molecule :   c1 

 the group has the following generators :
   c1(z)

    1 symmetry operations found

 there are 1 real representations :   a   

 maximum number of shells which are related by symmetry :  1


    mo occupation :
   irrep   mo's   occupied
    a      260        9
 
 number of basis functions   :                    260
 number of occupied orbitals :                      9
 
  
           ------------------
           density functional
           ------------------
 TPSS meta-GGA functional
 exchange:    LDA + TPSS
 correlation: LDA (PW) + TPSS

 iterations will be done with small grid
  
 spherical integration : Lebedev's spherical grid
 spherical gridsize    :                     5
    i.e. gridpoints    :                   590
 value for diffuse not defined
 radial integration    : Chebyshev 2nd kind (scaling 3)
 radial gridsize       :                     8
 integration cells     :                     7
 partition function    : becke
 partition sharpness   :                     3
  

 biggest AO integral is expected to be     4.161848376
  
           ------------------------
               RI-J - INFORMATION
           ------------------------
 Contributions to RI integral batches: 
  neglected integral batches:                    41
  direct contribution:                            0
  memory contribution:                  3199
 Memory core needed for (P|Q) and Cholesky      1 MByte
 Memory core minimum needed except of (P|Q)     1 MByte
 Total minimum memory core needed (sum)         1 MByte
  
 ****************************************
 Memory allocated for RI-J    70 MByte
 ****************************************
                                            

          ------------------------
          nuclear repulsion energy  :   42.1059322594    
          ------------------------


         -----------------
         -S,T+V- integrals
         -----------------

 1e-integrals will be neglected if expon. factor < 0.106094E-13
 Difference densities >>NOT<< switched on in parallel ridft!

 DIIS switched on: error vector is FDS-SDF
 Max. Iterations for DIIS is     :   4
 DIIS matrix (see manual) 
    Scaling factor of diagonals  :  1.200
    threshold for scaling factor :  0.000

 scf convergence criterion : increment of total energy < .1000000D-08
                  and increment of one-electron energy < .1000000D-05

  MOs are in ASCII format !


 automatic virtual orbital shift switched on 
      shift if e(lumo)-e(homo) < 0.10000000    


 reading orbital data $scfmo  from file mos
 orbital characterization : expanded
 mo provided and orthogonalized by Cholesky decomposition

 DSCF restart information will be dumped onto file mos


 Starting SCF iterations

          Overall gridpoints after grid construction =         30703

 ITERATION  ENERGY          1e-ENERGY        2e-ENERGY     RMS[dD(SAO)]   TOL
   1  -95.527621402323    -210.17675516     72.543201496    0.000D+00 0.106D-12
                            Exc = -13.9543254282     Coul =  86.4975269238    
                              N = 17.999989673    
                            current damping = 0.700
 
          max. resid. norm for Fia-block=  2.763D-01 for orbital      1a         
          max. resid. fock norm         =  8.627D+00 for orbital    244a         

 ITERATION  ENERGY          1e-ENERGY        2e-ENERGY     RMS[dD(SAO)]   TOL
   2  -95.828240870304    -211.14962642     73.215453293    0.483D-02 0.106D-12
                            Exc = -14.0900574802     Coul =  87.3055107732    
                              N = 17.999989952    
                            current damping = 0.650
 
          Norm of current diis error:  1.7354    
          max. resid. norm for Fia-block=  1.251D-01 for orbital      1a         
          max. resid. fock norm         =  1.636D-01 for orbital    256a         

 ITERATION  ENERGY          1e-ENERGY        2e-ENERGY     RMS[dD(SAO)]   TOL
   3  -95.892726533680    -211.56376555     73.565106759    0.240D-02 0.106D-12
                            Exc = -14.1821042757     Coul =  87.7472110344    
                              N = 17.999990576    
                            current damping = 0.500
 
          Norm of current diis error: 0.80066    
          max. resid. norm for Fia-block=  5.034D-02 for orbital      1a         
          max. resid. fock norm         =  5.262D-02 for orbital      1a         

 ITERATION  ENERGY          1e-ENERGY        2e-ENERGY     RMS[dD(SAO)]   TOL
   4  -95.912969659775    -211.65863222     73.639730301    0.165D-02 0.106D-12
                            Exc = -14.2179816012     Coul =  87.8577119020    
                              N = 17.999991054    
                            current damping = 0.350
 
          Norm of current diis error: 0.27722    
          max. resid. norm for Fia-block=  1.932D-02 for orbital      4a         
          max. resid. fock norm         =  2.516D-02 for orbital    258a         

 ITERATION  ENERGY          1e-ENERGY        2e-ENERGY     RMS[dD(SAO)]   TOL
   5  -95.916029354026    -211.84542097     73.823459352    0.807D-03 0.106D-12
                            Exc = -14.2521417477     Coul =  88.0756011000    
                              N = 17.999991486    
                            current damping = 0.200
 
          Norm of current diis error: 0.10594    
          max. resid. norm for Fia-block=  9.034D-03 for orbital      9a         
          max. resid. fock norm         =  9.107D-03 for orbital      9a         
          mo-orthogonalization: Cholesky decomposition

 ITERATION  ENERGY          1e-ENERGY        2e-ENERGY     RMS[dD(SAO)]   TOL
   6  -95.916391874745    -211.72961773     73.707293598    0.457D-03 0.106D-12
                            Exc = -14.2427016718     Coul =  87.9499952700    
                              N = 17.999991546    
                            current damping = 0.250
 
          Norm of current diis error: 0.64755E-01
          max. resid. norm for Fia-block=  2.278D-03 for orbital      5a         
          max. resid. fock norm         =  4.041D-03 for orbital    258a         

 ITERATION  ENERGY          1e-ENERGY        2e-ENERGY     RMS[dD(SAO)]   TOL
   7  -95.916477490076    -211.79800061     73.775590865    0.408D-04 0.106D-12
                            Exc = -14.2507444090     Coul =  88.0263352737    
                              N = 17.999991610    
                            current damping = 0.300
 
          Norm of current diis error: 0.71543E-02
          max. resid. norm for Fia-block=  4.144D-04 for orbital      7a         
          max. resid. fock norm         =  9.054D-04 for orbital    248a         

 ITERATION  ENERGY          1e-ENERGY        2e-ENERGY     RMS[dD(SAO)]   TOL
   8  -95.916478334170    -211.79179540     73.769384805    0.148D-04 0.106D-12
                            Exc = -14.2503694218     Coul =  88.0197542271    
                              N = 17.999991612    
                            current damping = 0.350
 
          Norm of current diis error: 0.43532E-02
          max. resid. norm for Fia-block=  1.574D-04 for orbital      7a         
          max. resid. fock norm         =  3.475D-04 for orbital    256a         

 ITERATION  ENERGY          1e-ENERGY        2e-ENERGY     RMS[dD(SAO)]   TOL
   9  -95.916478751853    -211.79599858     73.773587571    0.343D-05 0.106D-12
                            Exc = -14.2507893154     Coul =  88.0243768865    
                              N = 17.999991616    
                            current damping = 0.400
 
          Norm of current diis error: 0.48397E-03
          max. resid. norm for Fia-block=  3.508D-05 for orbital      9a         
          max. resid. fock norm         =  9.685D-05 for orbital    256a         

 ITERATION  ENERGY          1e-ENERGY        2e-ENERGY     RMS[dD(SAO)]   TOL
  10  -95.916478758685    -211.79616126     73.773750240    0.972D-06 0.106D-12
                            Exc = -14.2508065781     Coul =  88.0245568179    
                              N = 17.999991617    
                            current damping = 0.250
 
          Norm of current diis error: 0.13832E-03
          max. resid. norm for Fia-block=  9.940D-06 for orbital      5a         
          max. resid. fock norm         =  3.988D-05 for orbital    256a         
          mo-orthogonalization: Cholesky decomposition

 ITERATION  ENERGY          1e-ENERGY        2e-ENERGY     RMS[dD(SAO)]   TOL
  11  -95.916478759291    -211.79632700     73.773915983    0.327D-06 0.106D-12
                            Exc = -14.2508257375     Coul =  88.0247417203    
                              N = 17.999991617    
                            current damping = 0.100
 
          Norm of current diis error: 0.32934E-04
          max. resid. norm for Fia-block=  3.237D-06 for orbital      9a         
          max. resid. fock norm         =  8.569D-06 for orbital    256a         

 ITERATION  ENERGY          1e-ENERGY        2e-ENERGY     RMS[dD(SAO)]   TOL
  12  -95.916478759320    -211.79626935     73.773858334    0.126D-06 0.106D-12
                            Exc = -14.2508201300     Coul =  88.0246784636    
                              N = 17.999991617    
                            current damping = 0.150
 
          Norm of current diis error: 0.25960E-04
          max. resid. norm for Fia-block=  9.596D-07 for orbital      5a         
          max. resid. fock norm         =  2.263D-06 for orbital    248a         

 DENSITY CONVERGED !


 ITERATION  ENERGY          1e-ENERGY        2e-ENERGY     RMS[dD(SAO)]   TOL
  13  -95.916478759332    -211.79628884     73.773877820    0.294D-07 0.106D-12
                            Exc = -14.2508224414     Coul =  88.0247002618    
                              N = 17.999991617    
                            current damping = 0.200
 
          Norm of current diis error: 0.90220E-05
          max. resid. norm for Fia-block=  3.967D-07 for orbital      7a         
          max. resid. fock norm         =  8.296D-07 for orbital    256a         

 ENERGY & DENSITY CONVERGED !

          Overall gridpoints after grid construction =        103932

 ITERATION  ENERGY          1e-ENERGY        2e-ENERGY     RMS[dD(SAO)]   TOL
  14  -95.916455923265    -211.79629441     73.773906232    0.769D-08 0.106D-12
                            Exc = -14.2508000296     Coul =  88.0247062614    
                              N = 18.000000221    
                            current damping = 0.050
 
          Norm of current diis error: 0.24849E-05
          max. resid. norm for Fia-block=  9.985D-08 for orbital      6a         
          max. resid. fock norm         =  1.658D-07 for orbital    248a         

 End of SCF iterations

   convergence criteria satisfied after    14 iterations


                  ------------------------------------------ 
                 |  total energy      =    -95.91645592327  |
                  ------------------------------------------ 
                 :  kinetic energy    =     95.51804296946  :
                 :  potential energy  =   -191.43449889272  :
                 :  virial theorem    =      1.99584625026  :
                 :  wavefunction norm =      1.00000000000  :
                  .......................................... 


 <geterg> : there is no data group $energy 


 <skperg> : $end is missing 


 orbitals $scfmo  will be written to file mos

    irrep                  5a          6a          7a          8a          9a   
 eigenvalues H         -0.44620    -0.39793    -0.36124    -0.32984    -0.20224
            eV         -12.1418    -10.8282     -9.8300     -8.9756     -5.5032
 occupation              2.0000      2.0000      2.0000      2.0000      2.0000 

    irrep                 10a         11a         12a         13a         14a   
 eigenvalues H          0.01211     0.04865     0.06844     0.08997     0.10555
            eV           0.3295      1.3239      1.8623      2.4483      2.8721
 
 
 
 
 ==============================================================================
                           electrostatic moments
 ==============================================================================

 reference point for electrostatic moments:    0.00000   0.00000   0.00000

 
              nuc           elec       ->  total
 ------------------------------------------------------------------------------
                          charge      
 ------------------------------------------------------------------------------
          18.000000     -18.000000      -0.000000
 
 ------------------------------------------------------------------------------
                       dipole moment  
 ------------------------------------------------------------------------------
   x     -34.706268      34.864966       0.158698
   y      11.417495     -11.698282      -0.280787
   z      20.572034     -20.174975       0.397059
 
   | dipole moment | =     0.5115 a.u. =     1.3002 debye 
 
 ------------------------------------------------------------------------------
                     quadrupole moment
 ------------------------------------------------------------------------------
  xx      78.580755     -88.683225     -10.102470
  yy      29.902242     -39.741657      -9.839415
  zz      52.995434     -64.428266     -11.432833
  xy     -26.440405      27.141077       0.700672
  xz     -46.755604      45.709602      -1.046001
  yz      31.518871     -31.056447       0.462424
 
     1/3  trace=     -10.458239
     anisotropy=       2.754217
 
 ==============================================================================
 


    ------------------------------------------------------------------------
         total  cpu-time :  2 minutes and 34 seconds
         total wall-time :  16.11 seconds
    ------------------------------------------------------------------------

   ****  ridft : all done  ****


    2018-04-28 21:00:23.569 

