STARTING dscf ON 16 PROCESSORS!
RUNNING PROGRAM /beegfs/modfac/apps/TURBOMOLE/7.2.1-official/bin/em64t-unknown-linux-gnu_mpi/dscf_mpi.
PLEASE WAIT UNTIL dscf HAS FINISHED.
Look for the output in slave1.output.
MACHINEFILE is ./hostlist
 this is node-proc. number 1 running on node c-9-412.local
 the total number of node-proc. spawned is  17
  parallel platform: MPP or cluster with fast interconnect

 dscf (c-9-412.local) : TURBOMOLE V7.2 ( 21471 ) 7 Nov 2017 at 16:15:16
 Copyright (C) 2017 TURBOMOLE GmbH, Karlsruhe


    2018-02-14 09:48:32.370 


 SCF run will be profiled !



                             d s c f - program

                   idea & directorship : reinhart ahlrichs
                   program development : marco haeser
                                         michael baer
                           dft version : oliver treutler
           parallelized version : malte v. arnim, gina corongiu, GMD 


                          quantum chemistry group
                          universitaet  karlsruhe
                                  germany




                          References             
                                                 
          TURBOMOLE:                             
              R. Ahlrichs, M. Baer, M. Haeser, H. Horn, and
              C. Koelmel
              Electronic structure calculations on workstation
              computers: the program system TURBOMOLE
              Chem. Phys. Lett. 162: 165 (1989)
          Density Functional:                              
              O. Treutler and R. Ahlrichs                      
              Efficient Molecular Numerical Integration Schemes
              J. Chem. Phys. 102: 346 (1995)                   
          Parallel Version:                                
              Performance of parallel TURBOMOLE for Density    
              Functional Calculations                          
              M. v. Arnim and R. Ahlrichs                      
              J. Comp. Chem. 19: 1746 (1998)                   
                                         




              +--------------------------------------------------+
              | Atomic coordinate, charge and isotop information |
              +--------------------------------------------------+

                    atomic coordinates            atom    charge  isotop
          0.10397084   -0.57094557    0.00000000    c      6.000     0
          2.16537761    1.42973255    0.00000000    c      6.000     0
         -2.53225590    0.65965107    0.00000000    c      6.000     0
         -4.64276757   -1.32068883    0.00000000    c      6.000     0
          4.79507559    0.18838895    0.00000000    n      7.000     0
          5.01849715   -0.93885871    1.56447329    h      1.000     0
          5.01849715   -0.93885871   -1.56447329    h      1.000     0
          0.29974724   -1.78254798    1.67441466    h      1.000     0
          0.29974724   -1.78254798   -1.67441466    h      1.000     0
         -2.71111309    1.88116971    1.66543865    h      1.000     0
         -2.71111309    1.88116971   -1.66543865    h      1.000     0
          6.22164914    1.50482758    0.00000000    h      1.000     0
          2.11529866    2.62350788    1.68322353    h      1.000     0
          2.11529866    2.62350788   -1.68322353    h      1.000     0
         -6.49123897   -0.39999725    0.00000000    h      1.000     0
         -4.53233533   -2.52875514   -1.67625490    h      1.000     0
         -4.53233533   -2.52875514    1.67625490    h      1.000     0
 
       center of nuclear mass  :    0.11263941    0.06237192    0.00000000
       center of nuclear charge:    0.09865299    0.04928093    0.00000000

              +--------------------------------------------------+
              |               basis set information              |
              +--------------------------------------------------+

              we will work with the 1s 3p 5d 7f 9g ... basis set
              ...i.e. with spherical basis functions...

   type   atoms  prim   cont   basis
   ---------------------------------------------------------------------------
    c        4     77     57   def2-QZVP   [7s4p3d2f1g|15s8p3d2f1g]
    n        1     77     57   def2-QZVP   [7s4p3d2f1g|15s8p3d2f1g]
    h       12     33     30   def2-QZVP   [4s3p2d1f|7s3p2d1f]
   ---------------------------------------------------------------------------
   total:   17    781    645
   ---------------------------------------------------------------------------

   total number of primitive shells          :   71
   total number of contracted shells         :  205
   total number of cartesian basis functions :  780
   total number of SCF-basis functions       :  645


 integral neglect threshold       :  0.43E-13
 integral storage threshold THIZE :  0.10E-04
 integral storage threshold THIME :         5


 DENSITY CONVERGENCE CHECK SWITCHED ON !
 SCF CONVERGENCE IF RMS(delta[D]) <     0.1000000000E-06


 symmetry group of the molecule :   c1 

 the group has the following generators :
   c1(z)

    1 symmetry operations found

 there are 1 real representations :   a   

 maximum number of shells which are related by symmetry :  1


    mo occupation :
   irrep   mo's   occupied
    a      645       21
 
 number of basis functions   :                    645
 number of occupied orbitals :                     21
 

 automatic virtual orbital shift switched on 
      shift if e(lumo)-e(homo) < 0.10000000    


 keyword $2e-ints_shell_statistics missing in file <control>

 ! One task per shell generated
  No pre-computed optimal task distribution found
  ... using automatic task generation

          ------------------------
          nuclear repulsion energy  :   193.749089951    
          ------------------------


         -----------------
         -S,T+V- integrals
         -----------------

 1e-integrals will be neglected if expon. factor < 0.428457E-14
 
   Difference densities algorithm switched on.
   The maximal number of linear combinations of
   difference densities is                    20 .

 DIIS switched on: error vector is FDS-SDF
 Max. Iterations for DIIS is     :   5
 DIIS matrix (see manual) 
    Scaling factor of diagonals  :  1.200
    threshold for scaling factor :  0.000

 scf convergence criterion : increment of total energy < .1000000D-08
                  and increment of one-electron energy < .1000000D-05

  MOs are in ASCII format !


 reading orbital data $scfmo  from file mos
 orbital characterization : scfconv=9

 DSCF restart information will be dumped onto file mos

 
                                              current damping :  0.300
 ITERATION  ENERGY          1e-ENERGY        2e-ENERGY     RMS[dD(SAO)]   TOL
   1  -212.78754442033    -661.91065974     255.37402537    0.000D+00 0.427D-13
          max. resid. norm for Fia-block=  3.797D-04 for orbital     14a         
          max. resid. fock norm         =  1.120D-02 for orbital    632a         
          Delta Eig. =     4.4650668255 eV 
 
                                              current damping :  0.250
 ITERATION  ENERGY          1e-ENERGY        2e-ENERGY     RMS[dD(SAO)]   TOL
   2  -212.78754492793    -661.91066426     255.37402938    0.697D-05 0.271D-13
          Norm of current diis error: 0.13547E-02
          max. resid. norm for Fia-block=  1.128D-04 for orbital     14a         
          max. resid. fock norm         =  2.586D-03 for orbital    632a         
          Delta Eig. =     1.0714687594 eV 
 
                                              current damping :  0.200
 ITERATION  ENERGY          1e-ENERGY        2e-ENERGY     RMS[dD(SAO)]   TOL
   3  -212.78754497446    -661.91058353     255.37394861    0.251D-05 0.212D-13
          Norm of current diis error: 0.30944E-03
          max. resid. norm for Fia-block=  2.522D-05 for orbital     15a         
          max. resid. fock norm         =  5.180D-04 for orbital    632a         
          Delta Eig. =     0.2232976100 eV 
 
                                              current damping :  0.250
 ITERATION  ENERGY          1e-ENERGY        2e-ENERGY     RMS[dD(SAO)]   TOL
   4  -212.78754497702    -661.91060209     255.37396717    0.628D-06 0.188D-13
          Norm of current diis error: 0.61025E-04
          max. resid. norm for Fia-block=  4.637D-06 for orbital     15a         
          max. resid. fock norm         =  8.627D-05 for orbital    632a         
          Delta Eig. =     0.0357020335 eV 
 
                                              current damping :  0.300
 ITERATION  ENERGY          1e-ENERGY        2e-ENERGY     RMS[dD(SAO)]   TOL
   5  -212.78754497713    -661.91059429     255.37395937    0.112D-06 0.173D-13
          Norm of current diis error: 0.16435E-04
          max. resid. norm for Fia-block=  1.081D-06 for orbital     15a         
          max. resid. fock norm         =  1.730D-05 for orbital    632a         
 mo-orthogonalization: Cholesky decomposition
          Delta Eig. =     0.0068718280 eV 

 ENERGY & DENSITY CONVERGED !

 
                                              current damping :  0.350
 ITERATION  ENERGY          1e-ENERGY        2e-ENERGY     RMS[dD(SAO)]   TOL
   6  -212.78754497714    -661.91059657     255.37396164    0.230D-07 0.163D-13
          max. resid. norm for Fia-block=  2.760D-07 for orbital     15a         
          max. resid. fock norm         =  3.980D-06 for orbital    632a         

 convergence criteria satisfied after     6 iterations


                  ------------------------------------------ 
                 |  total energy      =   -212.78754497714  |
                  ------------------------------------------ 
                 :  kinetic energy    =    212.42669868149  :
                 :  potential energy  =   -425.21424365863  :
                 :  virial theorem    =      1.99830419447  :
                 :  wavefunction norm =      1.00000000000  :
                  .......................................... 


 orbitals $scfmo  will be written to file mos

    irrep                 17a         18a         19a         20a         21a   
 eigenvalues H         -0.69228    -0.66912    -0.62606    -0.61536    -0.61088
            eV         -18.8380    -18.2078    -17.0360    -16.7449    -16.6230
 occupation              2.0000      2.0000      2.0000      2.0000      2.0000 

    irrep                 22a         23a         24a         25a         26a   
 eigenvalues H         -0.09188    -0.04049    -0.03904    -0.02657     0.00767
            eV          -2.5002     -1.1017     -1.0625     -0.7229      0.2088
 
 
 
 
 ==============================================================================
                           electrostatic moments
 ==============================================================================

 reference point for electrostatic moments:    0.00000   0.00000   0.00000

 
              nuc           elec       ->  total
 ------------------------------------------------------------------------------
                          charge      
 ------------------------------------------------------------------------------
          43.000000     -42.000000       1.000000
 
 ------------------------------------------------------------------------------
                       dipole moment  
 ------------------------------------------------------------------------------
   x       4.242078      -0.666723       3.575356
   y       2.119080      -1.847432       0.271648
   z       0.000000      -0.000000      -0.000000
 
   | dipole moment | =     3.5857 a.u. =     9.1138 debye 
 
 ------------------------------------------------------------------------------
                     quadrupole moment
 ------------------------------------------------------------------------------
  xx     553.081732    -554.002770      -0.921038
  yy      71.720029     -93.581293     -21.861264
  zz      27.335998     -49.102434     -21.766436
  xy      76.598396     -75.498647       1.099749
  xz       0.000000      -0.000000      -0.000000
  yz       0.000000       0.000000       0.000000
 
     1/3  trace=     -14.849579
     anisotropy=      20.979625
 
 ==============================================================================
 

    dscf profiling
  --------------------------------------------------------------------
             module   cpu total (s)       %  wall total (s)       %

          dscf.total           139.9  100.00           131.0  100.00
        dscf.prepare             0.6    0.46             1.0    0.79
      prepare.oneint             0.0    0.02             0.0    0.03
     prepare.moinput             0.3    0.24             0.3    0.26
     moinput_orthmos             0.2    0.12             0.5    0.40
            dscf.scf           139.1   99.47           129.8   99.12
             scf.pre             0.0    0.01             0.0    0.01
        scf.makedmat             0.1    0.07             0.2    0.15
          scf.shloop           109.2   78.04           119.4   91.12
          shloop_omp           109.1   78.02           119.3   91.10
          scf.symcar             0.0    0.02             0.0    0.03
        scf.makefock             0.0    0.03             0.1    0.11
          scf.newerg             0.0    0.00             0.0    0.00
          scf.newcnv             1.0    0.73             0.1    0.11
           scf.fdiag             5.6    4.01             0.8    0.58
         diag_tritrn             0.7    0.50             0.1    0.07
          diag_rdiag             1.9    1.37             0.3    0.22
          scf.modump            18.4   13.17             7.4    5.65
           ortho_all             0.8    0.57             0.1    0.08
            scf.post             3.0    2.14             1.5    1.18
        dscf.postscf             0.1    0.07             0.1    0.09
 


    ------------------------------------------------------------------------
         total  cpu-time :  2 minutes and 22 seconds
         total wall-time :  2 minutes and 14 seconds
    ------------------------------------------------------------------------

   ****  dscf : all done  ****


    2018-02-14 09:50:43.402 

