 operating system is UNIX !
 hostname is         c-14-41.local

 ridft (c-14-41.local) : TURBOMOLE V7.0.2( ) 8 Jan 2016 at 10:54:38
 Copyright (C) 2016 TURBOMOLE GmbH, Karlsruhe


    2016-02-29 15:42:45.808 



                                  r i d f t

                        DFT program with RI approximation 
                                for coulomb part 




                                                 
                                 References:     
                                                 
          TURBOMOLE:                             
              R. Ahlrichs, M. Baer, M. Haeser, H. Horn, and
              C. Koelmel
              Electronic structure calculations on workstation
              computers: the program system TURBOMOLE
              Chem. Phys. Lett. 162: 165 (1989)
          Density Functional:                              
              O. Treutler and R. Ahlrichs                      
              Efficient Molecular Numerical Integration Schemes
              J. Chem. Phys. 102: 346 (1995)                   
          Parallel Version:                                
              Performance of parallel TURBOMOLE for Density    
              Functional Calculations                          
              M. v. Arnim and R. Ahlrichs                      
              J. Comp. Chem. 19: 1746 (1998)                   
          RI-J Method:                                     
              Auxiliary Basis Sets to approximate Coulomb      
              Potentials                                       
              Chem. Phys. Lett. 240: 283 (1995)                
              K. Eichkorn, O. Treutler, H. Oehm, M. Haeser     
              and R. Ahlrichs                                  
              Chem. Phys. Lett. 242: 652 (1995)                
                                                           
              Auxiliary Basis Sets for Main Row Atoms and their
              Use to approximate Coulomb Potentials            
              K. Eichkorn, F. Weigend, O. Treutler and         
              R. Ahlrichs                                      
              Theo. Chem. Acc. 97: 119 (1997)                   
                                                           
              Accurate Coulomb-fitting basis sets for H to Rn 
              F. Weigend                                        
              Phys. Chem. Chem. Phys. 8: 1057 (2006)            
                                                           
          Multipole accelerated RI-J (MARI-J):             
              Fast evaluation of the Coulomb potential for     
              electron densities using multipole accelerated   
              resolution of identity approximation             
              M. Sierka, A. Hogekamp and R. Ahlrichs           
              J. Chem. Phys. 118: 9136 (2003)                  
          RI-JK Method:                                     
              A fully direct RI-HF algorithm: Implementation,
              optimised auxiliary basis sets, demonstration of
              accuracy and efficiency                         
              F. Weigend                                      
              Phys. Chem. Chem. Phys. 4: 4285 (2002)           
          Two-component HF and DFT with spin-orbit coupling:  
              Self-consistent treatment of spin-orbit         
              interactions with efficient Hartree-Fock and    
              density functional methods                      
              M. K. Armbruster, F. Weigend, C. van Wüllen and 
              W. Klopper                                      
              Phys. Chem. Chem. Phys. 10: 1748 (2008)         
          Relativistic all-electron 2c calculations           
              An efficient implementation of two-component    
              relativistic exact-decoupling methods for large 
              molecules                                       
              D. Peng, N. Middendorf, F. Weigend, M. Reiher   
              J. Chem. Phys. 138, 184105 (2013)               
                                         


 


              +--------------------------------------------------+
              |      general information about current run       |
              +--------------------------------------------------+

 

 DENSITY CONVERGENCE CHECK SWITCHED ON !
 SCF CONVERGENCE IF RMS(delta[D]) <     0.1000000000E-06

 PBE functional
 exchange:    LDA + PBE
 correlation: LDA (PW) + PBE
 A DFT calculation using the RI-J approximation will be carried out.
 Allocatable memory for RI due to $ricore (MB):        8000


              +--------------------------------------------------+
              | Atomic coordinate, charge and isotop information |
              +--------------------------------------------------+

                    atomic coordinates            atom    charge  isotop
          0.26909700    0.23891807   -0.00187083    fe    26.000     0
          2.72993617    0.64180769    2.88436459    c      6.000     0
         -0.11920392   -2.67152473    2.47331136    c      6.000     0
          1.95261622   -3.12965104    0.81057913    c      6.000     0
          3.70998593   -1.08844446    1.06510634    c      6.000     0
          0.34884344   -0.32703600    3.76499586    c      6.000     0
         -2.72952043    0.22387585   -2.40097264    c      6.000     0
         -2.83878439    2.37685974   -0.78257339    c      6.000     0
         -0.57147208    3.81184217   -1.12799643    c      6.000     0
          0.95062673    2.54969409   -2.95940561    c      6.000     0
         -0.37599881    0.31603780   -3.75628422    c      6.000     0
         -1.38144649    0.96865472    5.55439643    c      6.000     0
          0.60902094   -1.62444638   -5.52843160    c      6.000     0
         -0.72767684    0.46678125    8.34841321    n      7.000     0
          0.14915608   -0.96192729   -8.32688923    n      7.000     0
         -0.84973425   -2.32321041    8.89439289    c      6.000     0
          1.87727284    1.44856957    8.94600131    c      6.000     0
         -2.66385244    1.85327332    9.90261847    c      6.000     0
          1.49840165    1.45153644   -9.00637806    c      6.000     0
          1.19287072   -3.11787804   -9.85977838    c      6.000     0
         -2.63860570   -0.67228897   -8.81744324    c      6.000     0
          3.57556971    2.40114272    3.47896691    h      1.000     0
         -1.77388592   -3.84285258    2.70913028    h      1.000     0
          2.14270377   -4.71471552   -0.46143333    h      1.000     0
          5.44250575   -0.86755437    0.01007224    h      1.000     0
         -4.13530659   -1.24631218   -2.56505756    h      1.000     0
         -4.34582209    2.82478152    0.51905108    h      1.000     0
         -0.07483315    5.51775464   -0.12434398    h      1.000     0
          2.79758836    3.11687649   -3.61517837    h      1.000     0
         -3.33264542    0.33773185    5.33779602    h      1.000     0
         -1.30942903    3.02046266    5.35489805    h      1.000     0
          2.65279755   -1.85489848   -5.36818282    h      1.000     0
         -0.30082550   -3.45440047   -5.25251268    h      1.000     0
          0.59256142   -3.28088582    7.78177883    h      1.000     0
         -0.49773497   -2.59279874   10.90791498    h      1.000     0
         -2.71986393   -3.01243133    8.37265840    h      1.000     0
          3.26127046    0.34869227    7.89092941    h      1.000     0
          1.97593544    3.43442607    8.40334755    h      1.000     0
          2.18665880    1.22499607   10.97192000    h      1.000     0
         -4.52763264    1.12257291    9.41497464    h      1.000     0
         -2.24541039    1.53712213   11.89612836    h      1.000     0
         -2.55490973    3.85738457    9.43472228    h      1.000     0
          3.48764076    1.26182683   -8.50197236    h      1.000     0
          1.27960915    1.74688173  -11.03494237    h      1.000     0
          0.64159982    3.00808496   -7.96648066    h      1.000     0
          3.20100710   -3.30256098   -9.43440103    h      1.000     0
          0.20187944   -4.83943745   -9.31189008    h      1.000     0
          0.89690182   -2.69953047  -11.85636852    h      1.000     0
         -3.34464518    0.91878485   -7.71955015    h      1.000     0
         -2.89592971   -0.32227389  -10.83293065    h      1.000     0
         -3.58964817   -2.40677410   -8.24175707    h      1.000     0
 
       center of nuclear mass  :    0.03634993    0.03599133    0.00325313
       center of nuclear charge:    0.02157483    0.02311220    0.00358613

              +--------------------------------------------------+
              |               basis set information              |
              +--------------------------------------------------+

              we will work with the 1s 3p 5d 7f 9g ... basis set
              ...i.e. with spherical basis functions...

   type   atoms  prim   cont   basis
   ---------------------------------------------------------------------------
    fe       1    476     68   cc-pVTZ   [7s6p4d2f1g|115s76p22d2f1g]
    c       18     50     30   cc-pVTZ   [4s3p2d1f|18s5p2d1f]
    n        2     50     30   cc-pVTZ   [4s3p2d1f|18s5p2d1f]
    h       30     16     14   cc-pVTZ   [3s2p1d|5s2p1d]
   ---------------------------------------------------------------------------
   total:   51   1956   1088
   ---------------------------------------------------------------------------

   total number of primitive shells          :  276
   total number of contracted shells         :  400
   total number of cartesian basis functions : 1234
   total number of SCF-basis functions       : 1088


 integral neglect threshold       :  0.27E-13
 integral storage threshold THIZE :  0.10E-04
 integral storage threshold THIME :         5

 RI-J AUXILIARY BASIS SET information:

              we will work with the 1s 3p 5d 7f 9g ... basis set
              ...i.e. with spherical basis functions...

   type   atoms  prim   cont   basis
   ---------------------------------------------------------------------------
    fe       1    107     89   def2-QZVPP   [8s5p5d2f3g|19s5p5d3f3g]
    c       18     70     49   cc-pVTZ   [6s4p3d1f1g|12s5p4d2f1g]
    n        2     70     49   cc-pVTZ   [6s4p3d1f1g|12s5p4d2f1g]
    h       30     16     11   cc-pVTZ   [3s1p1d|5s2p1d]
   ---------------------------------------------------------------------------
   total:   51   1987   1399
   ---------------------------------------------------------------------------

   total number of primitive shells          :   91
   total number of contracted shells         :  473
   total number of cartesian basis functions : 1698
   total number of SCF-basis functions       : 1399


 symmetry group of the molecule :   c1 

 the group has the following generators :
   c1(z)

    1 symmetry operations found

 there are 1 real representations :   a   

 maximum number of shells which are related by symmetry :  1


    mo occupation :
   irrep   mo's   occupied
    a     1088       88
 
 number of basis functions   :         1088
 number of occupied orbitals :           88
 
  
           ------------------
           density functional
           ------------------
 PBE functional
 exchange:    LDA + PBE
 correlation: LDA (PW) + PBE
 iterations will be done with small grid
  
 spherical integration : Lebedev's spherical grid
 spherical gridsize    :           5
    i.e. gridpoints    :         590
 value for diffuse not defined
 radial integration    : Chebyshev 2nd kind (scaling 3)
 radial gridsize       :           8
 integration cells     :          51
 partition function    : becke
 partition sharpness   :           3
  

 biggest AO integral is expected to be    13.833700159
  
           ------------------------
               RI-J - INFORMATION
           ------------------------
 Contributions to RI integral batches: 
  neglected integral batches:       27353
  direct contribution:                  0
  memory contribution:       52847
 Memory core needed for (P|Q) and Cholesky     15 MByte
 Memory core minimum needed except of (P|Q)     5 MByte
 Total minimum memory core needed (sum)        20 MByte
  
 ****************************************
 Memory allocated for RI-J  6133 MByte
 ****************************************
                                            

          ------------------------
          nuclear repulsion energy  :   2322.37716045    
          ------------------------

 
          -----------------
          -S,T+V- integrals
          -----------------

 1e-integrals will be neglected if expon. factor < 0.270823E-14
 
   Difference densities algorithm switched on.
   The maximal number of linear combinations of
   difference densities is          20 .

 automatic virtual orbital shift switched on 
      shift if e(lumo)-e(homo) < 0.10000000    


 DIIS switched on: error vector is FDS-SDF
 Max. Iterations for DIIS is     :   4
 DIIS matrix (see manual) 
    Scaling factor of diagonals  :  1.200
    threshold for scaling factor :  0.000

 scf convergence criterion : increment of total energy < .1000000D-08
                  and increment of one-electron energy < .1000000D-05

  MOs are in ASCII format !


 reading orbital data $scfmo  from file mos . 

 orbital characterization : expanded
 
 mo provided and orthogonalized by Cholesky decomposition

 DSCF restart information will be dumped onto file mos


 Starting SCF iterations

          Overall gridpoints after grid construction =        228356

 ITERATION  ENERGY          1e-ENERGY        2e-ENERGY     RMS[dD(SAO)]   TOL
   1  -2069.3739315353    -7434.8054025     3043.0543105    0.000D+00 0.270D-13
                            Exc = -175.524646732     Coul =  3218.57895724    
                              N = 176.00014448    
                            current damping = 0.700
 
          max. resid. norm for Fia-block=  9.603D-01 for orbital     50a         
          max. resid. fock norm         =  4.458D+00 for orbital   1082a         

 ITERATION  ENERGY          1e-ENERGY        2e-ENERGY     RMS[dD(SAO)]   TOL
   2  -2073.1819419386    -7364.8179292     2969.2588268    0.629D-02 0.191D-13
                            Exc = -173.421777908     Coul =  3142.68060472    
                              N = 176.00012957    
                            current damping = 0.650
 
          Norm of current diis error:  8.6593    
          max. resid. norm for Fia-block=  4.531D-01 for orbital     29a         
          max. resid. fock norm         =  9.648D-01 for orbital   1049a         

 ITERATION  ENERGY          1e-ENERGY        2e-ENERGY     RMS[dD(SAO)]   TOL
   3  -2075.5001273498    -7429.3588064     3031.4815186    0.812D-02 0.170D-13
                            Exc = -176.754099201     Coul =  3208.23561776    
                              N = 176.00011827    
                            current damping = 0.600
 
          Norm of current diis error:  1.9955    
          max. resid. norm for Fia-block=  7.165D-02 for orbital      2a         
          max. resid. fock norm         =  1.505D-01 for orbital   1072a         

 ITERATION  ENERGY          1e-ENERGY        2e-ENERGY     RMS[dD(SAO)]   TOL
   4  -2075.5748073988    -7408.0410823     3010.0891144    0.137D-02 0.149D-13
                            Exc = -176.052939657     Coul =  3186.14205407    
                              N = 176.00010670    
                            current damping = 0.650
 
          Norm of current diis error:  2.1448    
          max. resid. norm for Fia-block=  4.950D-02 for orbital     88a         
          max. resid. fock norm         =  8.379D-02 for orbital    992a         

 ITERATION  ENERGY          1e-ENERGY        2e-ENERGY     RMS[dD(SAO)]   TOL
   5  -2075.6990055242    -7426.5330462     3028.4568802    0.104D-02 0.135D-13
                            Exc = -176.713251996     Coul =  3205.17013221    
                              N = 176.00010364    
                            current damping = 0.700
 
          Norm of current diis error: 0.68990    
          max. resid. norm for Fia-block=  2.529D-02 for orbital     83a         
          max. resid. fock norm         =  3.203D-02 for orbital     89a         
          mo-orthogonalization: Cholesky decomposition

 ITERATION  ENERGY          1e-ENERGY        2e-ENERGY     RMS[dD(SAO)]   TOL
   6  -2075.6887633927    -7418.4175266     3020.3516027    0.430D-03 0.125D-13
                            Exc = -176.532707971     Coul =  3196.88431072    
                              N = 176.00010013    
                            current damping = 0.750
 
          Norm of current diis error:  1.0144    
          max. resid. norm for Fia-block=  1.214D-02 for orbital     88a         
          max. resid. fock norm         =  1.452D-02 for orbital   1051a         

 ITERATION  ENERGY          1e-ENERGY        2e-ENERGY     RMS[dD(SAO)]   TOL
   7  -2075.7068019486    -7420.5821398     3022.4981774    0.147D-03 0.119D-13
                            Exc = -176.634410147     Coul =  3199.13258753    
                              N = 176.00009865    
                            current damping = 0.800
 
          Norm of current diis error: 0.66787    
          max. resid. norm for Fia-block=  7.522D-03 for orbital     86a         
          max. resid. fock norm         =  1.032D-02 for orbital     89a         

 ITERATION  ENERGY          1e-ENERGY        2e-ENERGY     RMS[dD(SAO)]   TOL
   8  -2075.7195251524    -7422.6859989     3024.5893133    0.107D-03 0.112D-13
                            Exc = -176.688914825     Coul =  3201.27822810    
                              N = 176.00009778    
                            current damping = 0.700
 
          Norm of current diis error: 0.20729    
          max. resid. norm for Fia-block=  2.777D-03 for orbital     83a         
          max. resid. fock norm         =  4.658D-03 for orbital    471a         

 ITERATION  ENERGY          1e-ENERGY        2e-ENERGY     RMS[dD(SAO)]   TOL
   9  -2075.7208041745    -7424.2115840     3026.1136194    0.815D-04 0.108D-13
                            Exc = -176.734132488     Coul =  3202.84775184    
                              N = 176.00009758    
                            current damping = 0.600
 
          Norm of current diis error: 0.40973E-01
          max. resid. norm for Fia-block=  1.301D-03 for orbital     84a         
          max. resid. fock norm         =  1.892D-03 for orbital    119a         

 ITERATION  ENERGY          1e-ENERGY        2e-ENERGY     RMS[dD(SAO)]   TOL
  10  -2075.7208349293    -7423.6524264     3025.5544310    0.481D-04 0.105D-13
                            Exc = -176.709195337     Coul =  3202.26362634    
                              N = 176.00009730    
                            current damping = 0.650
 
          Norm of current diis error: 0.30173E-01
          max. resid. norm for Fia-block=  4.707D-04 for orbital     87a         
          max. resid. fock norm         =  5.486D-04 for orbital     89a         
          mo-orthogonalization: Cholesky decomposition

 ITERATION  ENERGY          1e-ENERGY        2e-ENERGY     RMS[dD(SAO)]   TOL
  11  -2075.7208626319    -7423.8334381     3025.7354150    0.750D-05 0.104D-13
                            Exc = -176.717131827     Coul =  3202.45254688    
                              N = 176.00009721    
                            current damping = 0.700
 
          Norm of current diis error: 0.79187E-02
          max. resid. norm for Fia-block=  1.458D-04 for orbital     76a         
          max. resid. fock norm         =  2.190D-04 for orbital     62a         

 ITERATION  ENERGY          1e-ENERGY        2e-ENERGY     RMS[dD(SAO)]   TOL
  12  -2075.7208640560    -7423.8692678     3025.7712433    0.411D-05 0.102D-13
                            Exc = -176.718512651     Coul =  3202.48975592    
                              N = 176.00009720    
                            current damping = 0.550
 
          Norm of current diis error: 0.44035E-02
          max. resid. norm for Fia-block=  2.104D-04 for orbital     88a         
          max. resid. fock norm         =  2.470D-04 for orbital     89a         

 ITERATION  ENERGY          1e-ENERGY        2e-ENERGY     RMS[dD(SAO)]   TOL
  13  -2075.7208611423    -7423.9646308     3025.8666092    0.307D-05 0.101D-13
                            Exc = -176.721933071     Coul =  3202.58854225    
                              N = 176.00009718    
                            current damping = 0.600
 
          Norm of current diis error: 0.10482E-01
          max. resid. norm for Fia-block=  7.417D-05 for orbital     88a         
          max. resid. fock norm         =  1.052D-04 for orbital     89a         

 ITERATION  ENERGY          1e-ENERGY        2e-ENERGY     RMS[dD(SAO)]   TOL
  14  -2075.7208639254    -7423.9320505     3025.8340262    0.142D-05 0.989D-14
                            Exc = -176.720905705     Coul =  3202.55493187    
                              N = 176.00009717    
                            current damping = 0.650
 
          Norm of current diis error: 0.48206E-02
          max. resid. norm for Fia-block=  4.936D-05 for orbital     82a         
          max. resid. fock norm         =  6.790D-05 for orbital     89a         

 ITERATION  ENERGY          1e-ENERGY        2e-ENERGY     RMS[dD(SAO)]   TOL
  15  -2075.7208645619    -7423.9123355     3025.8143105    0.838D-06 0.976D-14
                            Exc = -176.720287798     Coul =  3202.53459829    
                              N = 176.00009717    
                            current damping = 0.500
 
          Norm of current diis error: 0.18635E-02
          max. resid. norm for Fia-block=  2.761D-05 for orbital     88a         
          max. resid. fock norm         =  5.622D-05 for orbital   1068a         
          mo-orthogonalization: Cholesky decomposition

 ITERATION  ENERGY          1e-ENERGY        2e-ENERGY     RMS[dD(SAO)]   TOL
  16  -2075.7208646776    -7423.9020287     3025.8040036    0.761D-06 0.955D-14
                            Exc = -176.719862822     Coul =  3202.52386638    
                              N = 176.00009717    
                            current damping = 0.350
 
          Norm of current diis error: 0.18467E-03
          max. resid. norm for Fia-block=  5.377D-06 for orbital     85a         
          max. resid. fock norm         =  7.140D-06 for orbital     76a         

 ITERATION  ENERGY          1e-ENERGY        2e-ENERGY     RMS[dD(SAO)]   TOL
  17  -2075.7208646778    -7423.8998772     3025.8018521    0.168D-06 0.942D-14
                            Exc = -176.719757607     Coul =  3202.52160969    
                              N = 176.00009717    
                            current damping = 0.200
 
          Norm of current diis error: 0.17893E-03
          max. resid. norm for Fia-block=  2.351D-06 for orbital     88a         
          max. resid. fock norm         =  3.059D-06 for orbital     76a         

 DENSITY CONVERGED !


 ITERATION  ENERGY          1e-ENERGY        2e-ENERGY     RMS[dD(SAO)]   TOL
  18  -2075.7208646786    -7423.9018085     3025.8037834    0.716D-07 0.931D-14
                            Exc = -176.719832468     Coul =  3202.52361585    
                              N = 176.00009717    
                            current damping = 0.250
 
          Norm of current diis error: 0.87497E-04
          max. resid. norm for Fia-block=  1.672D-06 for orbital     88a         
          max. resid. fock norm         =  2.040D-06 for orbital     90a         

 DENSITY CONVERGED !


 ITERATION  ENERGY          1e-ENERGY        2e-ENERGY     RMS[dD(SAO)]   TOL
  19  -2075.7208646787    -7423.9009955     3025.8029704    0.351D-07 0.923D-14
                            Exc = -176.719809490     Coul =  3202.52277988    
                              N = 176.00009717    
                            current damping = 0.300
 
          Norm of current diis error: 0.68099E-04
          max. resid. norm for Fia-block=  1.119D-06 for orbital     88a         
          max. resid. fock norm         =  1.395D-06 for orbital     89a         

 DENSITY CONVERGED !


 ITERATION  ENERGY          1e-ENERGY        2e-ENERGY     RMS[dD(SAO)]   TOL
  20  -2075.7208646789    -7423.9015449     3025.8035198    0.234D-07 0.917D-14
                            Exc = -176.719829232     Coul =  3202.52334900    
                              N = 176.00009717    
                            current damping = 0.350
 
          Norm of current diis error: 0.26781E-04
          max. resid. norm for Fia-block=  6.450D-07 for orbital     87a         
          max. resid. fock norm         =  7.713D-07 for orbital     89a         
          mo-orthogonalization: Cholesky decomposition

 DENSITY CONVERGED !


 ITERATION  ENERGY          1e-ENERGY        2e-ENERGY     RMS[dD(SAO)]   TOL
  21  -2075.7208646788    -7423.9012802     3025.8032551    0.145D-07 0.910D-14
                            Exc = -176.719818282     Coul =  3202.52307335    
                              N = 176.00009717    
                            current damping = 0.400
 
          Norm of current diis error: 0.20511E-04
          max. resid. norm for Fia-block=  1.872D-07 for orbital     83a         
          max. resid. fock norm         =  2.691D-07 for orbital     40a         

 DENSITY CONVERGED !


 ITERATION  ENERGY          1e-ENERGY        2e-ENERGY     RMS[dD(SAO)]   TOL
  22  -2075.7208646788    -7423.9013440     3025.8033189    0.461D-08 0.270D-13
                            Exc = -176.719820596     Coul =  3202.52313947    
                              N = 176.00009717    
                            current damping = 0.450
 
          Norm of current diis error: 0.89705E-05
          max. resid. norm for Fia-block=  8.841D-08 for orbital     82a         
          max. resid. fock norm         =  1.272D-07 for orbital   1078a         

 ENERGY & DENSITY CONVERGED !

          Overall gridpoints after grid construction =        742975

 ITERATION  ENERGY          1e-ENERGY        2e-ENERGY     RMS[dD(SAO)]   TOL
  23  -2075.7208012966    -7423.9013643     3025.8034026    0.148D-08 0.171D-13
                            Exc = -176.719758154     Coul =  3202.52316071    
                              N = 175.99994110    
                            current damping = 0.300
 
          Norm of current diis error: 0.40365E-05
          max. resid. norm for Fia-block=  3.440D-08 for orbital     82a         
          max. resid. fock norm         =  4.378D-08 for orbital   1078a         

 End of SCF iterations

   convergence criteria satisfied after   23 iterations


                  ------------------------------------------ 
                 |  total energy      =  -2075.72080129665  |
                  ------------------------------------------ 
                 :  kinetic energy    =   2068.61476236171  :
                 :  potential energy  =  -4144.33556365836  :
                 :  virial theorem    =      1.99657659213  :
                 :  wavefunction norm =      1.00000000000  :
                  .......................................... 


 orbitals $scfmo  will be written to file mos

    irrep                 84a         85a         86a         87a         88a   
 eigenvalues H         -0.45234    -0.45230    -0.39273    -0.38913    -0.38871
            eV         -12.3089    -12.3077    -10.6868    -10.5889    -10.5774
 occupation              2.0000      2.0000      2.0000      2.0000      2.0000 

    irrep                 89a         90a         91a         92a         93a   
 eigenvalues H         -0.27912    -0.27352    -0.23770    -0.22933    -0.20802
            eV          -7.5952     -7.4430     -6.4682     -6.2406     -5.6605
 
 
 
 
 ==============================================================================
                           electrostatic moments
 ==============================================================================

 reference point for electrostatic moments:    0.00000   0.00000   0.00000

 
              nuc           elec       ->  total
 ------------------------------------------------------------------------------
                          charge      
 ------------------------------------------------------------------------------
         178.000000    -176.000000       2.000000
 
 ------------------------------------------------------------------------------
                       dipole moment  
 ------------------------------------------------------------------------------
   x       3.840320      -4.204202      -0.363881
   y       4.113972      -4.421958      -0.307986
   z       0.638331      -0.622982       0.015349
 
   | dipole moment | =     0.4770 a.u. =     1.2123 debye 
 
 ------------------------------------------------------------------------------
                     quadrupole moment
 ------------------------------------------------------------------------------
  xx     634.593243    -718.978944     -84.385701
  yy     681.353793    -765.476004     -84.122211
  zz    6580.851680   -6537.354649      43.497030
  xy    -114.654942     115.611510       0.956569
  xz    -185.640086     176.487493      -9.152593
  yz     364.939926    -351.206328      13.733598
 
     1/3  trace=     -41.670294
     anisotropy=     130.920803
 
 ==============================================================================
 
 


    ------------------------------------------------------------------------
         total  cpu-time : 21 minutes and 28 seconds
         total wall-time : 21 minutes and 28 seconds
    ------------------------------------------------------------------------


   ****  ridft : all done  ****


    2016-02-29 16:04:14.005 

