 operating system is UNIX !

 ridft (c-12-251.gp.local) : TURBOMOLE V7.2 ( 21454 ) 4 Oct 2017 at 12:48:15
 Copyright (C) 2017 TURBOMOLE GmbH, Karlsruhe


    2018-04-28 11:01:51.964 



                                  r i d f t

                        DFT program with RI approximation 
                                for coulomb part 




                                                 
                                 References:     
                                                 
          TURBOMOLE:                             
              R. Ahlrichs, M. Baer, M. Haeser, H. Horn, and
              C. Koelmel
              Electronic structure calculations on workstation
              computers: the program system TURBOMOLE
              Chem. Phys. Lett. 162: 165 (1989)
          Density Functional:                              
              O. Treutler and R. Ahlrichs                      
              Efficient Molecular Numerical Integration Schemes
              J. Chem. Phys. 102: 346 (1995)                   
          Parallel Version:                                
              Performance of parallel TURBOMOLE for Density    
              Functional Calculations                          
              M. v. Arnim and R. Ahlrichs                      
              J. Comp. Chem. 19: 1746 (1998)                   
          RI-J Method:                                     
              Auxiliary Basis Sets to approximate Coulomb      
              Potentials                                       
              Chem. Phys. Lett. 240: 283 (1995)                
              K. Eichkorn, O. Treutler, H. Oehm, M. Haeser     
              and R. Ahlrichs                                  
              Chem. Phys. Lett. 242: 652 (1995)                
                                                           
              Auxiliary Basis Sets for Main Row Atoms and their
              Use to approximate Coulomb Potentials            
              K. Eichkorn, F. Weigend, O. Treutler and         
              R. Ahlrichs                                      
              Theo. Chem. Acc. 97: 119 (1997)                   
                                                           
              Accurate Coulomb-fitting basis sets for H to Rn 
              F. Weigend                                        
              Phys. Chem. Chem. Phys. 8: 1057 (2006)            
                                                           
          Multipole accelerated RI-J (MARI-J):             
              Fast evaluation of the Coulomb potential for     
              electron densities using multipole accelerated   
              resolution of identity approximation             
              M. Sierka, A. Hogekamp and R. Ahlrichs           
              J. Chem. Phys. 118: 9136 (2003)                  
          RI-JK Method:                                     
              A fully direct RI-HF algorithm: Implementation,
              optimised auxiliary basis sets, demonstration of
              accuracy and efficiency                         
              F. Weigend                                      
              Phys. Chem. Chem. Phys. 4: 4285 (2002)           
          Two-component HF and DFT with spin-orbit coupling:  
              Self-consistent treatment of spin-orbit         
              interactions with efficient Hartree-Fock and    
              density functional methods                      
              M. K. Armbruster, F. Weigend, C. van Wüllen and 
              W. Klopper                                      
              Phys. Chem. Chem. Phys. 10: 1748 (2008)         
          Relativistic all-electron 2c calculations           
              An efficient implementation of two-component    
              relativistic exact-decoupling methods for large 
              molecules                                       
              D. Peng, N. Middendorf, F. Weigend, M. Reiher   
              J. Chem. Phys. 138, 184105 (2013)               
                                         




              +--------------------------------------------------+
              |      general information about current run       |
              +--------------------------------------------------+

 

 DENSITY CONVERGENCE CHECK SWITCHED ON !
 SCF CONVERGENCE IF RMS(delta[D]) <     0.1000000000E-06

 A HF calculation using the RI-JK approximation will be carried out.
 Allocatable memory for RI due to $ricore (MB):                   500


              +--------------------------------------------------+
              | Atomic coordinate, charge and isotop information |
              +--------------------------------------------------+

                    atomic coordinates            atom    charge  isotop
         -4.29977887   -0.25525464    1.57099334    c      6.000     0
         -4.70677445   -1.37558208   -0.10878464    h      1.000     0
         -4.20714230   -1.54663957    3.17251646    h      1.000     0
         -5.88087622    1.02979382    1.86591573    h      1.000     0
         -1.81734608    1.17026561    1.26498116    c      6.000     0
         -1.49042549    2.36297367    2.91906499    h      1.000     0
         -1.93919326    2.44803672   -0.35235528    h      1.000     0
          0.42802708   -0.59471630    0.90704170    c      6.000     0
          0.58476515   -1.84274587    2.54742251    h      1.000     0
          0.07398384   -1.82547309   -0.71580905    h      1.000     0
          2.91585059    0.79590450    0.50833539    c      6.000     0
          3.23452825    2.09338526    2.08332203    h      1.000     0
          2.77051739    1.97238901   -1.18163362    h      1.000     0
          5.15437226   -0.99562283    0.25976045    c      6.000     0
          4.89201256   -2.27374477   -1.33368809    h      1.000     0
          6.91923413    0.02209673   -0.03017633    h      1.000     0
          5.35774033   -2.14939329    1.95411878    h      1.000     0
         -0.91379878   -0.54398252    7.78803673    c      6.000     0
         -1.71242339   -2.65136777    7.41548369    o      8.000     0
         -2.45145450    1.45717230    8.22756715    o      8.000     0
         -4.15364819    0.78749013    8.15096570    h      1.000     0
          1.80791152    0.23017418    7.82055019    c      6.000     0
          2.99054573   -1.41422949    7.52168025    h      1.000     0
          2.14057403    1.61775026    6.34065921    h      1.000     0
          2.25636479    1.11702446    9.61919604    h      1.000     0
 
       center of nuclear mass  :   -0.13893261   -0.15427677    4.04472946
       center of nuclear charge:   -0.06509987   -0.13094357    3.89614885

              +--------------------------------------------------+
              |               basis set information              |
              +--------------------------------------------------+

              we will work with the 1s 3p 5d 7f 9g ... basis set
              ...i.e. with spherical basis functions...

   type   atoms  prim   cont   basis
   ---------------------------------------------------------------------------
    c        7     77     57   def2-QZVP   [7s4p3d2f1g|15s8p3d2f1g]
    h       16     33     30   def2-QZVP   [4s3p2d1f|7s3p2d1f]
    o        2     77     57   def2-QZVP   [7s4p3d2f1g|15s8p3d2f1g]
   ---------------------------------------------------------------------------
   total:   25   1221    993
   ---------------------------------------------------------------------------

   total number of primitive shells          :   71
   total number of contracted shells         :  313
   total number of cartesian basis functions : 1208
   total number of SCF-basis functions       :  993


 integral neglect threshold       :  0.28E-13
 integral storage threshold THIZE :  0.10E-04
 integral storage threshold THIME :         5

 RI-JK AUXILIARY BASIS SET information:

              we will work with the 1s 3p 5d 7f 9g ... basis set
              ...i.e. with spherical basis functions...

   type   atoms  prim   cont   basis
   ---------------------------------------------------------------------------
    c        7     97     75   def2-QZVP   [10s8p5d1f1g|14s10p6d2f1g]
    h       16     20     18   def2-QZVP   [2s2p2d|4s2p2d]
    o        2     97     77   def2-QZVP   [10s8p4d2f1g|14s10p6d2f1g]
   ---------------------------------------------------------------------------
   total:   25   1193    967
   ---------------------------------------------------------------------------

   total number of primitive shells          :   74
   total number of contracted shells         :  321
   total number of cartesian basis functions : 1129
   total number of SCF-basis functions       :  967


 symmetry group of the molecule :   c1 

 the group has the following generators :
   c1(z)

    1 symmetry operations found

 there are 1 real representations :   a   

 maximum number of shells which are related by symmetry :  1


    mo occupation :
   irrep   mo's   occupied
    a      993       37
 
 number of basis functions   :                    993
 number of occupied orbitals :                     37
 

 biggest AO integral is expected to be     6.990327543
  
           ------------------------
               RI-JK - INFORMATION
           ------------------------
 Contributions to RI integral batches: 
  neglected integral batches:                 12901
  direct contribution:                        36240
  memory contribution:                     0
 Memory core needed for (P|Q) and Cholesky      8 MByte
 Memory core minimum needed except of (P|Q)     1 MByte
 Total minimum memory core needed (sum)         8 MByte
  
 ****************************************
 Memory allocated for RI-J     8 MByte
 ****************************************
                                            
 total memory allocated for calculation of  (Q|P)**(-1/2) :   11 MiB

  forming (P|Q)**(-1/2) 
 eigenvalues of original matrix 
 smallest =0.1585704743680E-06  largest = 38.60747922556    
  The symmetry information takes                      1  MB

          ------------------------
          nuclear repulsion energy  :   475.006129593    
          ------------------------


         -----------------
         -S,T+V- integrals
         -----------------

 1e-integrals will be neglected if expon. factor < 0.276652E-14
 
   Difference densities algorithm switched on.
   The maximal number of linear combinations of
   difference densities is                    20 .

 DIIS switched on: error vector is FDS-SDF
 Max. Iterations for DIIS is     :   5
 DIIS matrix (see manual) 
    Scaling factor of diagonals  :  1.200
    threshold for scaling factor :  0.000

 scf convergence criterion : increment of total energy < .1000000D-08
                  and increment of one-electron energy < .1000000D-05

  MOs are in ASCII format !


 automatic virtual orbital shift switched on 
      shift if e(lumo)-e(homo) < 0.10000000    


 reading orbital data $scfmo  from file mos
 orbital characterization : scfconv=9

 DSCF restart information will be dumped onto file mos


 Starting SCF iterations

 
 BLOCKING OF MOS FOR RI-K
 
 
 occupied MOs partitioned into blocks of maximum length 37
 this requires 331 MiB core memory.
 
            MULTIPLE PASS Statistics 
 ----------------------------------------------------
  pass       irrep     lambda      batch : MO  to  MO
 ----------------------------------------------------
   1       1  ->  1    1  -> 37             1  ->  37



 ENERGY & DENSITY CONVERGED !


 ITERATION  ENERGY          1e-ENERGY        2e-ENERGY     RMS[dD(SAO)]   TOL
   1  -424.23472819780    -1520.1935394     620.95268160    0.000D+00 0.276D-13
                           RI-K = -58.3701856617     Coul =  679.322867264    
                            current damping = 0.700
 
          max. resid. norm for Fia-block=  2.599D-01 for orbital      2a         
          max. resid. fock norm         =  8.039D-01 for orbital    993a         

 End of SCF iterations

   convergence criteria satisfied after     1 iterations


                  ------------------------------------------ 
                 |  total energy      =   -424.23472819780  |
                  ------------------------------------------ 
                 :  kinetic energy    =    424.82399148754  :
                 :  potential energy  =   -849.05871968534  :
                 :  virial theorem    =      2.00138900295  :
                 :  wavefunction norm =      1.00000000000  :
                  .......................................... 


 orbitals $scfmo  will be written to file mos

    irrep                 33a         34a         35a         36a         37a   
 eigenvalues H         -0.47165    -0.45109    -0.43168    -0.44934    -0.45829
            eV         -12.8344    -12.2750    -11.7467    -12.2273    -12.4708
 occupation              2.0000      2.0000      2.0000      2.0000      2.0000 

    irrep                 38a         39a         40a         41a         42a   
 eigenvalues H          0.17036     0.11487     0.12554     0.13310     0.13790
            eV           4.6357      3.1257      3.4161      3.6219      3.7526
 
 
 
 
 ==============================================================================
                           electrostatic moments
 ==============================================================================

 reference point for electrostatic moments:    0.00000   0.00000   0.00000

 
              nuc           elec       ->  total
 ------------------------------------------------------------------------------
                          charge      
 ------------------------------------------------------------------------------
          74.000000     -74.000000      -0.000000
 
 ------------------------------------------------------------------------------
                       dipole moment  
 ------------------------------------------------------------------------------
   x      -4.817390       5.019914       0.202523
   y      -9.689824      10.277171       0.587347
   z     288.315015    -288.209861       0.105154
 
   | dipole moment | =     0.6301 a.u. =     1.6016 debye 
 
 ------------------------------------------------------------------------------
                     quadrupole moment
 ------------------------------------------------------------------------------
  xx     673.708405    -715.497323     -41.788918
  yy     143.994066    -192.228365     -48.234299
  zz    2039.932705   -2081.438659     -41.505954
  xy     -25.669029      24.425680      -1.243349
  xz    -250.800498     252.162303       1.361806
  yz     -54.422957      58.503652       4.080696
 
     1/3  trace=     -43.843057
     anisotropy=      10.178622
 
 ==============================================================================
 


    ------------------------------------------------------------------------
         total  cpu-time :  1 minutes and 15 seconds
         total wall-time :  1 minutes and 19 seconds
    ------------------------------------------------------------------------

   ****  ridft : all done  ****


    2018-04-28 11:03:10.589 

