STARTING ridft ON 32 PROCESSORS!
RUNNING PROGRAM /sopt/TURBOMOLE/7.3-official/bin/em64t-unknown-linux-gnu_smp/ridft_mpi.
           SMPCPUS    set: Shared-memory Parallelization with  32 CPUs.

           SMP Parallelization Reference:
           C. van Wullen, J. Comput. Chem. 32 (2011) 1195--1201
 operating system is UNIX !

 ridft (c-16-23) : TURBOMOLE V7.3 ( 22118 ) 1 Jul 2018 at 20:38:15
 Copyright (C) 2018 TURBOMOLE GmbH, Karlsruhe


    2019-03-12 22:25:31.782 



                                  r i d f t

                        DFT program with RI approximation 
                                for coulomb part 




                                                 
                                 References:     
                                                 
          TURBOMOLE:                             
              R. Ahlrichs, M. Baer, M. Haeser, H. Horn, and
              C. Koelmel
              Electronic structure calculations on workstation
              computers: the program system TURBOMOLE
              Chem. Phys. Lett. 162: 165 (1989)
          Density Functional:                              
              O. Treutler and R. Ahlrichs                      
              Efficient Molecular Numerical Integration Schemes
              J. Chem. Phys. 102: 346 (1995)                   
          Parallel Version:                                
              Performance of parallel TURBOMOLE for Density    
              Functional Calculations                          
              M. v. Arnim and R. Ahlrichs                      
              J. Comp. Chem. 19: 1746 (1998)                   
          RI-J Method:                                     
              Auxiliary Basis Sets to approximate Coulomb      
              Potentials                                       
              Chem. Phys. Lett. 240: 283 (1995)                
              K. Eichkorn, O. Treutler, H. Oehm, M. Haeser     
              and R. Ahlrichs                                  
              Chem. Phys. Lett. 242: 652 (1995)                
                                                           
              Auxiliary Basis Sets for Main Row Atoms and their
              Use to approximate Coulomb Potentials            
              K. Eichkorn, F. Weigend, O. Treutler and         
              R. Ahlrichs                                      
              Theo. Chem. Acc. 97: 119 (1997)                   
                                                           
              Accurate Coulomb-fitting basis sets for H to Rn 
              F. Weigend                                        
              Phys. Chem. Chem. Phys. 8: 1057 (2006)            
                                                           
          Multipole accelerated RI-J (MARI-J):             
              Fast evaluation of the Coulomb potential for     
              electron densities using multipole accelerated   
              resolution of identity approximation             
              M. Sierka, A. Hogekamp and R. Ahlrichs           
              J. Chem. Phys. 118: 9136 (2003)                  
          RI-JK Method:                                     
              A fully direct RI-HF algorithm: Implementation,
              optimised auxiliary basis sets, demonstration of
              accuracy and efficiency                         
              F. Weigend                                      
              Phys. Chem. Chem. Phys. 4: 4285 (2002)           
          Two-component HF and DFT with spin-orbit coupling:  
              Self-consistent treatment of spin-orbit         
              interactions with efficient Hartree-Fock and    
              density functional methods                      
              M. K. Armbruster, F. Weigend, C. van Wüllen and 
              W. Klopper                                      
              Phys. Chem. Chem. Phys. 10: 1748 (2008)         
          Two-component difference density and DIIS algorithm 
              Efficient two-component self-consistent field   
              procedures and gradients: implementation in     
              TURBOMOLE and application to Au20-              
              A. Baldes, F. Weigend                           
              Mol. Phys. 111: 2617 (2013)                     
          Relativistic all-electron 2c calculations           
              An efficient implementation of two-component    
              relativistic exact-decoupling methods for large 
              molecules                                       
              D. Peng, N. Middendorf, F. Weigend, M. Reiher   
              J. Chem. Phys. 138: 184105 (2013)               
          Finite nucleus model and SNSO approximation         
              Efficient implementation of one- and two-       
              component analytical energy gradients in exact  
              two-component theory                            
              Y. J. Franzke, N. Middendorf, F. Weigend        
              J. Chem. Phys. 148: 104110 (2018)               
                                         




              +--------------------------------------------------+
              |      general information about current run       |
              +--------------------------------------------------+

 
 PBE functional
 exchange:    LDA + PBE
 correlation: LDA (PW) + PBE
 A DFT calculation using the RI-J approximation will be carried out.
 Allocatable memory for RI due to $ricore (MB):                  8000


              +--------------------------------------------------+
              | Atomic coordinate, charge and isotop information |
              +--------------------------------------------------+

                    atomic coordinates            atom    charge  isotop
          1.30828619    2.05657391    0.61386098    c      6.000     0
          2.42253216    3.76423389    0.47718568    h      1.000     0
          2.49101284   -0.29644149    0.54215501    c      6.000     0
          4.52238557   -0.41475021    0.35603728    h      1.000     0
          1.05450198   -2.49812431    0.72074129    c      6.000     0
          1.97272144   -4.32288799    0.67579521    h      1.000     0
         -1.56384732   -2.34594735    0.96694454    c      6.000     0
         -2.67717681   -4.05393786    1.10613092    h      1.000     0
         -2.74654947    0.00693803    1.03629004    c      6.000     0
         -4.77766711    0.12416014    1.22802442    h      1.000     0
         -1.31045127    2.20795806    0.86214800    c      6.000     0
         -2.22748697    4.03345015    0.91789071    h      1.000     0
 
       center of nuclear mass  :   -0.12781078   -0.14484941    0.79060084
       center of nuclear charge:   -0.12778510   -0.14485692    0.79080722

              +--------------------------------------------------+
              |               basis set information              |
              +--------------------------------------------------+

              we will work with the 1s 3p 5d 7f 9g ... basis set
              ...i.e. with spherical basis functions...

   type   atoms  prim   cont   basis
   ---------------------------------------------------------------------------
    c        6     68     48   def2-QZVP   [7s4p3d2f|15s8p3d2f]
    h        6     26     23   def2-QZVP   [4s3p2d|7s3p2d]
   ---------------------------------------------------------------------------
   total:   12    564    426
   ---------------------------------------------------------------------------

   total number of primitive shells          :   40
   total number of contracted shells         :  150
   total number of cartesian basis functions :  492
   total number of SCF-basis functions       :  426


 integral neglect threshold       :  0.68E-11
 integral storage threshold THIZE :  0.10E-04
 integral storage threshold THIME :         5

 RI-J AUXILIARY BASIS SET information:

              we will work with the 1s 3p 5d 7f 9g ... basis set
              ...i.e. with spherical basis functions...

   type   atoms  prim   cont   basis
   ---------------------------------------------------------------------------
    c        6     70     49   def2-QZVP   [6s4p3d1f1g|12s5p4d2f1g]
    h        6     16     11   def2-QZVP   [3s1p1d|5s2p1d]
   ---------------------------------------------------------------------------
   total:   12    516    360
   ---------------------------------------------------------------------------

   total number of primitive shells          :   32
   total number of contracted shells         :  120
   total number of cartesian basis functions :  438
   total number of SCF-basis functions       :  360


 symmetry group of the molecule :   c1 

 the group has the following generators :
   c1(z)

    1 symmetry operations found

 there are 1 real representations :   a   

 maximum number of shells which are related by symmetry :  1


    mo occupation :
   irrep   mo's   occupied
    a      426       21
 
 number of basis functions   :                    426
 number of occupied orbitals :                     21
 
  
           ------------------
           density functional
           ------------------
 PBE functional
 exchange:    LDA + PBE
 correlation: LDA (PW) + PBE

 iterations will be done with small grid
  
 spherical integration : Lebedev's spherical grid
 spherical gridsize    :                     4
    i.e. gridpoints    :                   434
 value for diffuse not defined
 radial integration    : Chebyshev 2nd kind (scaling 3)
 radial gridsize       :                     6
 integration cells     :                    12
 partition function    : becke
 partition sharpness   :                     3
  

 biggest AO integral is expected to be     5.262544080
  
           ------------------------
               RI-J - INFORMATION
           ------------------------
 Contributions to RI integral batches: 
  neglected integral batches:                  1211
  direct contribution:                            0
  memory contribution:                 10114
 Memory core needed for (P|Q) and Cholesky      1 MByte
 Memory core minimum needed except of (P|Q)     1 MByte
 Total minimum memory core needed (sum)         2 MByte
  
 ****************************************
 Memory allocated for RI-J   378 MByte
 ****************************************
                                            

          ------------------------
          nuclear repulsion energy  :   203.658594639    
          ------------------------

  _________________________________
 |                                 |
 |         DFTD3 V3.1 Rev 0        |
 | S.Grimme, University Bonn       |
 |            June  2014           |
 |   see standalone version        |
 |       dftd3 -h for options      |
 |_________________________________|
 
 Please cite DFT-D3 work done with this code as:
 S. Grimme, J. Antony, S. Ehrlich and H. Krieg,
 J. Chem. Phys, 132 (2010), 154104.
 If used with BJ-damping cite also
 S. Grimme, S. Ehrlich and L. Goerigk,
 J. Comput. Chem. 32 (2011), 1456-1465
 For DFT-D2 the reference is
 S. Grimme, J. Comput. Chem., 27 (2006), 1787-1799
 
C6 coefficients used:
                     2  C6 for element                      1
Z=  1 CN= 0.912     C6(AA)=    3.03
Z=  1 CN= 0.000     C6(AA)=    7.59
                     5  C6 for element                      6
Z=  6 CN= 0.000     C6(AA)=   49.11
Z=  6 CN= 0.987     C6(AA)=   43.25
Z=  6 CN= 1.998     C6(AA)=   29.36
Z=  6 CN= 2.999     C6(AA)=   25.78
Z=  6 CN= 3.984     C6(AA)=   18.21

#           XYZ [au]              R0(AA) [Ang.]  CN          C6(AA)     C8(AA)   C10(AA) [au]
  1   1.30829   2.05657   0.61386   c   0.610  3.133        25.3       732.7     25958.7
  2   2.42253   3.76423   0.47719   h   0.395  1.003         3.1        37.3       553.0
  3   2.49101  -0.29644   0.54216   c   0.610  3.133        25.3       732.7     25959.1
  4   4.52239  -0.41475   0.35604   h   0.395  1.003         3.1        37.3       553.0
  5   1.05450  -2.49812   0.72074   c   0.610  3.133        25.3       732.7     25958.7
  6   1.97272  -4.32289   0.67580   h   0.395  1.003         3.1        37.3       552.9
  7  -1.56385  -2.34595   0.96694   c   0.610  3.133        25.3       732.7     25958.2
  8  -2.67718  -4.05394   1.10613   h   0.395  1.003         3.1        37.3       553.0
  9  -2.74655   0.00694   1.03629   c   0.610  3.133        25.3       732.7     25958.8
 10  -4.77767   0.12416   1.22802   h   0.395  1.003         3.1        37.3       553.0
 11  -1.31045   2.20796   0.86215   c   0.610  3.133        25.3       732.7     25958.5
 12  -2.22749   4.03345   0.91789   h   0.395  1.003         3.1        37.3       553.0

molecular C6(AA) [au] =      1659.19

           DFT-D V3(BJ)
 DF pbe                                               
 parameters
 s6       :    1.0000
 s8       :    0.7875
 a1       :    0.4289
 a2       :    4.4407
 k1-k3    :   16.0000    1.3333   -4.0000
 
 Edisp /kcal,au:    -6.8850 -0.01097189

 E6    /kcal :    -4.7900
 E8    /kcal :    -2.0950
 % E8        : 30.43
 nuclear repulsion energy                  =     203.658594639
 empirical dispersive energy correction    =      -0.010971893
 nuclear repulsion + dispersion correction =     203.647622746


         -----------------
         -S,T+V- integrals
         -----------------

 1e-integrals will be neglected if expon. factor < 0.679260E-12
 Difference densities >>NOT<< switched on in parallel ridft!

 DIIS switched on: error vector is FDS-SDF
 Max. Iterations for DIIS is     :   4
 DIIS matrix (see manual) 
    Scaling factor of diagonals  :  1.200
    threshold for scaling factor :  0.000

 scf convergence criterion : increment of total energy < .1000000D-06
                  and increment of one-electron energy < .1000000D-03

  MOs are in ASCII format !


 automatic virtual orbital shift switched on 
      shift if e(lumo)-e(homo) < 0.10000000    


 reading orbital data $scfmo  from file mos
 orbital characterization : expanded
 mo provided and orthogonalized by Cholesky decomposition

 DSCF restart information will be dumped onto file mos


 Starting SCF iterations

          Overall gridpoints after grid construction =         32095

 ITERATION  ENERGY          1e-ENERGY        2e-ENERGY     NORM[dD(SAO)]  TOL
   1  -231.27153344934    -704.51141884     269.59226264    0.000D+00 0.678D-11
                            Exc = -33.4737701459     Coul =  303.066032787    
                              N = 41.999905459    
                            current damping = 0.700
 
          max. resid. norm for Fia-block=  4.971D-01 for orbital      7a         
          max. resid. fock norm         =  4.928D+01 for orbital    352a         

 ITERATION  ENERGY          1e-ENERGY        2e-ENERGY     NORM[dD(SAO)]  TOL
   2  -231.89071223912    -711.60055562     276.06222064    0.000D+00 0.678D-11
                            Exc = -34.1308130379     Coul =  310.193033677    
                              N = 41.999920766    
                            current damping = 0.650
 
          Norm of current diis error:  2.8186    
          max. resid. norm for Fia-block=  1.153D-01 for orbital      5a         
          max. resid. fock norm         =  1.448D-01 for orbital     61a         

 ITERATION  ENERGY          1e-ENERGY        2e-ENERGY     NORM[dD(SAO)]  TOL
   3  -232.00611602530    -712.88981154     277.23607277    0.000D+00 0.678D-11
                            Exc = -34.2999550760     Coul =  311.536027846    
                              N = 41.999929376    
                            current damping = 0.550
 
          Norm of current diis error:  1.3750    
          max. resid. norm for Fia-block=  5.344D-02 for orbital      7a         
          max. resid. fock norm         =  6.202D-02 for orbital      7a         

 ITERATION  ENERGY          1e-ENERGY        2e-ENERGY     NORM[dD(SAO)]  TOL
   4  -232.04031254584    -714.23147800     278.54354271    0.000D+00 0.678D-11
                            Exc = -34.4270527494     Coul =  312.970595459    
                              N = 41.999936621    
                            current damping = 0.450
 
          Norm of current diis error: 0.50078    
          max. resid. norm for Fia-block=  2.043D-02 for orbital      7a         
          max. resid. fock norm         =  2.299D-02 for orbital      7a         

 ITERATION  ENERGY          1e-ENERGY        2e-ENERGY     NORM[dD(SAO)]  TOL
   5  -232.04575049888    -714.41979528     278.72642204    0.000D+00 0.678D-11
                            Exc = -34.4611896937     Coul =  313.187611731    
                              N = 41.999938685    
                            current damping = 0.300
 
          Norm of current diis error: 0.18951    
          max. resid. norm for Fia-block=  7.341D-03 for orbital      7a         
          max. resid. fock norm         =  8.513D-03 for orbital      7a         
          mo-orthogonalization: Cholesky decomposition

 ITERATION  ENERGY          1e-ENERGY        2e-ENERGY     NORM[dD(SAO)]  TOL
   6  -232.04655885609    -714.75431049     279.06012889    0.000D+00 0.678D-11
                            Exc = -34.4888104732     Coul =  313.548939363    
                              N = 41.999940272    
                            current damping = 0.150
 
          Norm of current diis error: 0.50351E-01
          max. resid. norm for Fia-block=  1.771D-03 for orbital     21a         
          max. resid. fock norm         =  2.919D-03 for orbital     74a         

 ITERATION  ENERGY          1e-ENERGY        2e-ENERGY     NORM[dD(SAO)]  TOL
   7  -232.04660615471    -714.63709192     278.94286302    0.000D+00 0.678D-11
                            Exc = -34.4837867056     Coul =  313.426649726    
                              N = 41.999940013    
                            current damping = 0.200
 
          Norm of current diis error: 0.29253E-01
          max. resid. norm for Fia-block=  6.324D-04 for orbital     12a         
          max. resid. fock norm         =  8.123D-04 for orbital     12a         

 ITERATION  ENERGY          1e-ENERGY        2e-ENERGY     NORM[dD(SAO)]  TOL
   8  -232.04662231255    -714.69608538     279.00184033    0.000D+00 0.678D-11
                            Exc = -34.4875632274     Coul =  313.489403553    
                              N = 41.999940230    
                            current damping = 0.250
 
          Norm of current diis error: 0.19727E-02
          max. resid. norm for Fia-block=  9.238D-05 for orbital     20a         
          max. resid. fock norm         =  2.108D-04 for orbital      3a         

 ITERATION  ENERGY          1e-ENERGY        2e-ENERGY     NORM[dD(SAO)]  TOL
   9  -232.04662218750    -714.69793748     279.00369254    0.000D+00 0.678D-11
                            Exc = -34.4876836432     Coul =  313.491376187    
                              N = 41.999940239    
                            current damping = 0.300
 
          Norm of current diis error: 0.29967E-02
          max. resid. norm for Fia-block=  4.546D-05 for orbital     20a         
          max. resid. fock norm         =  1.048D-04 for orbital    424a         

 ITERATION  ENERGY          1e-ENERGY        2e-ENERGY     NORM[dD(SAO)]  TOL
  10  -232.04662238433    -714.69832042     279.00407529    0.000D+00 0.678D-11
                            Exc = -34.4877139813     Coul =  313.491789270    
                              N = 41.999940241    
                            current damping = 0.150
 
          Norm of current diis error: 0.83495E-03
          max. resid. norm for Fia-block=  1.771D-05 for orbital     20a         
          max. resid. fock norm         =  4.220D-05 for orbital      3a         
          mo-orthogonalization: Cholesky decomposition

 ENERGY CONVERGED !

          Overall gridpoints after grid construction =        116758

 ITERATION  ENERGY          1e-ENERGY        2e-ENERGY     NORM[dD(SAO)]  TOL
  11  -232.04655634684    -714.69817978     279.00400069    0.000D+00 0.678D-11
                            Exc = -34.4876457643     Coul =  313.491646457    
                              N = 42.000002436    
                            current damping = 0.200
 
          Norm of current diis error: 0.13436E-03
          max. resid. norm for Fia-block=  2.281D-06 for orbital     21a         
          max. resid. fock norm         =  4.722D-06 for orbital      3a         

 End of SCF iterations

   convergence criteria satisfied after    11 iterations


                  ------------------------------------------ 
                 |  total energy      =   -232.04655634684  |
                  ------------------------------------------ 
                 :  kinetic energy    =    231.02604913115  :
                 :  potential energy  =   -463.07260547799  :
                 :  virial theorem    =      1.99560214454  :
                 :  wavefunction norm =      1.00000000000  :
                  .......................................... 


 orbitals $scfmo  will be written to file mos

    irrep                 17a         18a         19a         20a         21a   
 eigenvalues H         -0.33320    -0.30208    -0.30201    -0.23257    -0.23253
            eV          -9.0669     -8.2200     -8.2181     -6.3286     -6.3275
 occupation              2.0000      2.0000      2.0000      2.0000      2.0000 

    irrep                 22a         23a         24a         25a         26a   
 eigenvalues H         -0.04400    -0.04399     0.00735     0.03342     0.03344
            eV          -1.1972     -1.1971      0.2000      0.9095      0.9098
 
 
 
 
 ==============================================================================
                           electrostatic moments
 ==============================================================================

 reference point for electrostatic moments:    0.00000   0.00000   0.00000

 
              nuc           elec       ->  total
 ------------------------------------------------------------------------------
                          charge      
 ------------------------------------------------------------------------------
          42.000000     -42.000000       0.000000
 
 ------------------------------------------------------------------------------
                       dipole moment  
 ------------------------------------------------------------------------------
   x      -5.366974       5.367402       0.000427
   y      -6.083991       6.083896      -0.000095
   z      33.213903     -33.211475       0.002428
 
   | dipole moment | =     0.0025 a.u. =     0.0063 debye 
 
 ------------------------------------------------------------------------------
                     quadrupole moment
 ------------------------------------------------------------------------------
  xx     189.578343    -213.579244     -24.000901
  yy     191.366952    -215.324960     -23.958008
  zz      28.039681     -57.464945     -29.425264
  xy       0.435501      -0.446530      -0.011029
  xz     -22.220905      21.704785      -0.516119
  yz      -8.240619       8.134314      -0.106305
 
     1/3  trace=     -25.794725
     anisotropy=       5.521922
 
 ==============================================================================
 


    ------------------------------------------------------------------------
         total  cpu-time :  1 minutes and 33 seconds
         total wall-time :  19.18 seconds
    ------------------------------------------------------------------------

   ****  ridft : all done  ****


    2019-03-12 22:25:50.910 

