 this is node-proc. number 0 running on node c-4-7.local
 the total number of node-proc. spawned is  33

 dscfserver (c-4-7.local) : TURBOMOLE V7.2 ( 21471 ) 7 Nov 2017 at 16:15:16
 Copyright (C) 2017 TURBOMOLE GmbH, Karlsruhe


    2018-02-19 20:20:02.461 

 
    0:00:23 ---- Start global counter...
    0:03:51 ---- ... finished.
 
    0:04:23 ---- Start global counter...
    0:07:50 ---- ... finished.
 
    0:08:21 ---- Start global counter...
    0:11:44 ---- ... finished.
 
    0:12:15 ---- Start global counter...
    0:15:25 ---- ... finished.
 
    0:15:56 ---- Start global counter...
    0:18:57 ---- ... finished.
 
    0:19:34 ---- Start global counter...
    0:22:21 ---- ... finished.
 
    0:22:53 ---- Start global counter...
    0:25:25 ---- ... finished.
 
    0:25:56 ---- Start global counter...
    0:28:16 ---- ... finished.
 
    0:28:47 ---- Start global counter...
    0:30:59 ---- ... finished.
 
    0:31:30 ---- Start global counter...
    0:33:28 ---- ... finished.
 
    0:34:06 ---- Start global counter...
    0:36:01 ---- ... finished.
 
    0:36:33 ---- Start global counter...
    0:38:20 ---- ... finished.
 
    0:38:52 ---- Start global counter...
    0:40:28 ---- ... finished.
 
    0:40:59 ---- Start global counter...
    0:42:31 ---- ... finished.
 
    0:42:59 ---- ByeBye Tag received


 ! Total wall-clock time in seconds  :     2578.9
 ! Time (sec) spent in global counter:     2105.9
 ! So-called SERIAL wall-clock time  :      472.9

  *** Regular termination of server ***
 total turnaround time of dscfserver  2579.21 sec
 cpu elapsed by dscfserver process    2107.00 sec 

   ***  dscf server : all done  ***


    2018-02-19 21:03:01.674 

