 operating system is UNIX !

 ridft (c-17-26.gp.local) : TURBOMOLE V7.2 ( 21454 ) 4 Oct 2017 at 12:48:15
 Copyright (C) 2017 TURBOMOLE GmbH, Karlsruhe


    2018-04-28 11:07:51.203 



                                  r i d f t

                        DFT program with RI approximation 
                                for coulomb part 




                                                 
                                 References:     
                                                 
          TURBOMOLE:                             
              R. Ahlrichs, M. Baer, M. Haeser, H. Horn, and
              C. Koelmel
              Electronic structure calculations on workstation
              computers: the program system TURBOMOLE
              Chem. Phys. Lett. 162: 165 (1989)
          Density Functional:                              
              O. Treutler and R. Ahlrichs                      
              Efficient Molecular Numerical Integration Schemes
              J. Chem. Phys. 102: 346 (1995)                   
          Parallel Version:                                
              Performance of parallel TURBOMOLE for Density    
              Functional Calculations                          
              M. v. Arnim and R. Ahlrichs                      
              J. Comp. Chem. 19: 1746 (1998)                   
          RI-J Method:                                     
              Auxiliary Basis Sets to approximate Coulomb      
              Potentials                                       
              Chem. Phys. Lett. 240: 283 (1995)                
              K. Eichkorn, O. Treutler, H. Oehm, M. Haeser     
              and R. Ahlrichs                                  
              Chem. Phys. Lett. 242: 652 (1995)                
                                                           
              Auxiliary Basis Sets for Main Row Atoms and their
              Use to approximate Coulomb Potentials            
              K. Eichkorn, F. Weigend, O. Treutler and         
              R. Ahlrichs                                      
              Theo. Chem. Acc. 97: 119 (1997)                   
                                                           
              Accurate Coulomb-fitting basis sets for H to Rn 
              F. Weigend                                        
              Phys. Chem. Chem. Phys. 8: 1057 (2006)            
                                                           
          Multipole accelerated RI-J (MARI-J):             
              Fast evaluation of the Coulomb potential for     
              electron densities using multipole accelerated   
              resolution of identity approximation             
              M. Sierka, A. Hogekamp and R. Ahlrichs           
              J. Chem. Phys. 118: 9136 (2003)                  
          RI-JK Method:                                     
              A fully direct RI-HF algorithm: Implementation,
              optimised auxiliary basis sets, demonstration of
              accuracy and efficiency                         
              F. Weigend                                      
              Phys. Chem. Chem. Phys. 4: 4285 (2002)           
          Two-component HF and DFT with spin-orbit coupling:  
              Self-consistent treatment of spin-orbit         
              interactions with efficient Hartree-Fock and    
              density functional methods                      
              M. K. Armbruster, F. Weigend, C. van Wüllen and 
              W. Klopper                                      
              Phys. Chem. Chem. Phys. 10: 1748 (2008)         
          Relativistic all-electron 2c calculations           
              An efficient implementation of two-component    
              relativistic exact-decoupling methods for large 
              molecules                                       
              D. Peng, N. Middendorf, F. Weigend, M. Reiher   
              J. Chem. Phys. 138, 184105 (2013)               
                                         




              +--------------------------------------------------+
              |      general information about current run       |
              +--------------------------------------------------+

 

 DENSITY CONVERGENCE CHECK SWITCHED ON !
 SCF CONVERGENCE IF RMS(delta[D]) <     0.1000000000E-06

 A HF calculation using the RI-JK approximation will be carried out.
 Allocatable memory for RI due to $ricore (MB):                   500


              +--------------------------------------------------+
              | Atomic coordinate, charge and isotop information |
              +--------------------------------------------------+

                    atomic coordinates            atom    charge  isotop
         -1.00810080   -0.52835517    0.20219268    n      7.000     0
         -1.18892380   -2.35918050    0.72347913    h      1.000     0
         -2.12141343   -0.31399584   -1.33748032    h      1.000     0
         -1.92168032    1.11207757    2.24381065    c      6.000     0
         -1.72486581    3.07184761    1.66205412    h      1.000     0
         -3.88289071    0.78439155    2.79396688    h      1.000     0
         -0.72758874    0.84811078    3.89399648    h      1.000     0
          3.95570402    1.73346725    0.40080572    o      8.000     0
          2.41082001    0.79564817    0.07359415    h      1.000     0
          5.05533840    1.24497707   -0.95175838    h      1.000     0
 
       center of nuclear mass  :    0.48683024    0.77018879    0.87844484
       center of nuclear charge:    0.38854716    0.74691129    0.89080394

              +--------------------------------------------------+
              |               basis set information              |
              +--------------------------------------------------+

              we will work with the 1s 3p 5d 7f 9g ... basis set
              ...i.e. with spherical basis functions...

   type   atoms  prim   cont   basis
   ---------------------------------------------------------------------------
    n        1     77     57   def2-QZVP   [7s4p3d2f1g|15s8p3d2f1g]
    h        7     33     30   def2-QZVP   [4s3p2d1f|7s3p2d1f]
    c        1     77     57   def2-QZVP   [7s4p3d2f1g|15s8p3d2f1g]
    o        1     77     57   def2-QZVP   [7s4p3d2f1g|15s8p3d2f1g]
   ---------------------------------------------------------------------------
   total:   10    462    381
   ---------------------------------------------------------------------------

   total number of primitive shells          :  100
   total number of contracted shells         :  121
   total number of cartesian basis functions :  461
   total number of SCF-basis functions       :  381


 integral neglect threshold       :  0.72E-13
 integral storage threshold THIZE :  0.10E-04
 integral storage threshold THIME :         5

 RI-JK AUXILIARY BASIS SET information:

              we will work with the 1s 3p 5d 7f 9g ... basis set
              ...i.e. with spherical basis functions...

   type   atoms  prim   cont   basis
   ---------------------------------------------------------------------------
    n        1     97     77   def2-QZVP   [10s8p4d2f1g|14s10p6d2f1g]
    h        7     20     18   def2-QZVP   [2s2p2d|4s2p2d]
    c        1     97     75   def2-QZVP   [10s8p5d1f1g|14s10p6d2f1g]
    o        1     97     77   def2-QZVP   [10s8p4d2f1g|14s10p6d2f1g]
   ---------------------------------------------------------------------------
   total:   10    431    355
   ---------------------------------------------------------------------------

   total number of primitive shells          :  107
   total number of contracted shells         :  117
   total number of cartesian basis functions :  415
   total number of SCF-basis functions       :  355


 symmetry group of the molecule :   c1 

 the group has the following generators :
   c1(z)

    1 symmetry operations found

 there are 1 real representations :   a   

 maximum number of shells which are related by symmetry :  1


    mo occupation :
   irrep   mo's   occupied
    a      381       14
 
 number of basis functions   :                    381
 number of occupied orbitals :                     14
 

 biggest AO integral is expected to be     6.990327543
  
           ------------------------
               RI-JK - INFORMATION
           ------------------------
 Contributions to RI integral batches: 
  neglected integral batches:                   799
  direct contribution:                         4789
  memory contribution:                  1793
 Memory core needed for (P|Q) and Cholesky      1 MByte
 Memory core minimum needed except of (P|Q)     1 MByte
 Total minimum memory core needed (sum)         2 MByte
  
 ****************************************
 Memory allocated for RI-J    22 MByte
 ****************************************
                                            
 total memory allocated for calculation of  (Q|P)**(-1/2) :    2 MiB

  forming (P|Q)**(-1/2) 
 eigenvalues of original matrix 
 smallest =0.3035749926994E-06  largest = 20.76297451027    
  The symmetry information takes                      1  MB

          ------------------------
          nuclear repulsion energy  :   81.8784415431    
          ------------------------


         -----------------
         -S,T+V- integrals
         -----------------

 1e-integrals will be neglected if expon. factor < 0.724937E-14
 
   Difference densities algorithm switched on.
   The maximal number of linear combinations of
   difference densities is                    20 .

 DIIS switched on: error vector is FDS-SDF
 Max. Iterations for DIIS is     :   5
 DIIS matrix (see manual) 
    Scaling factor of diagonals  :  1.200
    threshold for scaling factor :  0.000

 scf convergence criterion : increment of total energy < .1000000D-08
                  and increment of one-electron energy < .1000000D-05

  MOs are in ASCII format !


 automatic virtual orbital shift switched on 
      shift if e(lumo)-e(homo) < 0.10000000    


 reading orbital data $scfmo  from file mos
 orbital characterization : scfconv=9

 DSCF restart information will be dumped onto file mos


 Starting SCF iterations

 
 BLOCKING OF MOS FOR RI-K
 
 
 occupied MOs partitioned into blocks of maximum length 14
 this requires 18 MiB core memory.
 
            MULTIPLE PASS Statistics 
 ----------------------------------------------------
  pass       irrep     lambda      batch : MO  to  MO
 ----------------------------------------------------
   1       1  ->  1    1  -> 14             1  ->  14



 ENERGY & DENSITY CONVERGED !


 ITERATION  ENERGY          1e-ENERGY        2e-ENERGY     RMS[dD(SAO)]   TOL
   1  -171.31309476157    -396.09573875     142.90420244    0.000D+00 0.723D-13
                           RI-K = -22.5112046824     Coul =  165.415407127    
                            current damping = 0.700
 
          max. resid. norm for Fia-block=  1.175D-01 for orbital      1a         
          max. resid. fock norm         =  6.875D-01 for orbital    378a         

 End of SCF iterations

   convergence criteria satisfied after     1 iterations


                  ------------------------------------------ 
                 |  total energy      =   -171.31309476157  |
                  ------------------------------------------ 
                 :  kinetic energy    =    171.74739003183  :
                 :  potential energy  =   -343.06048479341  :
                 :  virial theorem    =      2.00253509675  :
                 :  wavefunction norm =      1.00000000000  :
                  .......................................... 


 orbitals $scfmo  will be written to file mos

    irrep                 10a         11a         12a         13a         14a   
 eigenvalues H         -0.56364    -0.52324    -0.55439    -0.47322    -0.41180
            eV         -15.3375    -14.2382    -15.0859    -12.8771    -11.2058
 occupation              2.0000      2.0000      2.0000      2.0000      2.0000 

    irrep                 15a         16a         17a         18a         19a   
 eigenvalues H          0.10767     0.14116     0.15139     0.15479     0.18521
            eV           2.9298      3.8413      4.1195      4.2121      5.0397
 
 
 
 
 ==============================================================================
                           electrostatic moments
 ==============================================================================

 reference point for electrostatic moments:    0.00000   0.00000   0.00000

 
              nuc           elec       ->  total
 ------------------------------------------------------------------------------
                          charge      
 ------------------------------------------------------------------------------
          28.000000     -28.000000      -0.000000
 
 ------------------------------------------------------------------------------
                       dipole moment  
 ------------------------------------------------------------------------------
   x      10.879321     -11.847453      -0.968133
   y      20.913516     -21.594263      -0.680747
   z      24.942510     -25.337289      -0.394778
 
   | dipole moment | =     1.2476 a.u. =     3.1711 debye 
 
 ------------------------------------------------------------------------------
                     quadrupole moment
 ------------------------------------------------------------------------------
  xx     210.315578    -226.322755     -16.007177
  yy      52.031843     -68.291456     -16.259614
  zz      60.734871     -75.401306     -14.666434
  xy      48.484407     -50.368840      -1.884434
  xz     -33.819952      31.280592      -2.539361
  yz      27.968675     -28.743060      -0.774385
 
     1/3  trace=     -15.644408
     anisotropy=       5.830704
 
 ==============================================================================
 


    ------------------------------------------------------------------------
         total  cpu-time :   3.82 seconds
         total wall-time :   3.82 seconds
    ------------------------------------------------------------------------

   ****  ridft : all done  ****


    2018-04-28 11:07:55.006 

