Using Slurm to start processes with PMI2
STARTING ridft ON 8 PROCESSORS!
RUNNING PROGRAM /modfac/apps/TURBOMOLE/7.0_intel_GA/bin/em64t-unknown-linux-gnu_mpi/ridft_mpi.
PLEASE WAIT UNTIL ridft HAS FINISHED.
Look for the output in slave1.output.
  this is node-proc. number 1 running on node c-16-42.local
  the total number of node-proc. spawned is            8
  parallel platform: MPP, or cluster with fast interconnect

 ridft (c-16-42.local) : TURBOMOLE V7.0.2( ) 15 Jan 2016 at 17:47:42
 Copyright (C) 2016 TURBOMOLE GmbH, Karlsruhe


    2016-02-15 18:47:26.283 



                                  r i d f t

                        DFT program with RI approximation 
                                for coulomb part 




                                                 
                                 References:     
                                                 
          TURBOMOLE:                             
              R. Ahlrichs, M. Baer, M. Haeser, H. Horn, and
              C. Koelmel
              Electronic structure calculations on workstation
              computers: the program system TURBOMOLE
              Chem. Phys. Lett. 162: 165 (1989)
          Density Functional:                              
              O. Treutler and R. Ahlrichs                      
              Efficient Molecular Numerical Integration Schemes
              J. Chem. Phys. 102: 346 (1995)                   
          Parallel Version:                                
              Performance of parallel TURBOMOLE for Density    
              Functional Calculations                          
              M. v. Arnim and R. Ahlrichs                      
              J. Comp. Chem. 19: 1746 (1998)                   
          RI-J Method:                                     
              Auxiliary Basis Sets to approximate Coulomb      
              Potentials                                       
              Chem. Phys. Lett. 240: 283 (1995)                
              K. Eichkorn, O. Treutler, H. Oehm, M. Haeser     
              and R. Ahlrichs                                  
              Chem. Phys. Lett. 242: 652 (1995)                
                                                           
              Auxiliary Basis Sets for Main Row Atoms and their
              Use to approximate Coulomb Potentials            
              K. Eichkorn, F. Weigend, O. Treutler and         
              R. Ahlrichs                                      
              Theo. Chem. Acc. 97: 119 (1997)                   
                                                           
              Accurate Coulomb-fitting basis sets for H to Rn 
              F. Weigend                                        
              Phys. Chem. Chem. Phys. 8: 1057 (2006)            
                                                           
          Multipole accelerated RI-J (MARI-J):             
              Fast evaluation of the Coulomb potential for     
              electron densities using multipole accelerated   
              resolution of identity approximation             
              M. Sierka, A. Hogekamp and R. Ahlrichs           
              J. Chem. Phys. 118: 9136 (2003)                  
          RI-JK Method:                                     
              A fully direct RI-HF algorithm: Implementation,
              optimised auxiliary basis sets, demonstration of
              accuracy and efficiency                         
              F. Weigend                                      
              Phys. Chem. Chem. Phys. 4: 4285 (2002)           
          Two-component HF and DFT with spin-orbit coupling:  
              Self-consistent treatment of spin-orbit         
              interactions with efficient Hartree-Fock and    
              density functional methods                      
              M. K. Armbruster, F. Weigend, C. van Wüllen and 
              W. Klopper                                      
              Phys. Chem. Chem. Phys. 10: 1748 (2008)         
          Relativistic all-electron 2c calculations           
              An efficient implementation of two-component    
              relativistic exact-decoupling methods for large 
              molecules                                       
              D. Peng, N. Middendorf, F. Weigend, M. Reiher   
              J. Chem. Phys. 138, 184105 (2013)               
                                         


 


              +--------------------------------------------------+
              |      general information about current run       |
              +--------------------------------------------------+

 

 SCF run will be profiled !


 DENSITY CONVERGENCE CHECK SWITCHED ON !
 SCF CONVERGENCE IF RMS(delta[D]) <     0.1000000000E-06

 TPSS meta-GGA functional
 exchange:    LDA + TPSS
 correlation: LDA (PW) + TPSS
 A DFT calculation using the RI-J approximation will be carried out.
 Allocatable memory for RI due to $ricore (MB):        5000


              +--------------------------------------------------+
              | Atomic coordinate, charge and isotop information |
              +--------------------------------------------------+

                    atomic coordinates            atom    charge  isotop
         -0.14463964    5.74559892   -3.37884922    c      6.000     0
         -0.61612631   -5.99222708    3.25881382    c      6.000     0
        -11.09118062   -1.05809546    0.43667791    c      6.000     0
        -10.77578533    0.54255927   -2.00218374    c      6.000     0
         -0.76216434    7.83531477   -5.39467678    c      6.000     0
         -1.28688460   -8.09815678    5.23771613    c      6.000     0
        -13.51191980   -2.65060546    0.28045426    c      6.000     0
        -13.09960045    2.23983569   -2.38974767    c      6.000     0
         -6.78184915   -0.24829112    4.07275666    c      6.000     0
         -5.88636462   -0.31161584   -4.81770560    c      6.000     0
        -15.83543256   -0.97237748   -0.14101136    c      6.000     0
        -15.52803081    0.66406866   -2.51222082    c      6.000     0
          8.53611971    2.91097193   -6.97325951    c      6.000     0
          7.54280406   -2.63913483    7.57060194    c      6.000     0
          6.36234884   -9.42837280   -2.41078032    c      6.000     0
          6.11112865    9.62834362    2.81748718    c      6.000     0
          3.76622418    6.50780106   -1.48398303    c      6.000     0
          3.48764076   -6.53765873    1.72462076    c      6.000     0
         -0.38104438    6.86614983   -0.80205646    c      6.000     0
         -0.55652435   -7.12989890    0.67776917    c      6.000     0
          2.13658106   -5.25547955    3.55141901    c      6.000     0
          2.65825885    5.17286073   -3.43217729    c      6.000     0
          7.88338941    5.44380966   -2.98973571    c      6.000     0
          7.39277871   -5.25670788    3.58545298    c      6.000     0
         -4.84193189   -4.15036771    1.94781631    c      6.000     0
         -4.35666911    3.64773835   -2.47476645    c      6.000     0
          4.19443612    3.97294132   -5.24880882    c      6.000     0
          3.43792206   -3.95090712    5.47245791    c      6.000     0
         -2.66432487   -3.98539462    3.56496835    c      6.000     0
         -2.03725705    3.62988044   -3.89173979    c      6.000     0
          6.13303058   -6.61593119    1.58281571    c      6.000     0
          6.37918630    6.71963936   -1.10395911    c      6.000     0
         -8.50902104    2.09323074   -1.84832223    n      7.000     0
         -8.91366809   -2.70062651    0.77537353    n      7.000     0
          6.83508273    4.12085019   -5.04214837    c      6.000     0
          6.09563290   -3.95625504    5.50668085    c      6.000     0
         -6.29875956    1.83577445   -3.01965008    c      6.000     0
         -6.88192904   -2.39721209    2.22706114    c      6.000     0
         -4.89038446   -6.01889112   -0.12791556    c      6.000     0
         -4.71206991    5.51081935   -0.42526397    c      6.000     0
         -2.58123362   -7.35545662   -0.82363714    c      6.000     0
         -2.55978523    6.97511144    0.48887215    c      6.000     0
          7.61570970    8.13283326    0.91296449    c      6.000     0
          7.60593981   -7.90298587   -0.34729387    c      6.000     0
          1.87385243   -7.76938223    0.01364382    o      8.000     0
          1.93252843    7.63967143    0.07672288    o      8.000     0
          9.91972049   -5.18964150    3.63891333    o      8.000     0
         10.40354707    5.48075381   -2.80085759    o      8.000     0
          2.17938335   -2.68046314    7.27518105    o      8.000     0
          3.17545800    2.66610122   -7.17589484    o      8.000     0
          9.97344541    8.14778099    1.07901472    o      8.000     0
          9.97227378   -7.76664213   -0.32784859    o      8.000     0
         -6.81289735   -6.34781685   -1.49607728    o      8.000     0
         -6.77519731    5.72825124    0.75080709    o      8.000     0
         -2.38846265   -2.45352592    5.35126977    o      8.000     0
         -1.52060593    2.16564505   -5.67832467    o      8.000     0
         10.78015059    6.50379484   -1.20995385    h      1.000     0
         10.48542891   -6.18724682    2.09054733    h      1.000     0
         -8.48685455    3.63105207   -0.58957566    h      1.000     0
         -8.69750232   -4.25651363   -0.44508720    h      1.000     0
          1.30644326    2.45870377   -6.82650337    h      1.000     0
          0.34653798   -2.57053777    6.74031297    h      1.000     0
        -11.24564683    0.23948499    2.03644447    h      1.000     0
        -10.61740738   -0.75401962   -3.60140227    h      1.000     0
         -2.53644711   -8.25935042   -2.66003520    h      1.000     0
         -2.75758286    7.90071819    2.30533360    h      1.000     0
        -13.21105650    3.59333314   -0.81968761    h      1.000     0
        -13.32364638   -4.00499108   -1.28161226    h      1.000     0
        -13.69913496   -3.75367640    2.02113769    h      1.000     0
        -12.84161504    3.34026102   -4.12308007    h      1.000     0
        -16.10519097    0.25360125    1.51255569    h      1.000     0
        -15.46840995   -0.55731803   -4.18984409    h      1.000     0
         -6.53108249   -0.97472074    5.98793740    h      1.000     0
         -4.15730301   -1.31740368   -4.31547308    h      1.000     0
        -17.52813585   -2.15307837   -0.29341778    h      1.000     0
        -17.15895895    1.91724055   -2.74097217    h      1.000     0
         -5.13374340    0.92995313    3.69294060    h      1.000     0
         -7.45774749   -1.63918624   -4.80918293    h      1.000     0
          6.34564366   -1.24542401    8.50682895    h      1.000     0
          7.53586877    1.41744578   -7.98492439    h      1.000     0
         -8.46449909    0.93084130    3.98575367    h      1.000     0
         -5.58969652    0.41273508   -6.72991947    h      1.000     0
          9.22791065   -1.71643825    6.81624216    h      1.000     0
         10.23267804    2.14595410   -6.07911669    h      1.000     0
          7.83231011  -10.14096963   -3.66603090    h      1.000     0
          7.42458280   10.49763654    4.14590796    h      1.000     0
          0.04990767   -9.66165949    5.05760633    h      1.000     0
          0.46156561    9.46936096   -5.08544200    h      1.000     0
          4.78062917    8.41483709    3.82909537    h      1.000     0
          5.01368909   -8.28557982   -3.48027082    h      1.000     0
         -1.14785745   -7.29793335    7.13624838    h      1.000     0
         -0.41141228    7.06561042   -7.27833689    h      1.000     0
         -2.73974384    8.41368435   -5.23573192    h      1.000     0
         -3.20641171   -8.79212091    4.91485642    h      1.000     0
          5.29350084  -11.00364850   -1.59885949    h      1.000     0
          4.98761087   11.08602167    1.87184932    h      1.000     0
          8.76190419    4.19821558   -8.52457348    h      1.000     0
          8.17506863   -4.00000220    9.00087895    h      1.000     0
          6.86066962   -0.25076666   -0.09694295    c      6.000     0
          4.86940850    1.94114558    3.23026006    c      6.000     0
          4.20879804   -0.45650114   -0.46137664    c      6.000     0
          2.95224355    0.97557112    1.62093149    c      6.000     0
          3.45118794   -1.86943047   -2.58206510    c      6.000     0
          7.77932219   -2.63093341   -3.75762593    c      6.000     0
          1.82375579    3.82709226    5.89384794    c      6.000     0
          5.22499827   -2.91924893   -4.23200388    c      6.000     0
          7.39593455    1.24124771    2.23475233    c      6.000     0
          4.35997613    3.34619476    5.36978909    c      6.000     0
          8.66123848   -1.29533168   -1.67119820    c      6.000     0
         -0.10911279    2.94814284    4.35071648    c      6.000     0
          0.43881331    1.52094608    2.20109631    c      6.000     0
          0.80439972   -2.45021890   -3.21332811    n      7.000     0
          9.60630941   -3.78408209   -5.53232443    n      7.000     0
          1.16443035    5.34758481    8.13957958    n      7.000     0
         -0.83206531   -1.89560318   -1.63960198    o      8.000     0
          0.35010956   -3.51392685   -5.23051627    o      8.000     0
         11.85262687   -3.28175509   -5.20935134    o      8.000     0
          2.92111976    6.11630650    9.46543033    o      8.000     0
          8.74843044   -5.15564532   -7.21117603    o      8.000     0
         -1.09723168    5.76691503    8.53587404    o      8.000     0
          9.46318156    1.76254756    3.09975557    o      8.000     0
         -1.08874681    0.86027892    1.03088340    h      1.000     0
          4.58712121   -3.95986442   -5.87111453    h      1.000     0
         -2.04330418    3.38253419    4.85308127    h      1.000     0
         10.66179705   -1.07774861   -1.29376320    h      1.000     0
          5.85758409    4.05157283    6.57549105    h      1.000     0
 
       center of nuclear mass  :    1.05148406    0.00013320    0.07352086
       center of nuclear charge:    0.93676777   -0.00032400    0.06465370

              +--------------------------------------------------+
              |               basis set information              |
              +--------------------------------------------------+

              we will work with the 1s 3p 5d 7f 9g ... basis set
              ...i.e. with spherical basis functions...

   type   atoms  prim   cont   basis
   ---------------------------------------------------------------------------
    c       55     50     30   cc-pVTZ   [4s3p2d1f|18s5p2d1f]
    n        5     50     30   cc-pVTZ   [4s3p2d1f|18s5p2d1f]
    o       19     50     30   cc-pVTZ   [4s3p2d1f|18s5p2d1f]
    h       47     16     14   cc-pVTZ   [3s2p1d|5s2p1d]
   ---------------------------------------------------------------------------
   total:  126   4702   3028
   ---------------------------------------------------------------------------

   total number of primitive shells          :   86
   total number of contracted shells         : 1072
   total number of cartesian basis functions : 3470
   total number of SCF-basis functions       : 3028


 integral neglect threshold       :  0.96E-14
 integral storage threshold THIZE :  0.10E-04
 integral storage threshold THIME :         5

 RI-J AUXILIARY BASIS SET information:

              we will work with the 1s 3p 5d 7f 9g ... basis set
              ...i.e. with spherical basis functions...

   type   atoms  prim   cont   basis
   ---------------------------------------------------------------------------
    c       55     70     49   cc-pVTZ   [6s4p3d1f1g|12s5p4d2f1g]
    n        5     70     49   cc-pVTZ   [6s4p3d1f1g|12s5p4d2f1g]
    o       19     70     49   cc-pVTZ   [6s4p3d1f1g|12s5p4d2f1g]
    h       47     16     11   cc-pVTZ   [3s1p1d|5s2p1d]
   ---------------------------------------------------------------------------
   total:  126   6282   4388
   ---------------------------------------------------------------------------

   total number of primitive shells          :   80
   total number of contracted shells         : 1420
   total number of cartesian basis functions : 5383
   total number of SCF-basis functions       : 4388


 symmetry group of the molecule :   c1 

 the group has the following generators :
   c1(z)

    1 symmetry operations found

 there are 1 real representations :   a   

 maximum number of shells which are related by symmetry :  1


    mo occupation :
   irrep   mo's   occupied
    a     3028      282
 
 number of basis functions   :         3028
 number of occupied orbitals :          282
 
  
           ------------------
           density functional
           ------------------
 TPSS meta-GGA functional
 exchange:    LDA + TPSS
 correlation: LDA (PW) + TPSS
 grinp -> nfun, dfgga, dfhybrid 
           5 F F
 iterations will be done with small grid
  
 spherical integration : Lebedev's spherical grid
 spherical gridsize    :           5
    i.e. gridpoints    :         590
 value for diffuse not defined
 radial integration    : Chebyshev 2nd kind (scaling 3)
 radial gridsize       :           8
 integration cells     :         126
 partition function    : becke
 partition sharpness   :           3
  

 <rddim> : input of entry tasksize
           from data group '$pardft' failed !

               Default values taken

 <rddim> : input of entry memdiv
           from data group '$pardft' failed !

               Default values taken
  RIDFT: memory allocation for DFT gridpoints
  MEMORY is divided by 1 as DEFAULT
 Each node can hold at most  the            1 -th part
 of the gridpoints    

 biggest AO integral is expected to be     4.866064444
  
           ------------------------
               RI-J - INFORMATION
           ------------------------
 
 
 **************************************************
 *      MEMORY ALLOCATION FOR PARALLEL RI-DFT     *
 **************************************************
 
 
MEMORY FOR (MU NU/ ALPHA), SEQUENTIAL RUN               4846 MByte
 
            DIFFERENCE IN MEMORY NEED:       DIAG./SLAVE  
 
      TOTAL DIFFERENCE :                    520 MByte
 
      difference in xcore:                  155 MByte
      difference in fatmat:                 134 MByte
      getcor calls skipped by slaves:       232 MByte
 
 
           Integral memory available for diagonal.      4846 MByte
 
           Integral memory available for slave             0 MByte
 
         MEMORY FOR (MU NU/ ALPHA) ON DIAGONALIZER      4846 MByte
 
         MEMORY FOR (MU NU/ ALPHA) ON ONE SLAVE            0 MByte
 
         TOTAL MEMORY FOR (MU NU/ ALPHA),ALL NODES      4846 MByte
 
 Contributions to RI integral batches: 
  neglected integral batches:      342188
  direct contribution:             189509
  memory contribution:       43431
 Memory core needed for (P|Q) and Cholesky    147 MByte
 Memory core minimum needed except of (P|Q)     9 MByte
 Total minimum memory core needed (sum)       156 MByte
     number of direct tasks:         160
  
 ****************************************
 Memory allocated for RI-J  5001 MByte
 ****************************************
                                            

          ------------------------
          nuclear repulsion energy  :   15887.6313224    
          ------------------------

 
          -----------------
          -S integrals
          -----------------

 1e-integrals will be neglected if expon. factor < 0.963101E-15
 
          -----------------
          -T+V integrals
          -----------------

 1e-integrals will be neglected if expon. factor < 0.963101E-15
 Difference densities >>NOT<< switched on in parallel ridft!

 automatic virtual orbital shift switched on 
      shift if e(lumo)-e(homo) < 0.10000000    


 DIIS switched on: error vector is FDS-SDF
 Max. Iterations for DIIS is     :   4
 DIIS matrix (see manual) 
    Scaling factor of diagonals  :  1.200
    threshold for scaling factor :  0.000

 scf convergence criterion : increment of total energy < .1000000D-08
                  and increment of one-electron energy < .1000000D-05


 <geterg> : there is no data group $energy 

  MOs are in ASCII format !


 reading orbital data $scfmo  from file mos . 

 orbital characterization : expanded
 
 mo provided and orthogonalized by Cholesky decomposition

 DSCF restart information will be dumped onto file mos


 Starting SCF iterations


 ITERATION  ENERGY          1e-ENERGY        2e-ENERGY     RMS[dD(SAO)]   TOL
   1  -3813.3950025121    -36748.690225     17047.663900    0.000D+00 0.961D-14
                            Exc = -510.452354276     Coul =  17558.1162540    
                              N = 563.99935284    
                            current damping = 0.700
 
          max. resid. norm for Fia-block=  3.963D-01 for orbital    169a         
          max. resid. fock norm         =  4.347D+00 for orbital   2844a         

 ITERATION  ENERGY          1e-ENERGY        2e-ENERGY     RMS[dD(SAO)]   TOL
   2  -3826.3168729705    -36861.847297     17147.899102    0.307D-02 0.961D-14
                            Exc = -511.608292949     Coul =  17659.5073948    
                              N = 563.99942656    
                            current damping = 0.650
 
          Norm of current diis error:  7.0457    
          max. resid. norm for Fia-block=  1.613D-01 for orbital     16a         
          max. resid. fock norm         =  4.455D-01 for orbital   3007a         

 ITERATION  ENERGY          1e-ENERGY        2e-ENERGY     RMS[dD(SAO)]   TOL
   3  -3828.1450534788    -36885.545204     17169.768828    0.153D-02 0.961D-14
                            Exc = -514.543726641     Coul =  17684.3125547    
                              N = 563.99950710    
                            current damping = 0.550
 
          Norm of current diis error:  3.5030    
          max. resid. norm for Fia-block=  6.416D-02 for orbital     15a         
          max. resid. fock norm         =  9.484D-02 for orbital    283a         

 ITERATION  ENERGY          1e-ENERGY        2e-ENERGY     RMS[dD(SAO)]   TOL
   4  -3828.7429916651    -36902.876425     17186.502111    0.122D-02 0.961D-14
                            Exc = -514.164884370     Coul =  17700.6669956    
                              N = 563.99951580    
                            current damping = 0.450
 
          Norm of current diis error:  1.6739    
          max. resid. norm for Fia-block=  4.816D-02 for orbital    258a         
          max. resid. fock norm         =  8.742D-02 for orbital   2958a         

 ITERATION  ENERGY          1e-ENERGY        2e-ENERGY     RMS[dD(SAO)]   TOL
   5  -3828.8163216888    -36893.155137     17176.707493    0.583D-03 0.961D-14
                            Exc = -515.026926986     Coul =  17691.7344200    
                              N = 563.99951521    
                            current damping = 0.500
 
          Norm of current diis error:  1.4128    
          max. resid. norm for Fia-block=  3.665D-02 for orbital    255a         
          max. resid. fock norm         =  6.498D-02 for orbital   2866a         
          irrep a   : virtual orbitals shifted by    0.01949
          mo-orthogonalization: Cholesky decomposition

 ITERATION  ENERGY          1e-ENERGY        2e-ENERGY     RMS[dD(SAO)]   TOL
   6  -3828.8929358907    -36905.342413     17188.818155    0.334D-03 0.961D-14
                            Exc = -515.213867642     Coul =  17704.0320222    
                              N = 563.99952122    
                            current damping = 0.550
 
          Norm of current diis error: 0.60301    
          max. resid. norm for Fia-block=  1.992D-02 for orbital    254a         
          max. resid. fock norm         =  3.535D-02 for orbital     87a         
          irrep a   : virtual orbitals shifted by    0.02716

 ITERATION  ENERGY          1e-ENERGY        2e-ENERGY     RMS[dD(SAO)]   TOL
   7  -3828.9086174075    -36904.862949     17188.323009    0.172D-03 0.961D-14
                            Exc = -515.072759265     Coul =  17703.3957682    
                              N = 563.99951595    
                            current damping = 0.600
 
          Norm of current diis error: 0.27211    
          max. resid. norm for Fia-block=  9.811D-03 for orbital    253a         
          max. resid. fock norm         =  1.553D-02 for orbital   2866a         
          irrep a   : virtual orbitals shifted by    0.02630

 ITERATION  ENERGY          1e-ENERGY        2e-ENERGY     RMS[dD(SAO)]   TOL
   8  -3828.9104837849    -36903.851594     17187.309788    0.840D-04 0.961D-14
                            Exc = -515.027257483     Coul =  17702.3370450    
                              N = 563.99950724    
                            current damping = 0.500
 
          Norm of current diis error: 0.20147    
          max. resid. norm for Fia-block=  3.882D-03 for orbital    254a         
          max. resid. fock norm         =  6.224D-03 for orbital   2866a         
          irrep a   : virtual orbitals shifted by    0.03232

 ITERATION  ENERGY          1e-ENERGY        2e-ENERGY     RMS[dD(SAO)]   TOL
   9  -3828.9123109014    -36903.532649     17186.989016    0.300D-04 0.961D-14
                            Exc = -515.077943857     Coul =  17702.0669597    
                              N = 563.99950800    
                            current damping = 0.350
 
          Norm of current diis error: 0.45254E-01
          max. resid. norm for Fia-block=  1.127D-03 for orbital    259a         
          max. resid. fock norm         =  1.716D-03 for orbital   2824a         
          irrep a   : virtual orbitals shifted by    0.03957

 ITERATION  ENERGY          1e-ENERGY        2e-ENERGY     RMS[dD(SAO)]   TOL
  10  -3828.9123333306    -36904.097980     17187.554324    0.141D-04 0.961D-14
                            Exc = -515.083092871     Coul =  17702.6374167    
                              N = 563.99950813    
                            current damping = 0.400
 
          Norm of current diis error: 0.38503E-01
          max. resid. norm for Fia-block=  1.054D-03 for orbital    259a         
          max. resid. fock norm         =  1.651D-03 for orbital   2791a         
          irrep a   : virtual orbitals shifted by    0.03753
          mo-orthogonalization: Cholesky decomposition

 ITERATION  ENERGY          1e-ENERGY        2e-ENERGY     RMS[dD(SAO)]   TOL
  11  -3828.9123933587    -36904.018998     17187.475283    0.793D-05 0.961D-14
                            Exc = -515.084491056     Coul =  17702.5597737    
                              N = 563.99950772    
                            current damping = 0.450
 
          Norm of current diis error: 0.16755E-01
          max. resid. norm for Fia-block=  5.606D-04 for orbital    258a         
          max. resid. fock norm         =  9.131D-04 for orbital    265a         
          irrep a   : virtual orbitals shifted by    0.03529

 ITERATION  ENERGY          1e-ENERGY        2e-ENERGY     RMS[dD(SAO)]   TOL
  12  -3828.9124011645    -36903.907047     17187.363324    0.438D-05 0.961D-14
                            Exc = -515.083730327     Coul =  17702.4470542    
                              N = 563.99950736    
                            current damping = 0.300
 
          Norm of current diis error: 0.11114E-01
          max. resid. norm for Fia-block=  3.347D-04 for orbital    253a         
          max. resid. fock norm         =  5.747D-04 for orbital     85a         
          irrep a   : virtual orbitals shifted by    0.04203

 ITERATION  ENERGY          1e-ENERGY        2e-ENERGY     RMS[dD(SAO)]   TOL
  13  -3828.9124070768    -36903.917837     17187.374107    0.249D-05 0.961D-14
                            Exc = -515.083459377     Coul =  17702.4575666    
                              N = 563.99950718    
                            current damping = 0.350
 
          Norm of current diis error: 0.44707E-02
          max. resid. norm for Fia-block=  1.183D-04 for orbital    253a         
          max. resid. fock norm         =  2.192D-04 for orbital     85a         
          irrep a   : virtual orbitals shifted by    0.03980

 ITERATION  ENERGY          1e-ENERGY        2e-ENERGY     RMS[dD(SAO)]   TOL
  14  -3828.9124080352    -36903.908221     17187.364491    0.917D-06 0.961D-14
                            Exc = -515.082615311     Coul =  17702.4471063    
                              N = 563.99950711    
                            current damping = 0.400
 
          Norm of current diis error: 0.13117E-02
          max. resid. norm for Fia-block=  2.908D-05 for orbital    270a         
          max. resid. fock norm         =  6.662D-05 for orbital   2920a         
          irrep a   : virtual orbitals shifted by    0.03758

 ITERATION  ENERGY          1e-ENERGY        2e-ENERGY     RMS[dD(SAO)]   TOL
  15  -3828.9124080958    -36903.919506     17187.375775    0.405D-06 0.961D-14
                            Exc = -515.083159043     Coul =  17702.4589341    
                              N = 563.99950708    
                            current damping = 0.450
 
          Norm of current diis error: 0.84649E-03
          max. resid. norm for Fia-block=  1.291D-05 for orbital    270a         
          max. resid. fock norm         =  3.447D-05 for orbital   2920a         
          irrep a   : virtual orbitals shifted by    0.03535
          mo-orthogonalization: Cholesky decomposition

 ITERATION  ENERGY          1e-ENERGY        2e-ENERGY     RMS[dD(SAO)]   TOL
  16  -3828.9124081252    -36903.918367     17187.374637    0.167D-06 0.961D-14
                            Exc = -515.083242217     Coul =  17702.4578790    
                              N = 563.99950707    
                            current damping = 0.500
 
          Norm of current diis error: 0.28643E-03
          max. resid. norm for Fia-block=  6.306D-06 for orbital    258a         
          max. resid. fock norm         =  9.828D-06 for orbital    265a         
          irrep a   : virtual orbitals shifted by    0.03312

 DENSITY CONVERGED !


 ITERATION  ENERGY          1e-ENERGY        2e-ENERGY     RMS[dD(SAO)]   TOL
  17  -3828.9124081290    -36903.916830     17187.373099    0.726D-07 0.961D-14
                            Exc = -515.083172573     Coul =  17702.4562717    
                              N = 563.99950706    
                            current damping = 0.350
 
          Norm of current diis error: 0.13655E-03
          max. resid. norm for Fia-block=  5.962D-06 for orbital    259a         
          max. resid. fock norm         =  8.605D-06 for orbital   2791a         
          irrep a   : virtual orbitals shifted by    0.03981

 DENSITY CONVERGED !


 ITERATION  ENERGY          1e-ENERGY        2e-ENERGY     RMS[dD(SAO)]   TOL
  18  -3828.9124081294    -36903.917025     17187.373294    0.491D-07 0.961D-14
                            Exc = -515.083117668     Coul =  17702.4564121    
                              N = 563.99950705    
                            current damping = 0.400
 
          Norm of current diis error: 0.12244E-03
          max. resid. norm for Fia-block=  3.083D-06 for orbital    253a         
          max. resid. fock norm         =  5.334D-06 for orbital     85a         
          irrep a   : virtual orbitals shifted by    0.03758

 DENSITY CONVERGED !


 ITERATION  ENERGY          1e-ENERGY        2e-ENERGY     RMS[dD(SAO)]   TOL
  19  -3828.9124081304    -36903.916479     17187.372748    0.248D-07 0.961D-14
                            Exc = -515.083113552     Coul =  17702.4558619    
                              N = 563.99950705    
                            current damping = 0.450
 
          Norm of current diis error: 0.54185E-04
          max. resid. norm for Fia-block=  1.358D-06 for orbital    253a         
          max. resid. fock norm         =  2.295D-06 for orbital     85a         
          irrep a   : virtual orbitals shifted by    0.03535

 DENSITY CONVERGED !


 ITERATION  ENERGY          1e-ENERGY        2e-ENERGY     RMS[dD(SAO)]   TOL
  20  -3828.9124081304    -36903.916724     17187.372994    0.128D-07 0.961D-14
                            Exc = -515.083128792     Coul =  17702.4561225    
                              N = 563.99950705    
                            current damping = 0.500
 
          Norm of current diis error: 0.19823E-04
          max. resid. norm for Fia-block=  6.486D-07 for orbital    259a         
          max. resid. fock norm         =  1.012D-06 for orbital   2791a         
          irrep a   : virtual orbitals shifted by    0.03312
          mo-orthogonalization: Cholesky decomposition

 DENSITY CONVERGED !


 ITERATION  ENERGY          1e-ENERGY        2e-ENERGY     RMS[dD(SAO)]   TOL
  21  -3828.9124081304    -36903.916762     17187.373031    0.668D-08 0.961D-14
                            Exc = -515.083137882     Coul =  17702.4561693    
                              N = 563.99950705    
                            current damping = 0.350
 
          Norm of current diis error: 0.11489E-04
          max. resid. norm for Fia-block=  5.305D-07 for orbital    258a         
          max. resid. fock norm         =  8.402D-07 for orbital    265a         
          irrep a   : virtual orbitals shifted by    0.03981

 DENSITY CONVERGED !


 ITERATION  ENERGY          1e-ENERGY        2e-ENERGY     RMS[dD(SAO)]   TOL
  22  -3828.9124081304    -36903.916806     17187.373075    0.393D-08 0.961D-14
                            Exc = -515.083135657     Coul =  17702.4562109    
                              N = 563.99950705    
                            current damping = 0.200
 
          Norm of current diis error: 0.11756E-04
          max. resid. norm for Fia-block=  2.667D-07 for orbital    258a         
          max. resid. fock norm         =  4.643D-07 for orbital    265a         
          irrep a   : virtual orbitals shifted by    0.04650

 ENERGY & DENSITY CONVERGED !


 ITERATION  ENERGY          1e-ENERGY        2e-ENERGY     RMS[dD(SAO)]   TOL
  23  -3828.9110140604    -36903.916773     17187.374437    0.210D-08 0.961D-14
                            Exc = -515.081740656     Coul =  17702.4561775    
                              N = 563.99997010    
                            current damping = 0.250
 
          Norm of current diis error: 0.34753E-05
          max. resid. norm for Fia-block=  1.715D-07 for orbital    259a         
          max. resid. fock norm         =  2.629D-07 for orbital   2791a         

 End of SCF iterations

   convergence criteria satisfied after   23 iterations


                  ------------------------------------------ 
                 |  total energy      =  -3828.91101406039  |
                  ------------------------------------------ 
                 :  kinetic energy    =   3808.24215040073  :
                 :  potential energy  =  -7637.15316446113  :
                 :  virial theorem    =      1.99460189501  :
                 :  wavefunction norm =      1.00000000000  :
                  .......................................... 


 <geterg> : there is no data group $energy 


 <skperg> : $end is missing 


 orbitals $scfmo  will be written to file mos

    irrep                278a        279a        280a        281a        282a   
 eigenvalues H         -0.22392    -0.21555    -0.21453    -0.20214    -0.19947
            eV          -6.0932     -5.8655     -5.8378     -5.5006     -5.4279
 occupation              2.0000      2.0000      2.0000      2.0000      2.0000 

    irrep                283a        284a        285a        286a        287a   
 eigenvalues H         -0.15488    -0.14224    -0.12419    -0.12036    -0.10428
            eV          -4.2146     -3.8705     -3.3794     -3.2751     -2.8376
 
 
 ! grave: sending quit signal to master process
 
 
 
 
 ==============================================================================
                           electrostatic moments
 ==============================================================================

 reference point for electrostatic moments:    0.00000   0.00000   0.00000

 
              nuc           elec       ->  total
 ------------------------------------------------------------------------------
                          charge      
 ------------------------------------------------------------------------------
         564.000000    -564.000000      -0.000000
 
 ------------------------------------------------------------------------------
                       dipole moment  
 ------------------------------------------------------------------------------
   x     528.337021    -534.547693      -6.210672
   y      -0.182737      -0.157989      -0.340726
   z      36.464685     -37.186757      -0.722073
 
   | dipole moment | =     6.2618 a.u. =    15.9159 debye 
 
 ------------------------------------------------------------------------------
                     quadrupole moment
 ------------------------------------------------------------------------------
  xx   26331.900528  -26671.446698    -339.546170
  yy   13809.255218  -14147.303755    -338.048537
  zz    9380.018922   -9740.521655    -360.502733
  xy     -73.878633      76.786740       2.908107
  xz    -141.686945     149.160402       7.473457
  yz    -408.055764     385.902877     -22.152887
 
     1/3  trace=    -346.032480
     anisotropy=      46.238359
 
 ==============================================================================
 

    ridft profiling
  --------------------------------------------------------------------
             module   cpu total (s)       %  wall total (s)       %

               RIDFT          9791.8  100.00          9830.1  100.00
         Ridft_b_scf           110.3    1.13           110.4    1.12
        b_scf_prelim             0.0    0.00             0.0    0.00
        b_scf_molinp             0.0    0.00             0.0    0.00
         b_scf_init0             0.0    0.00             0.0    0.00
        b_scf_auxbas             0.0    0.00             0.0    0.00
      b_scf_symmetry             0.0    0.00             0.0    0.00
         b_scf_cosmo             0.0    0.00             0.0    0.00
        b_scf_params             4.4    0.05             4.4    0.05
          b_scf_ri-j            64.3    0.66            64.4    0.65
    b_scf_ri-j_auxpq            64.2    0.66            64.3    0.65
     ri-j_auxpq_chol             6.5    0.07             6.5    0.07
         b_scf_1elec             4.6    0.05             4.6    0.05
       b_scf_moinput            36.9    0.38            36.9    0.38
     moinput_orthmos            35.9    0.37            36.0    0.37
    b_scf_dft-dstmax             0.0    0.00             0.0    0.00
           Ridft_scf          9679.4   98.85          9717.6   98.86
          Scf_b_loop             0.0    0.00             0.0    0.00
                noga             0.0    0.00             0.0    0.00
            Scf_loop          9673.0   98.79          9710.3   98.78
     scf_loop_mkdmat            30.9    0.32            30.9    0.31
       scf_loop_ri-j          2036.9   20.80          2038.0   20.73
      parlp1.bc.dens             3.1    0.03             3.1    0.03
        parlp1.gs.gp            53.1    0.54            53.2    0.54
        parlp2.bc.gq             0.0    0.00             0.0    0.00
        scf_loop_dft          6801.8   69.46          6809.0   69.27
      pardft.bc.dens             0.0    0.00             0.0    0.00
        dft_grid_con            15.3    0.16            15.3    0.16
          dft_xcmrhf          6687.3   68.30          6694.5   68.10
          dft_getval           157.3    1.61           157.5    1.60
          funct2 dst             2.3    0.02             2.4    0.02
      funct2 f2loop1            18.1    0.18            18.0    0.18
      funct2 f2loop2            74.4    0.76            74.6    0.76
          funct2 s+c            60.4    0.62            60.4    0.61
        funct2 cmf_2            55.5    0.57            55.5    0.56
          dft_mkdens          3065.2   31.30          3068.5   31.22
        dft_mgga-fun             4.5    0.05             4.5    0.05
          dft_mkfock          3458.3   35.32          3462.0   35.22
     pardft.red.fock           513.3    5.24           513.8    5.23
     scf_loop_energy             0.4    0.00             0.4    0.00
     scf_loop_mkfock             0.5    0.01             0.5    0.01
       scf_loop_diis           219.1    2.24           219.4    2.23
       scf_loop_diag           382.0    3.90           382.5    3.89
         diag_tritrn           149.8    1.53           150.0    1.53
          diag_rdiag           230.7    2.36           231.1    2.35
     scf_loop_modump           126.7    1.29           154.7    1.57
      scf_loop_ortho            70.1    0.72            70.2    0.71
          Scf_a_loop             6.4    0.06             7.3    0.07
         Ridft_a_scf             2.1    0.02             2.2    0.02
         a_scf_fanal             2.1    0.02             2.1    0.02
 


    ------------------------------------------------------------------------
         total  cpu-time :  2 hours 43 minutes and 23 seconds
         total wall-time :  2 hours 44 minutes and  1 seconds
    ------------------------------------------------------------------------


   ****  ridft : all done  ****


    2016-02-15 21:31:27.437 

