 operating system is UNIX !
 hostname is c-8-39.local
  this is node-proc. number 1 running on node c-8-39.local
  the total number of node-proc. spawned is            8
  parallel platform: MPP, or cluster with fast interconnect

 ridft (c-8-39.local) : TURBOMOLE V7.1 ( ) 5 Apr 2016 at 13:22:17
 Copyright (C) 2016 TURBOMOLE GmbH, Karlsruhe


    2016-06-10 11:38:46.373 



                                  r i d f t

                        DFT program with RI approximation 
                                for coulomb part 




                                                 
                                 References:     
                                                 
          TURBOMOLE:                             
              R. Ahlrichs, M. Baer, M. Haeser, H. Horn, and
              C. Koelmel
              Electronic structure calculations on workstation
              computers: the program system TURBOMOLE
              Chem. Phys. Lett. 162: 165 (1989)
          Density Functional:                              
              O. Treutler and R. Ahlrichs                      
              Efficient Molecular Numerical Integration Schemes
              J. Chem. Phys. 102: 346 (1995)                   
          Parallel Version:                                
              Performance of parallel TURBOMOLE for Density    
              Functional Calculations                          
              M. v. Arnim and R. Ahlrichs                      
              J. Comp. Chem. 19: 1746 (1998)                   
          RI-J Method:                                     
              Auxiliary Basis Sets to approximate Coulomb      
              Potentials                                       
              Chem. Phys. Lett. 240: 283 (1995)                
              K. Eichkorn, O. Treutler, H. Oehm, M. Haeser     
              and R. Ahlrichs                                  
              Chem. Phys. Lett. 242: 652 (1995)                
                                                           
              Auxiliary Basis Sets for Main Row Atoms and their
              Use to approximate Coulomb Potentials            
              K. Eichkorn, F. Weigend, O. Treutler and         
              R. Ahlrichs                                      
              Theo. Chem. Acc. 97: 119 (1997)                   
                                                           
              Accurate Coulomb-fitting basis sets for H to Rn 
              F. Weigend                                        
              Phys. Chem. Chem. Phys. 8: 1057 (2006)            
                                                           
          Multipole accelerated RI-J (MARI-J):             
              Fast evaluation of the Coulomb potential for     
              electron densities using multipole accelerated   
              resolution of identity approximation             
              M. Sierka, A. Hogekamp and R. Ahlrichs           
              J. Chem. Phys. 118: 9136 (2003)                  
          RI-JK Method:                                     
              A fully direct RI-HF algorithm: Implementation,
              optimised auxiliary basis sets, demonstration of
              accuracy and efficiency                         
              F. Weigend                                      
              Phys. Chem. Chem. Phys. 4: 4285 (2002)           
          Two-component HF and DFT with spin-orbit coupling:  
              Self-consistent treatment of spin-orbit         
              interactions with efficient Hartree-Fock and    
              density functional methods                      
              M. K. Armbruster, F. Weigend, C. van Wüllen and 
              W. Klopper                                      
              Phys. Chem. Chem. Phys. 10: 1748 (2008)         
          Relativistic all-electron 2c calculations           
              An efficient implementation of two-component    
              relativistic exact-decoupling methods for large 
              molecules                                       
              D. Peng, N. Middendorf, F. Weigend, M. Reiher   
              J. Chem. Phys. 138, 184105 (2013)               
                                         


 


              +--------------------------------------------------+
              |      general information about current run       |
              +--------------------------------------------------+

 

 SCF run will be profiled !


 DENSITY CONVERGENCE CHECK SWITCHED ON !
 SCF CONVERGENCE IF RMS(delta[D]) <     0.1000000000E-06

 TPSS meta-GGA functional
 exchange:    LDA + TPSS
 correlation: LDA (PW) + TPSS
 A DFT calculation using the RI-J approximation will be carried out.
 Allocatable memory for RI due to $ricore (MB):       10000


              +--------------------------------------------------+
              | Atomic coordinate, charge and isotop information |
              +--------------------------------------------------+

                    atomic coordinates            atom    charge  isotop
         -0.27393470    6.18819168   -1.19322977    c      6.000     0
         -2.46344699    5.77825339   -2.60449615    c      6.000     0
         -4.69406082    5.39705784   -1.25235930    c      6.000     0
         -4.71896741    5.33938339    1.40380196    c      6.000     0
         -2.51326017    5.65638495    2.81229043    c      6.000     0
         -0.29785863    6.12649212    1.46128742    c      6.000     0
         -7.42369463    4.94664161   -2.11437678    c      6.000     0
         -8.01020893    2.21933216   -1.35181559    c      6.000     0
         -8.03725091    2.16388760    1.30729364    c      6.000     0
         -7.46489066    4.85601035    2.19433109    c      6.000     0
         -8.21278757    0.01810358   -2.78447366    c      6.000     0
         -8.41651894   -2.24308602   -1.44717117    c      6.000     0
         -8.44656559   -2.29788808    1.20944362    c      6.000     0
         -8.27108562   -0.09424064    2.64331112    c      6.000     0
         -8.82968866    6.36030794    0.05739098    c      6.000     0
          2.39027679    6.99321501   -1.97848657    c      6.000     0
          2.35234999    6.89052730    2.33048586    c      6.000     0
          4.24147141    4.87579578    1.47132187    c      6.000     0
          4.26509298    4.93957404   -1.18370555    c      6.000     0
          5.91295307    3.35513316    2.83024283    c      6.000     0
          7.66850865    1.97164576    1.43095732    c      6.000     0
          7.69269714    2.03631219   -1.22333311    c      6.000     0
          5.96134896    3.48626126   -2.58482410    c      6.000     0
          2.91214356    8.90127149    0.22748523    c      6.000     0
          9.87956381    0.34202153   -2.07607203    c      6.000     0
          9.16122222   -2.35520347   -1.32190122    c      6.000     0
          9.13548415   -2.42066359    1.33913553    c      6.000     0
          9.83927485    0.23553547    2.23913649    c      6.000     0
          8.55002809   -4.47912337   -2.72959602    c      6.000     0
          7.90073709   -6.70059092   -1.42800935    c      6.000     0
          7.87418644   -6.76523845    1.20657124    c      6.000     0
          8.49702128   -4.61078059    2.62830669    c      6.000     0
         11.77284263    0.92596581    0.11506542    c      6.000     0
         -8.31764847   -5.08264520    1.98096211    c      6.000     0
         -5.66577689   -5.91321763    1.16915466    c      6.000     0
         -5.63425626   -5.85826440   -1.48989788    c      6.000     0
         -8.26696602   -4.99384697   -2.32929533    c      6.000     0
         -3.49926257   -6.47956855    2.52781106    c      6.000     0
         -1.27490374   -7.03089615    1.18478270    c      6.000     0
         -1.24351538   -6.97650983   -1.44679322    c      6.000     0
         -3.43540873   -6.36901957   -2.81856432    c      6.000     0
         -9.87669143   -6.27071602   -0.21820668    c      6.000     0
         -2.45294011    5.84171039   -4.65828830    h      1.000     0
         -2.54030215    5.62747214    4.86674399    h      1.000     0
         -7.86022136    5.46728006   -4.05896166    h      1.000     0
         -7.93792690    5.29540947    4.15038661    h      1.000     0
         -8.11773434    0.05695635   -4.83605484    h      1.000     0
         -8.21892918   -0.14040665    4.69617731    h      1.000     0
         -8.40519948    8.38335425    0.10380266    h      1.000     0
        -10.87140547    6.03249714    0.03110489    h      1.000     0
          2.58575006    7.68646105   -3.90969219    h      1.000     0
          2.51428062    7.49055314    4.29570655    h      1.000     0
          5.92036080    3.32542667    4.88460190    h      1.000     0
          6.00539847    3.55672914   -4.63769029    h      1.000     0
          1.57809140   10.48166835    0.25358235    h      1.000     0
          4.86727311    9.57563916    0.26070662    h      1.000     0
         10.52462183    0.60197226   -4.01470427    h      1.000     0
         10.44833358    0.39867552    4.19987854    h      1.000     0
          8.55318394   -4.43267390   -4.78236772    h      1.000     0
          7.42214505   -8.39155566   -2.48982756    h      1.000     0
          7.37512867   -8.50599747    2.17420550    h      1.000     0
          8.46002044   -4.66543147    4.68064376    h      1.000     0
         12.34503281    2.91199238    0.16958402    h      1.000     0
         13.42257354   -0.32125344    0.09956967    h      1.000     0
         -8.86591471   -5.52843160    3.91606057    h      1.000     0
         -8.76902846   -5.35979244   -4.29349557    h      1.000     0
         -3.50574433   -6.49980752    4.58215124    h      1.000     0
          0.44499271   -7.48906025    2.20842845    h      1.000     0
          0.50075853   -7.39238186   -2.44683629    h      1.000     0
         -3.39254974   -6.30418307   -4.87158169    h      1.000     0
        -11.84561598   -5.64075692   -0.22848679    h      1.000     0
         -9.76051107   -8.33473160   -0.25925153    h      1.000     0
 
       center of nuclear mass  :   -0.20769031    0.30043413    0.00451926
       center of nuclear charge:   -0.19597432    0.29112826    0.00443214

              +--------------------------------------------------+
              |               basis set information              |
              +--------------------------------------------------+

              we will work with the 1s 3p 5d 7f 9g ... basis set
              ...i.e. with spherical basis functions...

   type   atoms  prim   cont   basis
   ---------------------------------------------------------------------------
    c       42     77     57   def2-QZVP   [7s4p3d2f1g|15s8p3d2f1g]
    h       30     33     30   def2-QZVP   [4s3p2d1f|7s3p2d1f]
   ---------------------------------------------------------------------------
   total:   72   4224   3294
   ---------------------------------------------------------------------------

   total number of primitive shells          :   42
   total number of contracted shells         : 1014
   total number of cartesian basis functions : 4074
   total number of SCF-basis functions       : 3294


 integral neglect threshold       :  0.82E-14
 integral storage threshold THIZE :  0.10E-04
 integral storage threshold THIME :         5

 RI-J AUXILIARY BASIS SET information:

              we will work with the 1s 3p 5d 7f 9g ... basis set
              ...i.e. with spherical basis functions...

   type   atoms  prim   cont   basis
   ---------------------------------------------------------------------------
    c       42     70     49   def2-QZVP   [6s4p3d1f1g|12s5p4d2f1g]
    h       30     16     11   def2-QZVP   [3s1p1d|5s2p1d]
   ---------------------------------------------------------------------------
   total:   72   3420   2388
   ---------------------------------------------------------------------------

   total number of primitive shells          :   32
   total number of contracted shells         :  780
   total number of cartesian basis functions : 2922
   total number of SCF-basis functions       : 2388


 symmetry group of the molecule :   c1 

 the group has the following generators :
   c1(z)

    1 symmetry operations found

 there are 1 real representations :   a   

 maximum number of shells which are related by symmetry :  1


    mo occupation :
   irrep   mo's   occupied
    a     3294      141
 
 number of basis functions   :         3294
 number of occupied orbitals :          141
 
  
           ------------------
           density functional
           ------------------
 TPSS meta-GGA functional
 exchange:    LDA + TPSS
 correlation: LDA (PW) + TPSS
 iterations will be done with small grid
  
 spherical integration : Lebedev's spherical grid
 spherical gridsize    :           5
    i.e. gridpoints    :         590
 value for diffuse not defined
 radial integration    : Chebyshev 2nd kind (scaling 3)
 radial gridsize       :           8
 integration cells     :          72
 partition function    : becke
 partition sharpness   :           3
  

 <rddim> : input of entry tasksize
           from data group '$pardft' failed !

               Default values taken

 <rddim> : input of entry memdiv
           from data group '$pardft' failed !

               Default values taken
  RIDFT: memory allocation for DFT gridpoints
  MEMORY is divided by 1 as DEFAULT
 Each node can hold at most  the            1 -th part
 of the gridpoints    

 biggest AO integral is expected to be     5.262544080
  
           ------------------------
               RI-J - INFORMATION
           ------------------------
 
 
 **************************************************
 *      MEMORY ALLOCATION FOR PARALLEL RI-DFT     *
 **************************************************
 
 
MEMORY FOR (MU NU/ ALPHA), SEQUENTIAL RUN               9953 MByte
 
            DIFFERENCE IN MEMORY NEED:       DIAG./SLAVE  
 
      TOTAL DIFFERENCE :                    488 MByte
 
      difference in xcore:                   48 MByte
      difference in fatmat:                 148 MByte
      getcor calls skipped by slaves:       293 MByte
 
 
           Integral memory available for diagonal.      9953 MByte
 
           Integral memory available for slave             0 MByte
 
         MEMORY FOR (MU NU/ ALPHA) ON DIAGONALIZER      9953 MByte
 
         MEMORY FOR (MU NU/ ALPHA) ON ONE SLAVE            0 MByte
 
         TOTAL MEMORY FOR (MU NU/ ALPHA),ALL NODES      9953 MByte
 
 Contributions to RI integral batches: 
  neglected integral batches:      299037
  direct contribution:             159886
  memory contribution:       55682
 Memory core needed for (P|Q) and Cholesky     44 MByte
 Memory core minimum needed except of (P|Q)     7 MByte
 Total minimum memory core needed (sum)        50 MByte
     number of direct tasks:         160
  
 ****************************************
 Memory allocated for RI-J 10002 MByte
 ****************************************
                                            

          ------------------------
          nuclear repulsion energy  :   4480.39125619    
          ------------------------

 
          -----------------
          -S integrals
          -----------------

 1e-integrals will be neglected if expon. factor < 0.820315E-15
 
          -----------------
          -T+V integrals
          -----------------

 1e-integrals will be neglected if expon. factor < 0.820315E-15
 Difference densities >>NOT<< switched on in parallel ridft!

 DIIS switched on: error vector is FDS-SDF
 Max. Iterations for DIIS is     :   4
 DIIS matrix (see manual) 
    Scaling factor of diagonals  :  1.200
    threshold for scaling factor :  0.000

 scf convergence criterion : increment of total energy < .1000000D-08
                  and increment of one-electron energy < .1000000D-05


 <geterg> : there is no data group $energy 

  MOs are in ASCII format !


 automatic virtual orbital shift switched on 
      shift if e(lumo)-e(homo) < 0.10000000    


 reading orbital data $scfmo  from file mos
 orbital characterization : expanded
 mo provided and orthogonalized by Cholesky decomposition

 DSCF restart information will be dumped onto file mos


 Starting SCF iterations


 ITERATION  ENERGY          1e-ENERGY        2e-ENERGY     RMS[dD(SAO)]   TOL
   1  -1614.4679508526    -11032.197536     4937.3383285    0.000D+00 0.818D-14
                            Exc = -233.916703545     Coul =  5171.25503201    
                              N = 281.99918698    
                            current damping = 0.700
 
          max. resid. norm for Fia-block=  5.058D-01 for orbital     44a         
          max. resid. fock norm         =  4.163D+01 for orbital   2883a         

 ITERATION  ENERGY          1e-ENERGY        2e-ENERGY     RMS[dD(SAO)]   TOL
   2  -1618.3305351041    -11084.185341     4985.4635498    0.823D-02 0.818D-14
                            Exc = -237.793616908     Coul =  5223.25716669    
                              N = 281.99935047    
                            current damping = 0.650
 
          Norm of current diis error:  7.8132    
          max. resid. norm for Fia-block=  1.298D-01 for orbital     46a         
          max. resid. fock norm         =  1.765D-01 for orbital   2877a         

 ITERATION  ENERGY          1e-ENERGY        2e-ENERGY     RMS[dD(SAO)]   TOL
   3  -1619.1308407621    -11092.757933     4993.2358360    0.311D-02 0.818D-14
                            Exc = -238.903392635     Coul =  5232.13922862    
                              N = 281.99943194    
                            current damping = 0.550
 
          Norm of current diis error:  3.8891    
          max. resid. norm for Fia-block=  6.483D-02 for orbital     46a         
          max. resid. fock norm         =  7.150D-02 for orbital     46a         

 ITERATION  ENERGY          1e-ENERGY        2e-ENERGY     RMS[dD(SAO)]   TOL
   4  -1619.3858243062    -11104.221176     5004.4440958    0.118D-02 0.818D-14
                            Exc = -239.675416882     Coul =  5244.11951270    
                              N = 281.99947703    
                            current damping = 0.450
 
          Norm of current diis error:  1.4911    
          max. resid. norm for Fia-block=  2.493D-02 for orbital     46a         
          max. resid. fock norm         =  3.866D-02 for orbital   3275a         

 ITERATION  ENERGY          1e-ENERGY        2e-ENERGY     RMS[dD(SAO)]   TOL
   5  -1619.4241996730    -11103.895233     5004.0797776    0.595D-03 0.818D-14
                            Exc = -239.922003132     Coul =  5244.00178068    
                              N = 281.99949525    
                            current damping = 0.500
 
          Norm of current diis error: 0.88266    
          max. resid. norm for Fia-block=  1.202D-02 for orbital    137a         
          max. resid. fock norm         =  2.475D-02 for orbital   3275a         
          mo-orthogonalization: Cholesky decomposition

 ITERATION  ENERGY          1e-ENERGY        2e-ENERGY     RMS[dD(SAO)]   TOL
   6  -1619.4383426758    -11107.044293     5007.2146937    0.256D-03 0.818D-14
                            Exc = -240.050362465     Coul =  5247.26505619    
                              N = 281.99949857    
                            current damping = 0.550
 
          Norm of current diis error: 0.32042    
          max. resid. norm for Fia-block=  4.799D-03 for orbital    137a         
          max. resid. fock norm         =  1.292D-02 for orbital   3275a         

 ITERATION  ENERGY          1e-ENERGY        2e-ENERGY     RMS[dD(SAO)]   TOL
   7  -1619.4399824819    -11107.029204     5007.1979657    0.996D-04 0.818D-14
                            Exc = -240.072518792     Coul =  5247.27048449    
                              N = 281.99949894    
                            current damping = 0.600
 
          Norm of current diis error: 0.17902    
          max. resid. norm for Fia-block=  2.102D-03 for orbital    141a         
          max. resid. fock norm         =  4.722D-03 for orbital   3266a         

 ITERATION  ENERGY          1e-ENERGY        2e-ENERGY     RMS[dD(SAO)]   TOL
   8  -1619.4406208803    -11106.908476     5007.0765992    0.371D-04 0.818D-14
                            Exc = -240.076949259     Coul =  5247.15354845    
                              N = 281.99949943    
                            current damping = 0.450
 
          Norm of current diis error: 0.40265E-01
          max. resid. norm for Fia-block=  8.366D-04 for orbital    140a         
          max. resid. fock norm         =  1.813D-03 for orbital   3269a         

 ITERATION  ENERGY          1e-ENERGY        2e-ENERGY     RMS[dD(SAO)]   TOL
   9  -1619.4406308908    -11106.962204     5007.1303169    0.176D-04 0.818D-14
                            Exc = -240.080864761     Coul =  5247.21118166    
                              N = 281.99949968    
                            current damping = 0.500
 
          Norm of current diis error: 0.37530E-01
          max. resid. norm for Fia-block=  4.572D-04 for orbital    140a         
          max. resid. fock norm         =  1.125D-03 for orbital   3269a         

 ITERATION  ENERGY          1e-ENERGY        2e-ENERGY     RMS[dD(SAO)]   TOL
  10  -1619.4406557515    -11107.034966     5007.2030537    0.492D-05 0.818D-14
                            Exc = -240.083993796     Coul =  5247.28704748    
                              N = 281.99949987    
                            current damping = 0.350
 
          Norm of current diis error: 0.15830E-01
          max. resid. norm for Fia-block=  2.224D-04 for orbital    137a         
          max. resid. fock norm         =  5.089D-04 for orbital   3273a         
          mo-orthogonalization: Cholesky decomposition

 ITERATION  ENERGY          1e-ENERGY        2e-ENERGY     RMS[dD(SAO)]   TOL
  11  -1619.4406595771    -11106.975749     5007.1438335    0.243D-05 0.818D-14
                            Exc = -240.082568633     Coul =  5247.22640217    
                              N = 281.99949976    
                            current damping = 0.400
 
          Norm of current diis error: 0.73779E-02
          max. resid. norm for Fia-block=  1.139D-04 for orbital    137a         
          max. resid. fock norm         =  2.709D-04 for orbital   3273a         

 ITERATION  ENERGY          1e-ENERGY        2e-ENERGY     RMS[dD(SAO)]   TOL
  12  -1619.4406603431    -11106.979790     5007.1478731    0.904D-06 0.818D-14
                            Exc = -240.082296822     Coul =  5247.23016992    
                              N = 281.99949973    
                            current damping = 0.450
 
          Norm of current diis error: 0.42696E-02
          max. resid. norm for Fia-block=  4.135D-05 for orbital    140a         
          max. resid. fock norm         =  1.037D-04 for orbital     19a         

 ITERATION  ENERGY          1e-ENERGY        2e-ENERGY     RMS[dD(SAO)]   TOL
  13  -1619.4406606939    -11106.985830     5007.1539135    0.355D-06 0.818D-14
                            Exc = -240.082476504     Coul =  5247.23639003    
                              N = 281.99949973    
                            current damping = 0.300
 
          Norm of current diis error: 0.41153E-03
          max. resid. norm for Fia-block=  6.661D-06 for orbital    140a         
          max. resid. fock norm         =  1.573D-05 for orbital   3198a         

 ITERATION  ENERGY          1e-ENERGY        2e-ENERGY     RMS[dD(SAO)]   TOL
  14  -1619.4406606943    -11106.986353     5007.1544358    0.121D-06 0.818D-14
                            Exc = -240.082576946     Coul =  5247.23701272    
                              N = 281.99949975    
                            current damping = 0.150
 
          Norm of current diis error: 0.38595E-03
          max. resid. norm for Fia-block=  4.463D-06 for orbital    140a         
          max. resid. fock norm         =  1.098D-05 for orbital   3216a         

 DENSITY CONVERGED !


 ITERATION  ENERGY          1e-ENERGY        2e-ENERGY     RMS[dD(SAO)]   TOL
  15  -1619.4406606966    -11106.986283     5007.1543658    0.454D-07 0.818D-14
                            Exc = -240.082564273     Coul =  5247.23693005    
                              N = 281.99949975    
                            current damping = 0.200
 
          Norm of current diis error: 0.18763E-03
          max. resid. norm for Fia-block=  2.331D-06 for orbital    141a         
          max. resid. fock norm         =  5.530D-06 for orbital     27a         
          mo-orthogonalization: Cholesky decomposition

 DENSITY CONVERGED !


 ITERATION  ENERGY          1e-ENERGY        2e-ENERGY     RMS[dD(SAO)]   TOL
  16  -1619.4406606970    -11106.986016     5007.1540990    0.202D-07 0.818D-14
                            Exc = -240.082548275     Coul =  5247.23664729    
                              N = 281.99949975    
                            current damping = 0.050
 
          Norm of current diis error: 0.10136E-03
          max. resid. norm for Fia-block=  1.268D-06 for orbital    141a         
          max. resid. fock norm         =  3.600D-06 for orbital     33a         

 DENSITY CONVERGED !


 ITERATION  ENERGY          1e-ENERGY        2e-ENERGY     RMS[dD(SAO)]   TOL
  17  -1619.4406606974    -11106.986205     5007.1542881    0.105D-07 0.818D-14
                            Exc = -240.082551869     Coul =  5247.23683996    
                              N = 281.99949975    
                            current damping = 0.100
 
          Norm of current diis error: 0.69187E-04
          max. resid. norm for Fia-block=  6.998D-07 for orbital    141a         
          max. resid. fock norm         =  2.123D-06 for orbital     33a         

 DENSITY CONVERGED !


 ITERATION  ENERGY          1e-ENERGY        2e-ENERGY     RMS[dD(SAO)]   TOL
  18  -1619.4406606972    -11106.986147     5007.1542297    0.537D-08 0.818D-14
                            Exc = -240.082550636     Coul =  5247.23678037    
                              N = 281.99949975    
                            current damping = 0.150
 
          Norm of current diis error: 0.19308E-04
          max. resid. norm for Fia-block=  1.968D-07 for orbital    140a         
          max. resid. fock norm         =  5.445D-07 for orbital     33a         

 ENERGY & DENSITY CONVERGED !


 ITERATION  ENERGY          1e-ENERGY        2e-ENERGY     RMS[dD(SAO)]   TOL
  19  -1619.4398243159    -11106.986115     5007.1550349    0.182D-08 0.818D-14
                            Exc = -240.081714073     Coul =  5247.23674899    
                              N = 282.00000945    
                            current damping = 0.200
 
          Norm of current diis error: 0.96495E-05
          max. resid. norm for Fia-block=  7.880D-08 for orbital    137a         
          max. resid. fock norm         =  1.775D-07 for orbital   3273a         

 End of SCF iterations

   convergence criteria satisfied after   19 iterations


                  ------------------------------------------ 
                 |  total energy      =  -1619.43982431592  |
                  ------------------------------------------ 
                 :  kinetic energy    =   1611.53815025326  :
                 :  potential energy  =  -3230.97797456919  :
                 :  virial theorem    =      1.99512073623  :
                 :  wavefunction norm =      1.00000000000  :
                  .......................................... 


 <geterg> : there is no data group $energy 


 <skperg> : $end is missing 


 orbitals $scfmo  will be written to file mos

    irrep                137a        138a        139a        140a        141a   
 eigenvalues H         -0.21318    -0.21159    -0.20108    -0.19034    -0.17733
            eV          -5.8009     -5.7576     -5.4718     -5.1793     -4.8256
 occupation              2.0000      2.0000      2.0000      2.0000      2.0000 

    irrep                142a        143a        144a        145a        146a   
 eigenvalues H         -0.04631    -0.04557    -0.04122    -0.03768    -0.02811
            eV          -1.2601     -1.2400     -1.1216     -1.0254     -0.7649
 
 
 
 
 ==============================================================================
                           electrostatic moments
 ==============================================================================

 reference point for electrostatic moments:    0.00000   0.00000   0.00000

 
              nuc           elec       ->  total
 ------------------------------------------------------------------------------
                          charge      
 ------------------------------------------------------------------------------
         282.000000    -282.000000       0.000000
 
 ------------------------------------------------------------------------------
                       dipole moment  
 ------------------------------------------------------------------------------
   x     -55.264757      55.353380       0.088623
   y      82.098169     -81.562331       0.535838
   z       1.249865      -1.237139       0.012726
 
   | dipole moment | =     0.5433 a.u. =     1.3808 debye 
 
 ------------------------------------------------------------------------------
                     quadrupole moment
 ------------------------------------------------------------------------------
  xx   13750.592258  -13925.347931    -174.755673
  yy    7399.306189   -7576.206085    -176.899896
  zz    1256.715551   -1421.784984    -165.069434
  xy     180.201973    -178.127785       2.074189
  xz      95.392561     -95.439200      -0.046640
  yz     132.889837    -133.132855      -0.243018
 
     1/3  trace=    -172.241667
     anisotropy=      11.501341
 
 ==============================================================================
 

    ridft profiling
  --------------------------------------------------------------------
             module   cpu total (s)       %  wall total (s)       %

               RIDFT          7238.9  100.00          7085.0  100.00
         Ridft_b_scf           174.5    2.41           162.7    2.30
        b_scf_prelim             0.0    0.00             0.0    0.00
        b_scf_molinp             0.0    0.00             0.0    0.00
         b_scf_init0             0.0    0.00             0.0    0.00
        b_scf_auxbas             0.0    0.00             0.0    0.00
      b_scf_symmetry             0.0    0.00             0.0    0.00
         b_scf_cosmo             0.0    0.00             0.0    0.00
        b_scf_params            35.1    0.49            35.2    0.50
          b_scf_ri-j            46.0    0.64            45.9    0.65
    b_scf_ri-j_auxpq            45.9    0.63            45.9    0.65
     ri-j_auxpq_chol             1.9    0.03             1.9    0.03
         b_scf_1elec             6.1    0.08             6.1    0.09
       b_scf_moinput            87.3    1.21            75.5    1.07
     moinput_orthmos            86.7    1.20            74.9    1.06
    b_scf_dft-dstmax             0.0    0.00             0.0    0.00
           Ridft_scf          7062.8   97.57          6920.7   97.68
          Scf_b_loop             0.0    0.00             0.0    0.00
                noga             0.0    0.00             0.0    0.00
            Scf_loop          7049.6   97.39          6907.2   97.49
     scf_loop_mkdmat            18.1    0.25            18.0    0.25
       scf_loop_ri-j           883.5   12.21           882.9   12.46
      parlp1.bc.dens             1.2    0.02             1.2    0.02
        parlp1.gs.gp             7.9    0.11             7.9    0.11
        parlp2.bc.gq             0.0    0.00             0.0    0.00
        scf_loop_dft          4989.1   68.92          4985.8   70.37
        dft_grid_con             3.5    0.05             3.5    0.05
     scf_loop_symcar             5.0    0.07             5.0    0.07
     scf_loop_energy             0.1    0.00             0.1    0.00
     scf_loop_mkfock             0.2    0.00             0.2    0.00
       scf_loop_diis           593.6    8.20           447.9    6.32
       scf_loop_diag           263.9    3.65           263.3    3.72
         diag_tritrn            90.0    1.24            89.6    1.27
          diag_rdiag           172.9    2.39           172.8    2.44
     scf_loop_modump           225.2    3.11           233.0    3.29
      scf_loop_ortho            71.4    0.99            71.3    1.01
          Scf_a_loop            13.2    0.18            13.6    0.19
         Ridft_a_scf             1.6    0.02             1.6    0.02
         a_scf_fanal             1.5    0.02             1.6    0.02
 


    ------------------------------------------------------------------------
         total  cpu-time :  2 hours  0 minutes and 39 seconds
         total wall-time :  1 hours 58 minutes and  5 seconds
    ------------------------------------------------------------------------

   ****  ridft : all done  ****


    2016-06-10 13:36:51.401 

