 operating system is UNIX !

 ridft (c-18-413.gp.local) : TURBOMOLE V7.2 ( 21454 ) 4 Oct 2017 at 12:48:15
 Copyright (C) 2017 TURBOMOLE GmbH, Karlsruhe


    2018-05-19 18:09:03.137 



                                  r i d f t

                        DFT program with RI approximation 
                                for coulomb part 




                                                 
                                 References:     
                                                 
          TURBOMOLE:                             
              R. Ahlrichs, M. Baer, M. Haeser, H. Horn, and
              C. Koelmel
              Electronic structure calculations on workstation
              computers: the program system TURBOMOLE
              Chem. Phys. Lett. 162: 165 (1989)
          Density Functional:                              
              O. Treutler and R. Ahlrichs                      
              Efficient Molecular Numerical Integration Schemes
              J. Chem. Phys. 102: 346 (1995)                   
          Parallel Version:                                
              Performance of parallel TURBOMOLE for Density    
              Functional Calculations                          
              M. v. Arnim and R. Ahlrichs                      
              J. Comp. Chem. 19: 1746 (1998)                   
          RI-J Method:                                     
              Auxiliary Basis Sets to approximate Coulomb      
              Potentials                                       
              Chem. Phys. Lett. 240: 283 (1995)                
              K. Eichkorn, O. Treutler, H. Oehm, M. Haeser     
              and R. Ahlrichs                                  
              Chem. Phys. Lett. 242: 652 (1995)                
                                                           
              Auxiliary Basis Sets for Main Row Atoms and their
              Use to approximate Coulomb Potentials            
              K. Eichkorn, F. Weigend, O. Treutler and         
              R. Ahlrichs                                      
              Theo. Chem. Acc. 97: 119 (1997)                   
                                                           
              Accurate Coulomb-fitting basis sets for H to Rn 
              F. Weigend                                        
              Phys. Chem. Chem. Phys. 8: 1057 (2006)            
                                                           
          Multipole accelerated RI-J (MARI-J):             
              Fast evaluation of the Coulomb potential for     
              electron densities using multipole accelerated   
              resolution of identity approximation             
              M. Sierka, A. Hogekamp and R. Ahlrichs           
              J. Chem. Phys. 118: 9136 (2003)                  
          RI-JK Method:                                     
              A fully direct RI-HF algorithm: Implementation,
              optimised auxiliary basis sets, demonstration of
              accuracy and efficiency                         
              F. Weigend                                      
              Phys. Chem. Chem. Phys. 4: 4285 (2002)           
          Two-component HF and DFT with spin-orbit coupling:  
              Self-consistent treatment of spin-orbit         
              interactions with efficient Hartree-Fock and    
              density functional methods                      
              M. K. Armbruster, F. Weigend, C. van Wüllen and 
              W. Klopper                                      
              Phys. Chem. Chem. Phys. 10: 1748 (2008)         
          Relativistic all-electron 2c calculations           
              An efficient implementation of two-component    
              relativistic exact-decoupling methods for large 
              molecules                                       
              D. Peng, N. Middendorf, F. Weigend, M. Reiher   
              J. Chem. Phys. 138, 184105 (2013)               
                                         




              +--------------------------------------------------+
              |      general information about current run       |
              +--------------------------------------------------+

 
 A HF calculation using the RI-JK approximation will be carried out.
 Allocatable memory for RI due to $ricore (MB):                   500


              +--------------------------------------------------+
              | Atomic coordinate, charge and isotop information |
              +--------------------------------------------------+

                    atomic coordinates            atom    charge  isotop
          1.80824149   -1.68534400    2.15797277    c      6.000     0
          2.84321763   -2.41574581    0.53558654    h      1.000     0
          2.68602738   -2.48457022    3.83808188    h      1.000     0
          1.87262303    1.24440034    2.16468855    c      6.000     0
          2.85460982    1.93337212    0.49123031    h      1.000     0
          2.86531280    2.00276602    3.79936436    h      1.000     0
         -0.90603286    2.08308063    2.08602919    c      6.000     0
         -1.16457890    3.90205244    1.15947429    h      1.000     0
         -1.65302325    2.24701938    4.00257146    h      1.000     0
         -2.23385755   -0.09977103    0.74331575    c      6.000     0
         -1.79312741   -0.05070192   -1.27330615    h      1.000     0
         -4.28148546   -0.06342816    0.94727063    h      1.000     0
         -1.00280127   -2.40919208    1.96401050    c      6.000     0
         -1.30464918   -4.15176786    0.91272301    h      1.000     0
         -1.79684494   -2.67474099    3.84889559    h      1.000     0
 
       center of nuclear mass  :   -0.08979127   -0.17368274    1.82363247
       center of nuclear charge:   -0.08788761   -0.17391755    1.82394981

              +--------------------------------------------------+
              |               basis set information              |
              +--------------------------------------------------+

              we will work with the 1s 3p 5d 7f 9g ... basis set
              ...i.e. with spherical basis functions...

   type   atoms  prim   cont   basis
   ---------------------------------------------------------------------------
    c        5     77     57   def2-QZVP   [7s4p3d2f1g|15s8p3d2f1g]
    h       10     33     30   def2-QZVP   [4s3p2d1f|7s3p2d1f]
   ---------------------------------------------------------------------------
   total:   15    715    585
   ---------------------------------------------------------------------------

   total number of primitive shells          :   42
   total number of contracted shells         :  185
   total number of cartesian basis functions :  710
   total number of SCF-basis functions       :  585


 integral neglect threshold       :  0.47E-13
 integral storage threshold THIZE :  0.10E-04
 integral storage threshold THIME :         5

 RI-JK AUXILIARY BASIS SET information:

              we will work with the 1s 3p 5d 7f 9g ... basis set
              ...i.e. with spherical basis functions...

   type   atoms  prim   cont   basis
   ---------------------------------------------------------------------------
    c        5     97     75   def2-QZVP   [10s8p5d1f1g|14s10p6d2f1g]
    h       10     20     18   def2-QZVP   [2s2p2d|4s2p2d]
   ---------------------------------------------------------------------------
   total:   15    685    555
   ---------------------------------------------------------------------------

   total number of primitive shells          :   41
   total number of contracted shells         :  185
   total number of cartesian basis functions :  645
   total number of SCF-basis functions       :  555


 symmetry group of the molecule :   c1 

 the group has the following generators :
   c1(z)

    1 symmetry operations found

 there are 1 real representations :   a   

 maximum number of shells which are related by symmetry :  1


    mo occupation :
   irrep   mo's   occupied
    a      585       20
 
 number of basis functions   :                    585
 number of occupied orbitals :                     20
 

 biggest AO integral is expected to be     5.262544080
  
           ------------------------
               RI-JK - INFORMATION
           ------------------------
 Contributions to RI integral batches: 
  neglected integral batches:                  1420
  direct contribution:                        13534
  memory contribution:                  2251
 Memory core needed for (P|Q) and Cholesky      3 MByte
 Memory core minimum needed except of (P|Q)     1 MByte
 Total minimum memory core needed (sum)         3 MByte
  
 ****************************************
 Memory allocated for RI-J    41 MByte
 ****************************************
                                            
 total memory allocated for calculation of  (Q|P)**(-1/2) :    4 MiB

  forming (P|Q)**(-1/2) 
 eigenvalues of original matrix 
 smallest =0.1556652822638E-06  largest = 31.69238907721    
  The symmetry information takes                      1  MB

          ------------------------
          nuclear repulsion energy  :   188.383588217    
          ------------------------


         -----------------
         -S,T+V- integrals
         -----------------

 1e-integrals will be neglected if expon. factor < 0.470699E-14
 
   Difference densities algorithm switched on.
   The maximal number of linear combinations of
   difference densities is                    20 .

 DIIS switched on: error vector is FDS-SDF
 Max. Iterations for DIIS is     :   5
 DIIS matrix (see manual) 
    Scaling factor of diagonals  :  1.200
    threshold for scaling factor :  0.000

 scf convergence criterion : increment of total energy < .1000000D-08
                  and increment of one-electron energy < .1000000D-05

  MOs are in ASCII format !


 automatic virtual orbital shift switched on 
      shift if e(lumo)-e(homo) < 0.10000000    


 reading orbital data $scfmo  from file mos
 orbital characterization : scfconv=9

 DSCF restart information will be dumped onto file mos


 Starting SCF iterations

 
 BLOCKING OF MOS FOR RI-K
 
 
 occupied MOs partitioned into blocks of maximum length 20
 this requires 61 MiB core memory.
 
            MULTIPLE PASS Statistics 
 ----------------------------------------------------
  pass       irrep     lambda      batch : MO  to  MO
 ----------------------------------------------------
   1       1  ->  1    1  -> 20             1  ->  20



 ITERATION  ENERGY          1e-ENERGY        2e-ENERGY     NORM[dD(SAO)]  TOL
   1  -195.21138528122    -636.13474980     252.53977631    0.000D+00 0.469D-13
                           RI-K = -29.5694097357     Coul =  282.109186041    
                            current damping = 0.700
 
          max. resid. norm for Fia-block=  8.229D-02 for orbital      5a         
          max. resid. fock norm         =  5.343D-01 for orbital    577a         

 End of SCF iterations

   convergence criteria cannot be satisfied within     1 iterations !


                  ------------------------------------------ 
                 |  total energy      =   -195.21138528122  |
                  ------------------------------------------ 
                 :  kinetic energy    =    195.75879178509  :
                 :  potential energy  =   -390.97017706630  :
                 :  virial theorem    =      2.00280417304  :
                 :  wavefunction norm =      1.00000000000  :
                  .......................................... 


 ATTENTION : $energy will not be updated since 
 this calculation did not converge (sob) 

 A POSSIBLE REASON MAY BE THAT ...
 - THE GEOMETRY IS FAR FROM BEING REASONABLE

    irrep                 16a         17a         18a         19a         20a   
 eigenvalues H         -0.39563    -0.38742    -0.38427    -0.38307    -0.37385
            eV         -10.7658    -10.5423    -10.4567    -10.4239    -10.1731
 occupation              2.0000      2.0000      2.0000      2.0000      2.0000 

    irrep                 21a         22a         23a         24a         25a   
 eigenvalues H          0.07224     0.08382     0.09489     0.09577     0.12112
            eV           1.9658      2.2809      2.5820      2.6060      3.2960
 
 
 
 
 ==============================================================================
                           electrostatic moments
 ==============================================================================

 reference point for electrostatic moments:    0.00000   0.00000   0.00000

 
              nuc           elec       ->  total
 ------------------------------------------------------------------------------
                          charge      
 ------------------------------------------------------------------------------
          40.000000     -40.000000       0.000000
 
 ------------------------------------------------------------------------------
                       dipole moment  
 ------------------------------------------------------------------------------
   x      -3.515504       3.507692      -0.007812
   y      -6.956702       6.957697       0.000995
   z      72.957992     -72.960515      -0.002522
 
   | dipole moment | =     0.0083 a.u. =     0.0210 debye 
 
 ------------------------------------------------------------------------------
                     quadrupole moment
 ------------------------------------------------------------------------------
  xx     143.781838    -169.433661     -25.651823
  yy     151.684849    -177.376846     -25.691997
  zz     173.849430    -198.482665     -24.633235
  xy       0.247570      -0.242218       0.005352
  xz      20.889581     -21.139236      -0.249655
  yz     -11.254370      11.246544      -0.007826
 
     1/3  trace=     -25.325685
     anisotropy=       1.125748
 
 ==============================================================================
 

 ATTENTION: ridft did not converge! 



    ------------------------------------------------------------------------
         total  cpu-time :   9.72 seconds
         total wall-time :   9.81 seconds
    ------------------------------------------------------------------------

   ****  ridft : all done  ****


    2018-05-19 18:09:12.935 

