
OPTIMIZATION CYCLE 15
Sat Aug 15 02:42:50 PDT 2015
 operating system is UNIX !
 hostname is         c-6-30.local

 statpt (c-6-30.local) : TURBOMOLE V7.0( ) 6 Jul 2015 at 18:30:05
 Copyright (C) 2015 TURBOMOLE GmbH, Karlsruhe


    2015-08-15 02:42:50.651 



                           this is S T A T P T   


                     hessian and coordinate update for
                          stationary point search 

                     by barbara unterreiner, marek sierka,
                           and reinhart ahlrichs

                          quantum chemistry group
                          universitaet  karlsruhe
                                  germany


  Keyword $statpt not found - using default options
 
        ***************  Stationary point options ******************
        ************************************************************
           Maximum allowed trust radius:           3.000000E-01
           Minimum allowed trust radius:           1.000000E-03
           Initial trust radius:                   1.500000E-01
           GDIIS used if gradient norm <           1.000000E-02
           Number of previous steps for GDIIS:       5
           Hessian update method:                  BFGS
                        *** Convergence criteria ***                
           Threshold for energy change:            1.000000E-07
           Threshold for max displacement element: 1.000000E-03
           Threshold for max gradient element :    1.000000E-04
           Threshold for RMS of displacement:      5.000000E-04
           Threshold for RMS of gradient:          5.000000E-04
        ************************************************************
 
     Number of symmetry restricted degrees of freedom:    75
     Constituted by:     3 translational degrees of freedom
                         3 rotational degrees of freedom
                      69 internal degrees of freedom

  *************************************************************************
   ATOM                      CARTESIAN COORDINATES
    1 c      -2.69798394808535      0.29092210582268     -0.73411191963103
    2 c      -4.74860397003140     -1.34629509588054     -0.70437600936605
    3 c      -4.42917713343108     -4.00048854795608     -0.72869804681949
    4 c      -2.02902424127192     -5.06421273834911     -0.77540869210887
    5 c       0.05011840017850     -3.42056851196700     -0.81082886977943
    6 c      -0.24393705309880     -0.75939925753207     -0.78388940564233
    7 n       2.61597320616541     -3.92922683076741     -0.86346952154941
    8 c       2.25285410380493      0.33769173001763     -0.86638316038328
    9 c       3.92083500202898     -1.66202060243998     -0.92775539549514
   10 o      -7.21759970476739     -0.50256303587174     -0.64694315336220
   11 h       3.40093937543947     -5.66049784945557     -1.03673254717944
   12 c       2.93009955245053      3.09960842490586     -0.85710141455480
   13 c       2.97948526961526      4.26760970906260      1.79693882730235
   14 n       0.43845613700893      4.18849130284385      2.94461315771539
   15 h      -2.96336802053714      2.33372099191554     -0.67457073121667
   16 h      -6.10961965743804     -5.18590062329680     -0.70123049823779
   17 h      -1.78794620579081     -7.10917488783585     -0.79117230479028
   18 h       5.96916777027851     -1.64565619052690     -1.02783018252340
   19 h      -7.17355732376580      1.33474665606210     -0.61759727995382
   20 h       4.80675399816883      3.34396963009806     -1.72187103541956
   21 h       1.57174737817292      4.16075629600431     -2.02187075137067
   22 h       3.54197334331326      6.26370802511975      1.64649250079025
   23 h       4.43141675557773      3.28582185415307      2.93483949555926
   24 h       0.51418987090048      5.03969011375530      4.67990815286131
   25 h      -0.02319290488603      2.33926733211806      3.28904878515530
  *************************************************************************
   ATOM                      CARTESIAN GRADIENTS  
    1 c      -0.00000058408548      0.00000009935090     -0.00000005954143
    2 c       0.00000139279237      0.00000033979406     -0.00000049206124
    3 c      -0.00000126166524      0.00000060225036     -0.00000016788813
    4 c       0.00000021963280     -0.00000007659214     -0.00000023138173
    5 c       0.00000066234424      0.00000035168045     -0.00000080464540
    6 c      -0.00000155233410      0.00000089940001      0.00000204530092
    7 n       0.00000036360131     -0.00000127385001      0.00000404760530
    8 c       0.00000082877246     -0.00000003703348     -0.00000122167078
    9 c      -0.00000028250095      0.00000059815062     -0.00000224872373
   10 o       0.00000017268307      0.00000005619835     -0.00000001228534
   11 h      -0.00000005301855     -0.00000039300157     -0.00000154450527
   12 c      -0.00000030697614      0.00000137175720      0.00000136592950
   13 c       0.00000218414564     -0.00000038531087     -0.00000072018840
   14 n      -0.00000134143609     -0.00000065322457      0.00000055260632
   15 h       0.00000007286983     -0.00000053992643      0.00000008376823
   16 h      -0.00000020262635      0.00000000658728      0.00000003578314
   17 h      -0.00000012845801     -0.00000038545419     -0.00000018348808
   18 h       0.00000016015033      0.00000001717061      0.00000034379338
   19 h      -0.00000025342057      0.00000013532130     -0.00000025220341
   20 h       0.00000031577474     -0.00000074164538     -0.00000019657850
   21 h      -0.00000012017978     -0.00000060259003     -0.00000021282123
   22 h      -0.00000066116936      0.00000021954956     -0.00000049364770
   23 h      -0.00000070473878     -0.00000036027002      0.00000026848366
   24 h       0.00000073691608      0.00000045894783      0.00000000572869
   25 h       0.00000016490588     -0.00000018445771     -0.00000019096975
  *************************************************************************

  norm of actual CARTESIAN gradient:  7.60128E-06
  norm of actual INTERNAL  gradient:  6.50451E-06

  ENERGY =    -573.4173166130 a.u.; # of cycle =   15

  Approximate Hessian read from $hessapprox data section

  Hessian updated according to BFGS formula
  Number of zero Hessian eigenvalues:   0
  Number of structures for GDIIS interpolation:    5
  GDIIS step:     0.000171

  Transforming internal coordinate displacements to Cartesian space
      Iteration   1 residual norm     1.710186E-04
      Iteration   2 residual norm     1.568436E-08
      Iteration   3 residual norm     4.565692E-14
      Transformation converged
      Residual norm:    4.565692E-14 after    3 iterations

      ****************************************************************** 
                          CONVERGENCE INFORMATION

                               Converged?     Value      Criterion
             Energy change         yes      0.0000000   0.0000001
             RMS of displacement   yes      0.0000206   0.0005000
             RMS of gradient       yes      0.0000008   0.0005000
             MAX displacement      yes      0.0001226   0.0010000
             MAX gradient          yes      0.0000031   0.0001000
      ****************************************************************** 


    ------------------------------------------------------------------------
         total  cpu-time :   0.05 seconds
         total wall-time :   0.05 seconds
    ------------------------------------------------------------------------


   ****  statpt : all done  ****


    2015-08-15 02:42:50.692 

fine, there is no data group "$actual step"
next step = ridft
 operating system is UNIX !
 hostname is         c-6-30.local

 ridft (c-6-30.local) : TURBOMOLE V7.0( ) 6 Jul 2015 at 18:30:05
 Copyright (C) 2015 TURBOMOLE GmbH, Karlsruhe


    2015-08-15 02:42:50.723 



                                  r i d f t

                        DFT program with RI approximation 
                                for coulomb part 




                                                 
                                 References:     
                                                 
          TURBOMOLE:                             
              R. Ahlrichs, M. Baer, M. Haeser, H. Horn, and
              C. Koelmel
              Electronic structure calculations on workstation
              computers: the program system TURBOMOLE
              Chem. Phys. Lett. 162: 165 (1989)
          Density Functional:                              
              O. Treutler and R. Ahlrichs                      
              Efficient Molecular Numerical Integration Schemes
              J. Chem. Phys. 102: 346 (1995)                   
          Parallel Version:                                
              Performance of parallel TURBOMOLE for Density    
              Functional Calculations                          
              M. v. Arnim and R. Ahlrichs                      
              J. Comp. Chem. 19: 1746 (1998)                   
          RI-J Method:                                     
              Auxiliary Basis Sets to approximate Coulomb      
              Potentials                                       
              Chem. Phys. Lett. 240: 283 (1995)                
              K. Eichkorn, O. Treutler, H. Oehm, M. Haeser     
              and R. Ahlrichs                                  
              Chem. Phys. Lett. 242: 652 (1995)                
                                                           
              Auxiliary Basis Sets for Main Row Atoms and their
              Use to approximate Coulomb Potentials            
              K. Eichkorn, F. Weigend, O. Treutler and         
              R. Ahlrichs                                      
              Theo. Chem. Acc. 97: 119 (1997)                   
                                                           
              Accurate Coulomb-fitting basis sets for H to Rn 
              F. Weigend                                        
              Phys. Chem. Chem. Phys. 8: 1057 (2006)            
                                                           
          Multipole accelerated RI-J (MARI-J):             
              Fast evaluation of the Coulomb potential for     
              electron densities using multipole accelerated   
              resolution of identity approximation             
              M. Sierka, A. Hogekamp and R. Ahlrichs           
              J. Chem. Phys. 118: 9136 (2003)                  
          RI-JK Method:                                     
              A fully direct RI-HF algorithm: Implementation,
              optimised auxiliary basis sets, demonstration of
              accuracy and efficiency                         
              F. Weigend                                      
              Phys. Chem. Chem. Phys. 4: 4285 (2002)           
          Two-component HF and DFT with spin-orbit coupling:  
              Self-consistent treatment of spin-orbit         
              interactions with efficient Hartree-Fock and    
              density functional methods                      
              M. K. Armbruster, F. Weigend, C. van Wüllen and 
              W. Klopper                                      
              Phys. Chem. Chem. Phys. 10: 1748 (2008)         
          Relativistic all-electron 2c calculations           
              An efficient implementation of two-component    
              relativistic exact-decoupling methods for large 
              molecules                                       
              D. Peng, N. Middendorf, F. Weigend, M. Reiher   
              J. Chem. Phys. 138, 184105 (2013)               
                                         


 


              +--------------------------------------------------+
              |      general information about current run       |
              +--------------------------------------------------+

 

 DENSITY CONVERGENCE CHECK SWITCHED ON !
 SCF CONVERGENCE IF RMS(delta[D]) <     0.1000000000E-06

 PBE functional
 exchange:    LDA + PBE
 correlation: LDA (PW) + PBE
 A DFT calculation using the RI-J approximation will be carried out.
 Allocatable memory for RI due to $ricore (MB):        7000


              +--------------------------------------------------+
              | Atomic coordinate, charge and isotop information |
              +--------------------------------------------------+

                    atomic coordinates            atom    charge  isotop
         -2.69796237    0.29092744   -0.73417533    c      6.000     0
         -4.74858669   -1.34628665   -0.70433871    c      6.000     0
         -4.42915767   -4.00048184   -0.72862955    c      6.000     0
         -2.02900832   -5.06420487   -0.77542417    c      6.000     0
          0.05013196   -3.42056381   -0.81095229    c      6.000     0
         -0.24391688   -0.75939454   -0.78400933    c      6.000     0
          2.61598335   -3.92922285   -0.86359420    n      7.000     0
          2.25287798    0.33769389   -0.86644225    c      6.000     0
          3.92085443   -1.66202395   -0.92779846    c      6.000     0
         -7.21757820   -0.50255268   -0.64682775    o      8.000     0
          3.40096145   -5.66050470   -1.03667587    h      1.000     0
          2.93013274    3.09960969   -0.85708888    c      6.000     0
          2.97946100    4.26755882    1.79697497    c      6.000     0
          0.43836912    4.18856134    2.94453164    n      7.000     0
         -2.96334707    2.33372888   -0.67465649    h      1.000     0
         -6.10959861   -5.18589282   -0.70106583    h      1.000     0
         -1.78793248   -7.10916660   -0.79113860    h      1.000     0
          5.96918846   -1.64566886   -1.02783820    h      1.000     0
         -7.17352794    1.33475653   -0.61746621    h      1.000     0
          4.80680489    3.34398448   -1.72181514    h      1.000     0
          1.57180942    4.16078809   -2.02186533    h      1.000     0
          3.54206630    6.26362923    1.64660344    h      1.000     0
          4.43128067    3.28566570    2.93492802    h      1.000     0
          0.51408233    5.03970725    4.67985400    h      1.000     0
         -0.02338786    2.33935283    3.28891051    h      1.000     0
 
       center of nuclear mass  :   -0.51454129   -0.53920115   -0.23819778
       center of nuclear charge:   -0.44971066   -0.46008156   -0.20214457

              +--------------------------------------------------+
              |               basis set information              |
              +--------------------------------------------------+

              we will work with the 1s 3p 5d 7f 9g ... basis set
              ...i.e. with spherical basis functions...

   type   atoms  prim   cont   basis
   ---------------------------------------------------------------------------
    c       10     46     31   def2-TZVP   [5s3p2d1f|11s6p2d1f]
    n        2     46     31   def2-TZVP   [5s3p2d1f|11s6p2d1f]
    o        1     46     31   def2-TZVP   [5s3p2d1f|11s6p2d1f]
    h       12      8      6   def2-TZVP   [3s1p|5s1p]
   ---------------------------------------------------------------------------
   total:   25    694    475
   ---------------------------------------------------------------------------

   total number of primitive shells          :   66
   total number of contracted shells         :  191
   total number of cartesian basis functions :  540
   total number of SCF-basis functions       :  475


 integral neglect threshold       :  0.62E-11
 integral storage threshold THIZE :  0.10E-04
 integral storage threshold THIME :         5

 RI-J AUXILIARY BASIS SET information:

              we will work with the 1s 3p 5d 7f 9g ... basis set
              ...i.e. with spherical basis functions...

   type   atoms  prim   cont   basis
   ---------------------------------------------------------------------------
    c       10     70     49   def2-TZVP   [6s4p3d1f1g|12s5p4d2f1g]
    n        2     70     49   def2-TZVP   [6s4p3d1f1g|12s5p4d2f1g]
    o        1     70     49   def2-TZVP   [6s4p3d1f1g|12s5p4d2f1g]
    h       12     16     11   def2-TZVP   [3s1p1d|5s2p1d]
   ---------------------------------------------------------------------------
   total:   25   1102    769
   ---------------------------------------------------------------------------

   total number of primitive shells          :   80
   total number of contracted shells         :  255
   total number of cartesian basis functions :  937
   total number of SCF-basis functions       :  769


 symmetry group of the molecule :   c1 

 the group has the following generators :
   c1(z)

    1 symmetry operations found

 there are 1 real representations :   a   

 maximum number of shells which are related by symmetry :  1


    mo occupation :
   irrep   mo's   occupied
    a      475       47
 
 number of basis functions   :          475
 number of occupied orbitals :           47
 
  
           ------------------
           density functional
           ------------------
 PBE functional
 exchange:    LDA + PBE
 correlation: LDA (PW) + PBE
 iterations will be done with small grid
  
 spherical integration : Lebedev's spherical grid
 spherical gridsize    :           5
    i.e. gridpoints    :         590
 value for diffuse not defined
 radial integration    : Chebyshev 2nd kind (scaling 3)
 radial gridsize       :           8
 integration cells     :          25
 partition function    : becke
 partition sharpness   :           3
  

 biggest AO integral is expected to be     7.998976882
  
           ------------------------
               RI-J - INFORMATION
           ------------------------
 Contributions to RI integral batches: 
  neglected integral batches:        3497
  direct contribution:                  0
  memory contribution:       14839
 Memory core needed for (P|Q) and Cholesky      5 MByte
 Memory core minimum needed except of (P|Q)     2 MByte
 Total minimum memory core needed (sum)         6 MByte
  
 ****************************************
 Memory allocated for RI-J   867 MByte
 ****************************************
                                            

          ------------------------
          nuclear repulsion energy  :   769.465888993    
          ------------------------

 
          -----------------
          -S,T+V- integrals
          -----------------

 1e-integrals will be neglected if expon. factor < 0.618882E-12
 
   Difference densities algorithm switched on.
   The maximal number of linear combinations of
   difference densities is          20 .

 automatic virtual orbital shift switched on 
      shift if e(lumo)-e(homo) < 0.10000000    


 DIIS switched on: error vector is FDS-SDF
 Max. Iterations for DIIS is     :   4
 DIIS matrix (see manual) 
    Scaling factor of diagonals  :  1.200
    threshold for scaling factor :  0.000

 scf convergence criterion : increment of total energy < .1000000D-06
                  and increment of one-electron energy < .1000000D-03

  MOs are in ASCII format !


 reading orbital data $scfmo  from file mos . 

 orbital characterization : scfconv=7
 

 DSCF restart information will be dumped onto file mos


 Starting SCF iterations

          Overall gridpoints after grid construction =        120440

 ITERATION  ENERGY          1e-ENERGY        2e-ENERGY     RMS[dD(SAO)]   TOL
   1  -572.52688126253    -2303.6900853     961.69731509    0.000D+00 0.617D-11
                            Exc = -80.5465869451     Coul =  1042.24390203    
                              N = 93.999838237    
                            current damping = 0.700
 
          max. resid. norm for Fia-block=  2.118D-05 for orbital     45a         
          max. resid. fock norm         =  1.813D-04 for orbital    197a         

 ITERATION  ENERGY          1e-ENERGY        2e-ENERGY     RMS[dD(SAO)]   TOL
   2  -572.52688126959    -2303.6900737     961.69730345    0.138D-05 0.391D-11
                            Exc = -80.5465816947     Coul =  1042.24388515    
                              N = 93.999838237    
                            current damping = 0.700
 
          Norm of current diis error: 0.12651E-03
          max. resid. norm for Fia-block=  8.832D-06 for orbital     45a         
          max. resid. fock norm         =  7.464D-05 for orbital    197a         

 ENERGY & DENSITY CONVERGED !

          Overall gridpoints after grid construction =        387128

 ITERATION  ENERGY          1e-ENERGY        2e-ENERGY     RMS[dD(SAO)]   TOL
   3  -572.52688406643    -2303.6900667     961.69729363    0.674D-06 0.298D-11
                            Exc = -80.5465894742     Coul =  1042.24388311    
                              N = 93.999999137    
                            current damping = 0.550
 
          Norm of current diis error: 0.71488E-04
          max. resid. norm for Fia-block=  4.178D-06 for orbital     47a         
          max. resid. fock norm         =  3.092D-05 for orbital    197a         

 End of SCF iterations

   convergence criteria satisfied after    3 iterations


                  ------------------------------------------ 
                 |  total energy      =   -572.52688406643  |
                  ------------------------------------------ 
                 :  kinetic energy    =    569.88673942912  :
                 :  potential energy  =  -1142.41362349555  :
                 :  virial theorem    =      1.99538861019  :
                 :  wavefunction norm =      1.00000000000  :
                  .......................................... 


 orbitals $scfmo  will be written to file mos

    irrep                 43a         44a         45a         46a         47a   
 eigenvalues H         -0.26691    -0.24204    -0.19979    -0.18345    -0.17223
            eV          -7.2630     -6.5863     -5.4365     -4.9919     -4.6865
 occupation              2.0000      2.0000      2.0000      2.0000      2.0000 

    irrep                 48a         49a         50a         51a         52a   
 eigenvalues H         -0.04463    -0.00045     0.00957     0.01057     0.01911
            eV          -1.2146     -0.0121      0.2603      0.2877      0.5199
 
 
 
 
 ==============================================================================
                           electrostatic moments
 ==============================================================================

 reference point for electrostatic moments:    0.00000   0.00000   0.00000

 
              nuc           elec       ->  total
 ------------------------------------------------------------------------------
                          charge      
 ------------------------------------------------------------------------------
          94.000000     -94.000000      -0.000000
 
 ------------------------------------------------------------------------------
                       dipole moment  
 ------------------------------------------------------------------------------
   x     -42.272802      43.375707       1.102905
   y     -43.247667      43.006846      -0.240821
   z     -19.001590      19.268394       0.266805
 
   | dipole moment | =     1.1600 a.u. =     2.9484 debye 
 
 ------------------------------------------------------------------------------
                     quadrupole moment
 ------------------------------------------------------------------------------
  xx    1221.197012   -1277.265436     -56.068425
  yy     980.826273   -1030.616548     -49.790275
  zz     178.529287    -236.742392     -58.213105
  xy     328.588836    -333.760609      -5.171773
  xz      87.923885     -88.541125      -0.617240
  yz     267.416545    -265.802707       1.613837
 
     1/3  trace=     -54.690602
     anisotropy=      12.111049
 
 ==============================================================================
 
 


    ------------------------------------------------------------------------
         total  cpu-time :  31.91 seconds
         total wall-time :  31.89 seconds
    ------------------------------------------------------------------------


   ****  ridft : all done  ****


    2015-08-15 02:43:22.609 

fine, there is no data group "$actual step"
next step = rirpa
 
 
    *************************************************************************
    *************************** PROGRAM RIRPA *******************************
    ******                                                             ******
    ******              H. Eshuis, J. E. Bates and F. Furche           ******
    ******                                                             ******
    ****** Nov 2011                                                    ******
    ****** Copyright TURBOMOLE GmbH                                    ******
    *************************************************************************
    
    
                                References:                                  
    
                   RIRPA:                                                    
                     H. Eshuis, J. Yarkony and F. Furche                     
                     Fast computation of molecular random phase              
                     approximation correlation energies using resolution     
                     of the identity imaginary frequency integration         
                     J. Chem. Phys. 132: 234114 (2010)                       
    
                     H. Eshuis, J. E. Bates and F. Furche                    
                     Electron correlation methods based on                   
                     the random phase approximation                          
                     Theor. Chem. Acc.  131: 1084 (2012)                     
    
                   TWO-COMPONENT RIRPA:                                      
                     M. Kuehn                                                
                     Correlation energies from the                           
                     two-component random-phase approximation                
                     J. Chem. Theory Comput. 10: 623 (2014)                  
    
                   RIRPA GRADIENTS:                                          
                     Asbjoern M. Burow, Jefferson E. Bates, Filipp Furche*,  
                     and Henk Eshuis                                         
                     Analytical First-Order Molecular Properties and Forces  
                     within the Adiabatic Connection Random Phase            
                     Approximation                                           
                     J. Chem. Theory Comput. (2013, ASAP),                   
                     DOI: 10.1021/ct4008553                                  
    
    
    
 hostname is         c-6-30.local

 rirpa (c-6-30.local) : TURBOMOLE V7.0( ) 6 Jul 2015 at 18:30:05
 Copyright (C) 2015 TURBOMOLE GmbH, Karlsruhe


    2015-08-15 02:43:22.641 

 
                FOUND RI-J FLAG
 
  HF exact exchange energy will be computed using RI-J.


              +--------------------------------------------------+
              | Atomic coordinate, charge and isotop information |
              +--------------------------------------------------+

                    atomic coordinates            atom    charge  isotop
         -2.69796237    0.29092744   -0.73417533    c      6.000     0
         -4.74858669   -1.34628665   -0.70433871    c      6.000     0
         -4.42915767   -4.00048184   -0.72862955    c      6.000     0
         -2.02900832   -5.06420487   -0.77542417    c      6.000     0
          0.05013196   -3.42056381   -0.81095229    c      6.000     0
         -0.24391688   -0.75939454   -0.78400933    c      6.000     0
          2.61598335   -3.92922285   -0.86359420    n      7.000     0
          2.25287798    0.33769389   -0.86644225    c      6.000     0
          3.92085443   -1.66202395   -0.92779846    c      6.000     0
         -7.21757820   -0.50255268   -0.64682775    o      8.000     0
          3.40096145   -5.66050470   -1.03667587    h      1.000     0
          2.93013274    3.09960969   -0.85708888    c      6.000     0
          2.97946100    4.26755882    1.79697497    c      6.000     0
          0.43836912    4.18856134    2.94453164    n      7.000     0
         -2.96334707    2.33372888   -0.67465649    h      1.000     0
         -6.10959861   -5.18589282   -0.70106583    h      1.000     0
         -1.78793248   -7.10916660   -0.79113860    h      1.000     0
          5.96918846   -1.64566886   -1.02783820    h      1.000     0
         -7.17352794    1.33475653   -0.61746621    h      1.000     0
          4.80680489    3.34398448   -1.72181514    h      1.000     0
          1.57180942    4.16078809   -2.02186533    h      1.000     0
          3.54206630    6.26362923    1.64660344    h      1.000     0
          4.43128067    3.28566570    2.93492802    h      1.000     0
          0.51408233    5.03970725    4.67985400    h      1.000     0
         -0.02338786    2.33935283    3.28891051    h      1.000     0
 
       center of nuclear mass  :   -0.51454129   -0.53920115   -0.23819778
       center of nuclear charge:   -0.44971066   -0.46008156   -0.20214457
              +-------------------------------------------------+
              |        Rotational Constants Section             |
              +-------------------------------------------------+
                                   Center of Mass [a.u]:
              -0.51454129243722        -0.53920114949259        -0.23819778368826
                     Principal Moments of Inertia [a.u.]
            1565.83967158928544      2756.86765386955904      4016.36630859485194
                       Rotational constants A,B,C [a.u.]
               0.00031931749404         0.00018136525317         0.00012449063695
                     Rotational constants A,B,C [cm**-1]
               0.03844562609058         0.02183626277715         0.01498859464160
                        Rotational constants A,B,C [MHz]
            1152.57087450434233       654.63468914951625       449.34676295715013

   * BASIS SET information:

              +--------------------------------------------------+
              |               basis set information              |
              +--------------------------------------------------+

              we will work with the 1s 3p 5d 7f 9g ... basis set
              ...i.e. with spherical basis functions...

   type   atoms  prim   cont   basis
   ---------------------------------------------------------------------------
    c       10     46     31   def2-TZVP   [5s3p2d1f|11s6p2d1f]
    n        2     46     31   def2-TZVP   [5s3p2d1f|11s6p2d1f]
    o        1     46     31   def2-TZVP   [5s3p2d1f|11s6p2d1f]
    h       12      8      6   def2-TZVP   [3s1p|5s1p]
   ---------------------------------------------------------------------------
   total:   25    694    475
   ---------------------------------------------------------------------------

   total number of primitive shells          :   66
   total number of contracted shells         :  191
   total number of cartesian basis functions :  540
   total number of SCF-basis functions       :  475


   * AUXILIARY BASIS SET information:

              +--------------------------------------------------+
              |               basis set information              |
              +--------------------------------------------------+

              we will work with the 1s 3p 5d 7f 9g ... basis set
              ...i.e. with spherical basis functions...

   type   atoms  prim   cont   basis
   ---------------------------------------------------------------------------
    c       10     81     76   def2-TZVP   [8s6p4d3f1g|8s6p5d3f1g]
    n        2     81     76   def2-TZVP   [8s6p4d3f1g|8s6p5d3f1g]
    o        1     81     76   def2-TZVP   [8s6p4d3f1g|8s6p5d3f1g]
    h       12     23     15   def2-TZVP   [4s2p1d|4s3p2d]
   ---------------------------------------------------------------------------
   total:   25   1329   1168
   ---------------------------------------------------------------------------

   total number of primitive shells          :   78
   total number of contracted shells         :  370
   total number of cartesian basis functions : 1427
   total number of SCF-basis functions       : 1168


   * RIJ AUXILIARY BASIS SET information:

              +--------------------------------------------------+
              |               basis set information              |
              +--------------------------------------------------+

              we will work with the 1s 3p 5d 7f 9g ... basis set
              ...i.e. with spherical basis functions...

   type   atoms  prim   cont   basis
   ---------------------------------------------------------------------------
    c       10     70     49   def2-TZVP   [6s4p3d1f1g|12s5p4d2f1g]
    n        2     70     49   def2-TZVP   [6s4p3d1f1g|12s5p4d2f1g]
    o        1     70     49   def2-TZVP   [6s4p3d1f1g|12s5p4d2f1g]
    h       12     16     11   def2-TZVP   [3s1p1d|5s2p1d]
   ---------------------------------------------------------------------------
   total:   25   1102    769
   ---------------------------------------------------------------------------

   total number of primitive shells          :   80
   total number of contracted shells         :  255
   total number of cartesian basis functions :  937
   total number of SCF-basis functions       :  769


 reading orbital data $scfmo  from file mos . 

 orbital characterization : scfconv=7
 

 integral neglect threshold       :  0.27E+02

 scfconv           7

 MAXIMUM CORE MEMORY WHICH CAN BE ALLOCATED DYNAMICALLY = 7000 MiB
              ( or 917504000 double words )


 there are 1 real representations :   a   

 maximum number of shells which are related by symmetry :  1


         --------------------------------------------------------------
                   checking mo's by calculating trace(D*S)

              number of electrons : 
                 from trace(D*S)         :   94.000000000008
                 from occupation numbers :   94.000000000000

              molecular charge           :    0.000000000000
         --------------------------------------------------------------

 time elapsed for calculating density matrices :   0.021 sec
 all orbitals will be active in the correlation treatment

     total memory allocated for calculation of (Q|P)**(-1/2) : 16 MiB


     calculation of (P|Q) ...
     time in lp2sym        cpu:  0.04 sec    wall:  0.04 sec    ratio:  1.0


     calculation of the Cholesky decomposition of (P|Q)**(-1) ...
     time in invmetri      cpu:  0.22 sec    wall:  0.22 sec    ratio:  1.0

   threshold for RMS(d[D]) in SCF was     :  0.10E-06
   integral neglect threshold             :  0.23E-11
   derivative integral neglect threshold  :  0.10E-06


 setting up bound for integral derivative estimation

 increment for numerical differentiation : 0.00050000
 total memory allocated for calculation of (Q|P)**(-1/2) : 16 MiB
 Dividing biap into          916  block chunks,
 using                     3 MB per block
 Reserved                   3493 MB for BLAS routines
 Estimated total memory usage:                   6998 MB
 number of passes:            1
 
 Number of eigenvalues < 6e-3:            0
 
 
            -----------------------------
            Complex frequency integration
            -----------------------------
 
 Number of Clenshaw-Curtis nodes:          200
 Optimized scaling parameter    :    2.08772097489638     
 Sensitivity measure            :  -3.073832854916247E-011
 
 Allocatable memory for RI due to $ricore (MB):        7000

 there are 1 real representations :   a   

 maximum number of shells which are related by symmetry :  1

  
           ------------------------
               RI-J - INFORMATION
           ------------------------
 Contributions to RI integral batches: 
  neglected integral batches:        2682
  direct contribution:                  0
  memory contribution:       15654
 
          -----------------
          -S,T+V- integrals
          -----------------

 1e-integrals will be neglected if expon. factor < 0.233590E-11

          ------------------------
          nuclear repulsion energy  :   769.465888993    
          ------------------------


                  -------------------------------------------- 
                 |  HXX+RIRPA total energy     =   -573.41731647762  |
                  --------------------------------------------- 
                 :  RIRPA correlation energy   =     -3.91284848624  :
                 :  HXX total energy           =   -569.50446799139  :
                 :  Hartree energy             =   1042.24388310776  :
                 :  Exact Exchange energy      =    -77.52417339760  :
                  ............................................. 


    ------------------------------------------------------------------------
    Rirpa Energy profiling         cpu                    wall         ratio
    ------------------------------------------------------------------------
    module                         sec     %               sec     %
    ------------------------------------------------------------------------
    RIRPA_energy                697.6  100.00          697.0  100.00   1.0
    riccbound                     0.9    0.13            0.9    0.13   1.0
    ccmkbaoi                     13.4    1.92           13.4    1.92   1.0
    ecrpa                       560.8   80.40          560.4   80.40   1.0
    tread                        17.5    2.50           17.5    2.50   1.0
    tqbuild                     520.5   74.62          520.1   74.62   1.0
    trpaln                       12.8    1.83           12.8    1.83   1.0
    ehxx                        121.7   17.45          121.6   17.45   1.0
    ------------------------------------------------------------------------
    sum                        1945.9  278.95         1944.4  278.96   1.0
    ------------------------------------------------------------------------

 residuum convergence criterium   :  0.10E-04


 integral neglect threshold       :  0.62E-11
 integral storage threshold THIZE :  0.10E-04
 integral storage threshold THIME :         5


 WARNING : cannot change filename for statistics 
  
           ------------------
           density functional
           ------------------
 PBE functional
 exchange:    LDA + PBE
 correlation: LDA (PW) + PBE
 iterations will be done with small grid
  
 spherical integration : Lebedev's spherical grid
 spherical gridsize    :           5
    i.e. gridpoints    :         590
 value for diffuse not defined
 radial integration    : Chebyshev 2nd kind (scaling 3)
 radial gridsize       :           8
 integration cells     :          25
 partition function    : becke
 partition sharpness   :           3
  
 preparing numerical integration ....
          Overall gridpoints after grid construction =        120440

 Calculating ground state density on molecular grid

 Integral of ground state density: N =   93.99983823744984    



          IRREP   tensor space dimension   number of roots

           a             20116                   1
 number of passes:    1
 
 Number of eigenvalues < 6e-3:            0
 
 
            -----------------------------
            Complex frequency integration
            -----------------------------
 
 Number of Clenshaw-Curtis nodes:          200
 Optimized scaling parameter    :    2.08772097489638     
 Sensitivity measure            :  -3.073832854916247E-011
 
 Contributions to RI integral batches: 
  neglected integral batches:        2923
  direct contribution:              15413
  memory contribution:           0

 maximum number of Davidson iterations set to   25


 logfile dipl_a    exists already

 found      1 converged vectors on dipl_a   
 read       1 vectors from logfile dipl_a   


                    ------------------

                     CPKS equations   

                    ------------------


                       Block Davidson iteration


 total number of roots to be determined:   1


 maximum core memory set to  7000 MB,
 corresponding to     3106 vectors in CAO basis


 maximum number of simultaneously treated vectors (including degeneracy):        1


 Iteration IRREP Converged      Max. Euclidean
                 roots          residual norm

    1       a        0        3.815249311506975D-04
 
    2       a        0        3.995306089896086D-05
 
    3       a        1        6.146933253371968D-06
 

 converged!


 Switching to fine grid

 preparing numerical integration ....
          Overall gridpoints after grid construction =        387128

 Calculating ground state density on molecular grid

 Integral of ground state density: N =   93.99999913711228    



 Iteration IRREP Converged      Max. Euclidean
                 roots          residual norm

    4       a        0        6.099429600165949D-05
 

 NOTE: Residual norms are larger than 1.00D-05 due to mgrid option!

 Eigenpairs written on logfile dipl_a   



 IRREP   Vector     Frequency            Euclidean residual norm

  a         1    0.000000000000000D+00    6.099429600165949D-05
 

                    -------------------

                     relaxed densities 

                    -------------------

    ----------------------------------------
     S+T+V CONTRIBUTIONS TO ENERGY GRADIENT 
    ----------------------------------------

 1e-integral 1st. derivatives will be neglected if expon. factor < 0.100000E-10


    -----------------------------------------------
     TWO ELECTRON CONTRIBUTIONS TO ENERGY GRADIENT 
    -----------------------------------------------

 setting up bound for integral derivative estimation

 increment for numerical differentiation : 0.00050000

 biggest AO integral is expected to be     7.998976882
 biggest cartesian 1st derivative AO integral is expected to be    17.678530758

 biggest 1-particle AO density matrix element is expected to be    1.3203206306

 core memory to be involved in 2e-gradient :
   symmetry shell pair data              :         1
   two particle density+dens. estimates  :     68961
   derivative integrals                  :    313877
   ij-primitive data                     :       324
   derivative integral bound             :     55008
   totally                               :    369207


 setting up bound for integral derivative estimation

 increment for numerical differentiation : 0.00050000

 biggest AO integral is expected to be     7.998976882
 biggest cartesian 1st derivative AO integral is expected to be    17.678530758

 2e-integral 1st. derivatives will be neglected if expon. factor < 0.935762E-20
 outer boundary for 2e-integral derivative neglection is 0.894655E-21

 Integrated ground state density     :   93.99999913711298    


          ------------------------------------------------
           cartesian gradient of the energy (hartree/bohr)
          ------------------------------------------------

  ATOM      1 c           2 c           3 c           4 c           5 c 
dE/dx  0.9983226D-06 -0.4335562D-06 -0.2437227D-06  0.4134649D-06  0.2961049D-07
dE/dy -0.5044541D-06  0.8464889D-06 -0.5752974D-06  0.7208194D-06 -0.5699333D-07
dE/dz  0.4143388D-06  0.2664704D-07  0.3982676D-07 -0.5164909D-06 -0.2116897D-05

  ATOM      6 c           7 n           8 c           9 c          10 o 
dE/dx -0.1761663D-05  0.1137763D-06  0.1255311D-05 -0.4528782D-06  0.1698768D-06
dE/dy  0.4909425D-06 -0.6193757D-06  0.1536341D-06 -0.3725378D-07 -0.2085890D-06
dE/dz  0.1788950D-06  0.4252095D-05 -0.8403805D-06 -0.1450289D-05 -0.1424575D-06

  ATOM     11 h          12 c          13 c          14 n          15 h 
dE/dx -0.5269194D-07 -0.5814284D-08  0.2737996D-05 -0.2511007D-05 -0.7585789D-07
dE/dy -0.8898805D-07  0.9777544D-06 -0.2823646D-06  0.2495257D-06 -0.4195901D-07
dE/dz -0.1268236D-05  0.2067501D-05 -0.1804186D-05  0.7750170D-06 -0.7556846D-07

  ATOM     16 h          17 h          18 h          19 h          20 h 
dE/dx  0.2347378D-07 -0.2691046D-06  0.7420986D-07  0.5457997D-07  0.2437762D-07
dE/dy  0.3011941D-06 -0.8769055D-07 -0.1841059D-06  0.1596637D-07 -0.5216060D-06
dE/dz  0.9282897D-07  0.2559646D-06  0.2613457D-06 -0.1484241D-06 -0.3415718D-06

  ATOM     21 h          22 h          23 h          24 h          25 h 
dE/dx -0.3916730D-06 -0.6080544D-06 -0.6033766D-06  0.8478776D-06  0.4885789D-06
dE/dy -0.6843048D-06  0.2173567D-06 -0.5200436D-06 -0.3716300D-09 -0.3739856D-07
dE/dz -0.2342279D-06  0.7139859D-07  0.5154515D-06 -0.1661405D-06 -0.1299291D-06
 
 resulting FORCE  (fx,fy,fz) = (-.178D-06,-.477D-06,-.283D-06)
 resulting MOMENT (mx,my,mz) = (-.355D-06,-.184D-05,-.104D-04)


 **********************************************************************
  |maximum component of gradient| : 0.42520946E-05  (atom  7 n )       
   gradient norm                  : 0.79471202E-05
 **********************************************************************

 exx =       0.000003 eyy =      -0.000003 ezz =      -0.000000
 eyz =       0.000000 exz =       0.000002 exy =      -0.000002

   ***  cartesian gradients written onto <gradient>  ***
 
 
 
 ==============================================================================
                           electrostatic moments
 ==============================================================================

 reference point for electrostatic moments:    0.00000   0.00000   0.00000

 
              nuc           gs,e       ->  gs,tot          rpa       ->  total
 ------------------------------------------------------------------------------
                          charge      
 ------------------------------------------------------------------------------
          94.000000     -94.000000      -0.000000      -0.000000      -0.000000
 
 ------------------------------------------------------------------------------
                       dipole moment  
 ------------------------------------------------------------------------------
   x     -42.272802      43.375707       1.102905       0.073329       1.176235
   y     -43.247667      43.006846      -0.240821      -0.021988      -0.262809
   z     -19.001590      19.268394       0.266805       0.001077       0.267882
 
   | dipole moment | =     1.2346 a.u. =     3.1382 debye 
 
 ------------------------------------------------------------------------------
                     quadrupole moment
 ------------------------------------------------------------------------------
  xx    1221.197012   -1277.265436     -56.068425      -0.498079     -56.566504
  yy     980.826273   -1030.616548     -49.790275      -0.177965     -49.968241
  zz     178.529287    -236.742392     -58.213105      -0.594002     -58.807107
  xy     328.588836    -333.760609      -5.171773       0.145978      -5.025795
  xz      87.923885     -88.541125      -0.617240       0.038372      -0.578868
  yz     267.416545    -265.802707       1.613837       0.006988       1.620826
 
     1/3  trace=     -55.113951
     anisotropy=      12.165681
 
 ==============================================================================
 

    ------------------------------------------------------------------------
    Rirpa profiling                cpu                    wall         ratio
    ------------------------------------------------------------------------
    module                         sec     %               sec     %
    ------------------------------------------------------------------------
    RIRPA                      4299.5  100.00         4296.8  100.00   1.0
    RIRPA_energy                697.6   16.22          697.0   16.22   1.0
    ccmkbaoi                     13.4    0.31           13.4    0.31   1.0
    ecrpa                       560.8   13.04          560.4   13.04   1.0
    tread                        17.5    0.41           17.5    0.41   1.0
    tqbuild                     520.5   12.11          520.1   12.11   1.0
    trpaln                       12.8    0.30           12.8    0.30   1.0
    ehxx                        121.7    2.83          121.6    2.83   1.0
    RIRPA_grad                 3601.9   83.78         3599.8   83.78   1.0
    SETUP_grad                    4.7    0.11            4.7    0.11   1.0
    rirhs                      2441.4   56.78         2440.2   56.79   1.0
    respon                       60.1    1.40           60.1    1.40   1.0
    rparelax                     25.8    0.60           25.8    0.60   1.0
    egdfin                     1054.9   24.53         1054.1   24.53   1.0
    ------------------------------------------------------------------------
    sum                       13434.2  312.46        13425.8  312.46   1.0
    ------------------------------------------------------------------------


    ------------------------------------------------------------------------
         total  cpu-time :  1 hours 11 minutes and 40 seconds
         total wall-time :  1 hours 11 minutes and 37 seconds
    ------------------------------------------------------------------------


   ****  rirpa : all done  ****


    2015-08-15 03:54:59.479 

                                 ****   rirpa : all done  ****
fine, there is no data group "$actual step"
script actual: unknown actual step rirpa
next step = unknown
 energy change  : actual value =   0.2830E-07 threshold =   0.1000E-06
 geom. gradient : actual value =   0.3091E-05 threshold =   0.1000E-03

CONVERGENCY CRITERIA FULFILLED IN CYCLE 15

