           Doing BLAS/Lapack in the master proc. with  8 CPUs.
           SMPCPUS    set: Shared-memory Parallelization with   8 CPUs.

           SMP Parallelization Reference:
           C. van Wullen, J. Comput. Chem. 32 (2011) 1195--1201
 operating system is UNIX !

 ridft (c-18-84.gp.local) : TURBOMOLE V7.2 ( 21454 ) 4 Oct 2017 at 12:48:15
 Copyright (C) 2017 TURBOMOLE GmbH, Karlsruhe


    2018-04-24 21:16:56.666 



                                  r i d f t

                        DFT program with RI approximation 
                                for coulomb part 




                                                 
                                 References:     
                                                 
          TURBOMOLE:                             
              R. Ahlrichs, M. Baer, M. Haeser, H. Horn, and
              C. Koelmel
              Electronic structure calculations on workstation
              computers: the program system TURBOMOLE
              Chem. Phys. Lett. 162: 165 (1989)
          Density Functional:                              
              O. Treutler and R. Ahlrichs                      
              Efficient Molecular Numerical Integration Schemes
              J. Chem. Phys. 102: 346 (1995)                   
          Parallel Version:                                
              Performance of parallel TURBOMOLE for Density    
              Functional Calculations                          
              M. v. Arnim and R. Ahlrichs                      
              J. Comp. Chem. 19: 1746 (1998)                   
          RI-J Method:                                     
              Auxiliary Basis Sets to approximate Coulomb      
              Potentials                                       
              Chem. Phys. Lett. 240: 283 (1995)                
              K. Eichkorn, O. Treutler, H. Oehm, M. Haeser     
              and R. Ahlrichs                                  
              Chem. Phys. Lett. 242: 652 (1995)                
                                                           
              Auxiliary Basis Sets for Main Row Atoms and their
              Use to approximate Coulomb Potentials            
              K. Eichkorn, F. Weigend, O. Treutler and         
              R. Ahlrichs                                      
              Theo. Chem. Acc. 97: 119 (1997)                   
                                                           
              Accurate Coulomb-fitting basis sets for H to Rn 
              F. Weigend                                        
              Phys. Chem. Chem. Phys. 8: 1057 (2006)            
                                                           
          Multipole accelerated RI-J (MARI-J):             
              Fast evaluation of the Coulomb potential for     
              electron densities using multipole accelerated   
              resolution of identity approximation             
              M. Sierka, A. Hogekamp and R. Ahlrichs           
              J. Chem. Phys. 118: 9136 (2003)                  
          RI-JK Method:                                     
              A fully direct RI-HF algorithm: Implementation,
              optimised auxiliary basis sets, demonstration of
              accuracy and efficiency                         
              F. Weigend                                      
              Phys. Chem. Chem. Phys. 4: 4285 (2002)           
          Two-component HF and DFT with spin-orbit coupling:  
              Self-consistent treatment of spin-orbit         
              interactions with efficient Hartree-Fock and    
              density functional methods                      
              M. K. Armbruster, F. Weigend, C. van Wüllen and 
              W. Klopper                                      
              Phys. Chem. Chem. Phys. 10: 1748 (2008)         
          Relativistic all-electron 2c calculations           
              An efficient implementation of two-component    
              relativistic exact-decoupling methods for large 
              molecules                                       
              D. Peng, N. Middendorf, F. Weigend, M. Reiher   
              J. Chem. Phys. 138, 184105 (2013)               
                                         




              +--------------------------------------------------+
              |      general information about current run       |
              +--------------------------------------------------+

 

 DENSITY CONVERGENCE CHECK SWITCHED ON !
 SCF CONVERGENCE IF RMS(delta[D]) <     0.1000000000E-06

 TPSS meta-GGA functional
 exchange:    LDA + TPSS
 correlation: LDA (PW) + TPSS
 A DFT calculation using the RI-J approximation will be carried out.
 Allocatable memory for RI due to $ricore (MB):                   500


              +--------------------------------------------------+
              | Atomic coordinate, charge and isotop information |
              +--------------------------------------------------+

                    atomic coordinates            atom    charge  isotop
          2.28799600    0.05418937    0.62306371    n      7.000     0
          1.15638950   -2.18915137    0.28998181    c      6.000     0
          2.36495050   -3.83524341    0.41440361    h      1.000     0
         -1.41977768   -2.47298927   -0.16787207    c      6.000     0
         -2.21176527   -4.34045397   -0.40323582    h      1.000     0
         -2.92504599   -0.32114057   -0.29567961    c      6.000     0
         -4.93409902   -0.46478701   -0.64015558    h      1.000     0
         -1.78318786    2.02320905    0.03746023    c      6.000     0
         -2.87014308    3.75016205   -0.02200402    h      1.000     0
          0.80827096    2.10913964    0.48631874    c      6.000     0
          1.74741939    3.90805141    0.75125682    h      1.000     0
         -1.34769142   -0.53658644    6.23141599    n      7.000     0
         -3.03878658   -1.35269017    5.88256596    h      1.000     0
         -1.34720975    2.10489125    6.40718131    c      6.000     0
         -3.31230398    3.29201683    6.19014602    o      8.000     0
          1.14627396    3.16140188    6.83721319    c      6.000     0
          1.33773415    5.17815950    7.01837779    h      1.000     0
          3.16804205    1.61429764    6.97236650    c      6.000     0
          5.06509850    2.31097295    7.25285200    h      1.000     0
          2.94493882   -0.95061491    6.75966901    n      7.000     0
          4.48211008   -2.06968682    6.74423441    h      1.000     0
          0.67642288   -2.17370695    6.33186960    c      6.000     0
          0.50230871   -4.45161699    6.07944135    o      8.000     0
 
       center of nuclear mass  :    0.02707001    0.05648175    3.85632629
       center of nuclear charge:    0.03540329    0.06912307    3.81847073

              +--------------------------------------------------+
              |               basis set information              |
              +--------------------------------------------------+

              we will work with the 1s 3p 5d 7f 9g ... basis set
              ...i.e. with spherical basis functions...

   type   atoms  prim   cont   basis
   ---------------------------------------------------------------------------
    n        3     77     55   cc-pVQZ   [5s4p3d2f1g|21s6p3d2f1g]
    c        9     77     55   cc-pVQZ   [5s4p3d2f1g|21s6p3d2f1g]
    h        9     32     30   cc-pVQZ   [4s3p2d1f|6s3p2d1f]
    o        2     77     55   cc-pVQZ   [5s4p3d2f1g|21s6p3d2f1g]
   ---------------------------------------------------------------------------
   total:   23   1366   1040
   ---------------------------------------------------------------------------

   total number of primitive shells          :  111
   total number of contracted shells         :  300
   total number of cartesian basis functions : 1295
   total number of SCF-basis functions       : 1040


 integral neglect threshold       :  0.26E-13
 integral storage threshold THIZE :  0.10E-04
 integral storage threshold THIME :         5

 RI-J AUXILIARY BASIS SET information:

              we will work with the 1s 3p 5d 7f 9g ... basis set
              ...i.e. with spherical basis functions...

   type   atoms  prim   cont   basis
   ---------------------------------------------------------------------------
    n        3     70     49   cc-pVQZ   [6s4p3d1f1g|12s5p4d2f1g]
    c        9     70     49   cc-pVQZ   [6s4p3d1f1g|12s5p4d2f1g]
    h        9     16     11   cc-pVQZ   [3s1p1d|5s2p1d]
    o        2     70     49   cc-pVQZ   [6s4p3d1f1g|12s5p4d2f1g]
   ---------------------------------------------------------------------------
   total:   23   1124    785
   ---------------------------------------------------------------------------

   total number of primitive shells          :   80
   total number of contracted shells         :  255
   total number of cartesian basis functions :  962
   total number of SCF-basis functions       :  785


 symmetry group of the molecule :   c1 

 the group has the following generators :
   c1(z)

    1 symmetry operations found

 there are 1 real representations :   a   

 maximum number of shells which are related by symmetry :  1


    mo occupation :
   irrep   mo's   occupied
    a     1040       50
 
 number of basis functions   :                   1040
 number of occupied orbitals :                     50
 
  
           ------------------
           density functional
           ------------------
 TPSS meta-GGA functional
 exchange:    LDA + TPSS
 correlation: LDA (PW) + TPSS

 iterations will be done with small grid
  
 spherical integration : Lebedev's spherical grid
 spherical gridsize    :                     5
    i.e. gridpoints    :                   590
 value for diffuse not defined
 radial integration    : Chebyshev 2nd kind (scaling 3)
 radial gridsize       :                     8
 integration cells     :                    23
 partition function    : becke
 partition sharpness   :                     3
  

 biggest AO integral is expected to be     4.785886462
  
           ------------------------
               RI-J - INFORMATION
           ------------------------
 Contributions to RI integral batches: 
  neglected integral batches:                 11183
  direct contribution:                        24898
  memory contribution:                  9069
 Memory core needed for (P|Q) and Cholesky      5 MByte
 Memory core minimum needed except of (P|Q)     1 MByte
 Total minimum memory core needed (sum)         6 MByte
  
 ****************************************
 Memory allocated for RI-J   287 MByte
 ****************************************
                                            

          ------------------------
          nuclear repulsion energy  :   885.281925645    
          ------------------------


         -----------------
         -S,T+V- integrals
         -----------------

 1e-integrals will be neglected if expon. factor < 0.258067E-14
 Difference densities >>NOT<< switched on in parallel ridft!

 DIIS switched on: error vector is FDS-SDF
 Max. Iterations for DIIS is     :   4
 DIIS matrix (see manual) 
    Scaling factor of diagonals  :  1.200
    threshold for scaling factor :  0.000

 scf convergence criterion : increment of total energy < .1000000D-08
                  and increment of one-electron energy < .1000000D-05

  MOs are in ASCII format !


 automatic virtual orbital shift switched on 
      shift if e(lumo)-e(homo) < 0.10000000    


 reading orbital data $scfmo  from file mos
 orbital characterization : expanded
 mo provided and orthogonalized by Cholesky decomposition

 DSCF restart information will be dumped onto file mos


 Starting SCF iterations

          Overall gridpoints after grid construction =        116035

 ITERATION  ENERGY          1e-ENERGY        2e-ENERGY     RMS[dD(SAO)]   TOL
   1  -660.61894296861    -2637.4521238     1091.5512551    0.000D+00 0.257D-13
                            Exc = -89.2299863990     Coul =  1180.78124155    
                              N = 99.999966888    
                            current damping = 0.700
 
          max. resid. norm for Fia-block=  4.522D-01 for orbital     33a         
          max. resid. fock norm         =  9.490D+00 for orbital    931a         

 ITERATION  ENERGY          1e-ENERGY        2e-ENERGY     RMS[dD(SAO)]   TOL
   2  -663.02230251416    -2651.9910463     1103.6868182    0.642D-02 0.257D-13
                            Exc = -89.7815001687     Coul =  1193.46831836    
                              N = 99.999967012    
                            current damping = 0.650
 
          Norm of current diis error:  4.2716    
          max. resid. norm for Fia-block=  1.675D-01 for orbital      1a         
          max. resid. fock norm         =  3.676D-01 for orbital    967a         

 ITERATION  ENERGY          1e-ENERGY        2e-ENERGY     RMS[dD(SAO)]   TOL
   3  -663.36764600546    -2656.0624046     1107.4128330    0.268D-02 0.257D-13
                            Exc = -90.2725850910     Coul =  1197.68541805    
                              N = 99.999971126    
                            current damping = 0.550
 
          Norm of current diis error:  2.0772    
          max. resid. norm for Fia-block=  6.436D-02 for orbital      1a         
          max. resid. fock norm         =  7.176D-02 for orbital    528a         

 ITERATION  ENERGY          1e-ENERGY        2e-ENERGY     RMS[dD(SAO)]   TOL
   4  -663.47423412385    -2657.4840034     1108.7278436    0.156D-02 0.257D-13
                            Exc = -90.2532719165     Coul =  1198.98111554    
                              N = 99.999973257    
                            current damping = 0.450
 
          Norm of current diis error: 0.91645    
          max. resid. norm for Fia-block=  3.609D-02 for orbital     16a         
          max. resid. fock norm         =  8.522D-02 for orbital    959a         

 ITERATION  ENERGY          1e-ENERGY        2e-ENERGY     RMS[dD(SAO)]   TOL
   5  -663.48903827466    -2658.0781429     1109.3071790    0.627D-03 0.257D-13
                            Exc = -90.4259738743     Coul =  1199.73315290    
                              N = 99.999971960    
                            current damping = 0.350
 
          Norm of current diis error: 0.61416    
          max. resid. norm for Fia-block=  1.397D-02 for orbital     46a         
          max. resid. fock norm         =  1.682D-02 for orbital     46a         
          mo-orthogonalization: Cholesky decomposition

 ITERATION  ENERGY          1e-ENERGY        2e-ENERGY     RMS[dD(SAO)]   TOL
   6  -663.49907355085    -2658.6312523     1109.8502531    0.472D-03 0.257D-13
                            Exc = -90.4185374642     Coul =  1200.26879058    
                              N = 99.999973809    
                            current damping = 0.250
 
          Norm of current diis error: 0.17330    
          max. resid. norm for Fia-block=  7.010D-03 for orbital     44a         
          max. resid. fock norm         =  9.822D-03 for orbital    879a         

 ITERATION  ENERGY          1e-ENERGY        2e-ENERGY     RMS[dD(SAO)]   TOL
   7  -663.49904857007    -2658.3089029     1109.5279287    0.175D-03 0.257D-13
                            Exc = -90.3963766403     Coul =  1199.92430530    
                              N = 99.999972399    
                            current damping = 0.300
 
          Norm of current diis error: 0.18305    
          max. resid. norm for Fia-block=  2.625D-03 for orbital     44a         
          max. resid. fock norm         =  4.798D-03 for orbital    848a         

 ITERATION  ENERGY          1e-ENERGY        2e-ENERGY     RMS[dD(SAO)]   TOL
   8  -663.49979505016    -2658.3872859     1109.6055652    0.470D-04 0.257D-13
                            Exc = -90.4031704806     Coul =  1200.00873571    
                              N = 99.999972762    
                            current damping = 0.350
 
          Norm of current diis error: 0.58246E-01
          max. resid. norm for Fia-block=  1.418D-03 for orbital     50a         
          max. resid. fock norm         =  2.098D-03 for orbital    971a         

 ITERATION  ENERGY          1e-ENERGY        2e-ENERGY     RMS[dD(SAO)]   TOL
   9  -663.49985199189    -2658.4873457     1109.7055681    0.279D-04 0.257D-13
                            Exc = -90.4151369679     Coul =  1200.12070507    
                              N = 99.999972970    
                            current damping = 0.200
 
          Norm of current diis error: 0.28890E-01
          max. resid. norm for Fia-block=  8.569D-04 for orbital     49a         
          max. resid. fock norm         =  1.434D-03 for orbital    932a         

 ITERATION  ENERGY          1e-ENERGY        2e-ENERGY     RMS[dD(SAO)]   TOL
  10  -663.49986499303    -2658.4881211     1109.7063304    0.227D-04 0.257D-13
                            Exc = -90.4112913687     Coul =  1200.11762180    
                              N = 99.999973028    
                            current damping = 0.050
 
          Norm of current diis error: 0.18917E-01
          max. resid. norm for Fia-block=  3.783D-04 for orbital     49a         
          max. resid. fock norm         =  7.303D-04 for orbital   1039a         
          mo-orthogonalization: Cholesky decomposition

 ITERATION  ENERGY          1e-ENERGY        2e-ENERGY     RMS[dD(SAO)]   TOL
  11  -663.49987312781    -2658.4695777     1109.6877789    0.977D-05 0.257D-13
                            Exc = -90.4117378788     Coul =  1200.09951678    
                              N = 99.999972973    
                            current damping = 0.100
 
          Norm of current diis error: 0.79791E-02
          max. resid. norm for Fia-block=  1.591D-04 for orbital     44a         
          max. resid. fock norm         =  2.757D-04 for orbital   1032a         

 ITERATION  ENERGY          1e-ENERGY        2e-ENERGY     RMS[dD(SAO)]   TOL
  12  -663.49987430503    -2658.4768551     1109.6950552    0.382D-05 0.257D-13
                            Exc = -90.4118408672     Coul =  1200.10689604    
                              N = 99.999972980    
                            current damping = 0.150
 
          Norm of current diis error: 0.42609E-02
          max. resid. norm for Fia-block=  7.511D-05 for orbital     44a         
          max. resid. fock norm         =  1.500D-04 for orbital   1039a         

 ITERATION  ENERGY          1e-ENERGY        2e-ENERGY     RMS[dD(SAO)]   TOL
  13  -663.49987472451    -2658.4791284     1109.6973281    0.185D-05 0.257D-13
                            Exc = -90.4119920469     Coul =  1200.10932012    
                              N = 99.999972979    
                            current damping = 0.050
 
          Norm of current diis error: 0.12082E-02
          max. resid. norm for Fia-block=  3.815D-05 for orbital     46a         
          max. resid. fock norm         =  9.465D-05 for orbital   1040a         

 ITERATION  ENERGY          1e-ENERGY        2e-ENERGY     RMS[dD(SAO)]   TOL
  14  -663.49987471280    -2658.4752501     1109.6934497    0.106D-05 0.257D-13
                            Exc = -90.4118731089     Coul =  1200.10532281    
                              N = 99.999972980    
                            current damping = 0.100
 
          Norm of current diis error: 0.13538E-02
          max. resid. norm for Fia-block=  2.299D-05 for orbital     46a         
          max. resid. fock norm         =  5.450D-05 for orbital   1040a         

 ITERATION  ENERGY          1e-ENERGY        2e-ENERGY     RMS[dD(SAO)]   TOL
  15  -663.49987476030    -2658.4759337     1109.6941333    0.470D-06 0.257D-13
                            Exc = -90.4118437081     Coul =  1200.10597701    
                              N = 99.999972978    
                            current damping = 0.150
 
          Norm of current diis error: 0.32369E-03
          max. resid. norm for Fia-block=  6.817D-06 for orbital     47a         
          max. resid. fock norm         =  1.253D-05 for orbital   1033a         
          mo-orthogonalization: Cholesky decomposition

 ITERATION  ENERGY          1e-ENERGY        2e-ENERGY     RMS[dD(SAO)]   TOL
  16  -663.49987476176    -2658.4770268     1109.6952264    0.154D-06 0.257D-13
                            Exc = -90.4119009397     Coul =  1200.10712731    
                              N = 99.999972979    
                            current damping = 0.050
 
          Norm of current diis error: 0.19409E-03
          max. resid. norm for Fia-block=  4.119D-06 for orbital     49a         
          max. resid. fock norm         =  8.507D-06 for orbital   1039a         

 ITERATION  ENERGY          1e-ENERGY        2e-ENERGY     RMS[dD(SAO)]   TOL
  17  -663.49987476224    -2658.4768230     1109.6950226    0.125D-06 0.257D-13
                            Exc = -90.4119021540     Coul =  1200.10692473    
                              N = 99.999972978    
                            current damping = 0.100
 
          Norm of current diis error: 0.13247E-03
          max. resid. norm for Fia-block=  3.289D-06 for orbital     49a         
          max. resid. fock norm         =  5.236D-06 for orbital    932a         

 DENSITY CONVERGED !


 ITERATION  ENERGY          1e-ENERGY        2e-ENERGY     RMS[dD(SAO)]   TOL
  18  -663.49987476264    -2658.4767843     1109.6949839    0.916D-07 0.257D-13
                            Exc = -90.4118859786     Coul =  1200.10686985    
                              N = 99.999972979    
                            current damping = 0.050
 
          Norm of current diis error: 0.51242E-04
          max. resid. norm for Fia-block=  1.259D-06 for orbital     45a         
          max. resid. fock norm         =  1.901D-06 for orbital    932a         

 DENSITY CONVERGED !


 ITERATION  ENERGY          1e-ENERGY        2e-ENERGY     RMS[dD(SAO)]   TOL
  19  -663.49987476269    -2658.4768000     1109.6949996    0.334D-07 0.257D-13
                            Exc = -90.4118944621     Coul =  1200.10689402    
                              N = 99.999972979    
                            current damping = 0.100
 
          Norm of current diis error: 0.30939E-04
          max. resid. norm for Fia-block=  4.765D-07 for orbital     49a         
          max. resid. fock norm         =  8.741D-07 for orbital    975a         

 ENERGY & DENSITY CONVERGED !

          Overall gridpoints after grid construction =        367456

 ITERATION  ENERGY          1e-ENERGY        2e-ENERGY     RMS[dD(SAO)]   TOL
  20  -663.49972049407    -2658.4768010     1109.6951548    0.135D-07 0.257D-13
                            Exc = -90.4117371675     Coul =  1200.10689200    
                              N = 100.00000211    
                            current damping = 0.050
 
          Norm of current diis error: 0.11411E-04
          max. resid. norm for Fia-block=  1.974D-07 for orbital     50a         
          max. resid. fock norm         =  5.155D-07 for orbital   1038a         

 End of SCF iterations

   convergence criteria satisfied after    20 iterations


                  ------------------------------------------ 
                 |  total energy      =   -663.49972049407  |
                  ------------------------------------------ 
                 :  kinetic energy    =    660.96211452548  :
                 :  potential energy  =  -1324.46183501955  :
                 :  virial theorem    =      1.99617542270  :
                 :  wavefunction norm =      1.00000000000  :
                  .......................................... 


 <geterg> : there is no data group $energy 


 <skperg> : $end is missing 


 orbitals $scfmo  will be written to file mos

    irrep                 46a         47a         48a         49a         50a   
 eigenvalues H         -0.25537    -0.24298    -0.22796    -0.22580    -0.22363
            eV          -6.9490     -6.6119     -6.2033     -6.1443     -6.0852
 occupation              2.0000      2.0000      2.0000      2.0000      2.0000 

    irrep                 51a         52a         53a         54a         55a   
 eigenvalues H         -0.07470    -0.06069    -0.04668    -0.02555    -0.00489
            eV          -2.0326     -1.6515     -1.2701     -0.6952     -0.1330
 
 
 
 
 ==============================================================================
                           electrostatic moments
 ==============================================================================

 reference point for electrostatic moments:    0.00000   0.00000   0.00000

 
              nuc           elec       ->  total
 ------------------------------------------------------------------------------
                          charge      
 ------------------------------------------------------------------------------
         100.000000    -100.000000       0.000000
 
 ------------------------------------------------------------------------------
                       dipole moment  
 ------------------------------------------------------------------------------
   x       3.540329      -2.710199       0.830130
   y       6.912307      -6.759872       0.152436
   z     381.847073    -381.836340       0.010733
 
   | dipole moment | =     0.8441 a.u. =     2.1454 debye 
 
 ------------------------------------------------------------------------------
                     quadrupole moment
 ------------------------------------------------------------------------------
  xx     478.935627    -534.228395     -55.292768
  yy     602.818549    -665.952112     -63.133564
  zz    2441.524219   -2501.154129     -59.629911
  xy     -79.746439      84.399041       4.652602
  xz     179.878058    -167.725150      12.152908
  yz     114.288306    -112.457374       1.830932
 
     1/3  trace=     -59.352081
     anisotropy=      23.756237
 
 ==============================================================================
 


    ------------------------------------------------------------------------
         total  cpu-time : 32 minutes and 47 seconds
         total wall-time :  4 minutes and 38 seconds
    ------------------------------------------------------------------------

   ****  ridft : all done  ****


    2018-04-24 21:21:35.142 

