           Doing BLAS/Lapack in the master proc. with  8 CPUs.
           SMPCPUS    set: Shared-memory Parallelization with   8 CPUs.

           SMP Parallelization Reference:
           C. van Wullen, J. Comput. Chem. 32 (2011) 1195--1201
 operating system is UNIX !

 ridft (c-12-251.gp.local) : TURBOMOLE V7.2 ( 21454 ) 4 Oct 2017 at 12:48:15
 Copyright (C) 2017 TURBOMOLE GmbH, Karlsruhe


    2018-04-28 21:06:22.235 



                                  r i d f t

                        DFT program with RI approximation 
                                for coulomb part 




                                                 
                                 References:     
                                                 
          TURBOMOLE:                             
              R. Ahlrichs, M. Baer, M. Haeser, H. Horn, and
              C. Koelmel
              Electronic structure calculations on workstation
              computers: the program system TURBOMOLE
              Chem. Phys. Lett. 162: 165 (1989)
          Density Functional:                              
              O. Treutler and R. Ahlrichs                      
              Efficient Molecular Numerical Integration Schemes
              J. Chem. Phys. 102: 346 (1995)                   
          Parallel Version:                                
              Performance of parallel TURBOMOLE for Density    
              Functional Calculations                          
              M. v. Arnim and R. Ahlrichs                      
              J. Comp. Chem. 19: 1746 (1998)                   
          RI-J Method:                                     
              Auxiliary Basis Sets to approximate Coulomb      
              Potentials                                       
              Chem. Phys. Lett. 240: 283 (1995)                
              K. Eichkorn, O. Treutler, H. Oehm, M. Haeser     
              and R. Ahlrichs                                  
              Chem. Phys. Lett. 242: 652 (1995)                
                                                           
              Auxiliary Basis Sets for Main Row Atoms and their
              Use to approximate Coulomb Potentials            
              K. Eichkorn, F. Weigend, O. Treutler and         
              R. Ahlrichs                                      
              Theo. Chem. Acc. 97: 119 (1997)                   
                                                           
              Accurate Coulomb-fitting basis sets for H to Rn 
              F. Weigend                                        
              Phys. Chem. Chem. Phys. 8: 1057 (2006)            
                                                           
          Multipole accelerated RI-J (MARI-J):             
              Fast evaluation of the Coulomb potential for     
              electron densities using multipole accelerated   
              resolution of identity approximation             
              M. Sierka, A. Hogekamp and R. Ahlrichs           
              J. Chem. Phys. 118: 9136 (2003)                  
          RI-JK Method:                                     
              A fully direct RI-HF algorithm: Implementation,
              optimised auxiliary basis sets, demonstration of
              accuracy and efficiency                         
              F. Weigend                                      
              Phys. Chem. Chem. Phys. 4: 4285 (2002)           
          Two-component HF and DFT with spin-orbit coupling:  
              Self-consistent treatment of spin-orbit         
              interactions with efficient Hartree-Fock and    
              density functional methods                      
              M. K. Armbruster, F. Weigend, C. van Wüllen and 
              W. Klopper                                      
              Phys. Chem. Chem. Phys. 10: 1748 (2008)         
          Relativistic all-electron 2c calculations           
              An efficient implementation of two-component    
              relativistic exact-decoupling methods for large 
              molecules                                       
              D. Peng, N. Middendorf, F. Weigend, M. Reiher   
              J. Chem. Phys. 138, 184105 (2013)               
                                         




              +--------------------------------------------------+
              |      general information about current run       |
              +--------------------------------------------------+

 

 DENSITY CONVERGENCE CHECK SWITCHED ON !
 SCF CONVERGENCE IF RMS(delta[D]) <     0.1000000000E-06

 TPSS meta-GGA functional
 exchange:    LDA + TPSS
 correlation: LDA (PW) + TPSS
 A DFT calculation using the RI-J approximation will be carried out.
 Allocatable memory for RI due to $ricore (MB):                  5000


              +--------------------------------------------------+
              | Atomic coordinate, charge and isotop information |
              +--------------------------------------------------+

                    atomic coordinates            atom    charge  isotop
          0.85059422    0.00245861   12.81415679    n      7.000     0
          2.49591832   -0.00814803   10.88774535    c      6.000     0
          4.47608027   -0.00578866   11.40610250    h      1.000     0
          1.79032154   -0.02150416    8.35205777    c      6.000     0
          3.20281749   -0.02937302    6.87599336    h      1.000     0
         -0.77223886   -0.02417636    7.76167810    c      6.000     0
         -1.39533576   -0.03448571    5.81472833    h      1.000     0
         -2.50720259   -0.01337641    9.73676243    c      6.000     0
         -4.51872164   -0.01498152    9.38010349    h      1.000     0
         -1.60844165   -0.00030394   12.21033618    c      6.000     0
         -2.91647921    0.00835692   13.78483937    h      1.000     0
 
       center of nuclear mass  :    0.04458497   -0.01078733   10.30376143
       center of nuclear charge:    0.02839670   -0.01105036   10.25362723

              +--------------------------------------------------+
              |               basis set information              |
              +--------------------------------------------------+

              we will work with the 1s 3p 5d 7f 9g ... basis set
              ...i.e. with spherical basis functions...

   type   atoms  prim   cont   basis
   ---------------------------------------------------------------------------
    n        1     77     55   cc-pVQZ   [5s4p3d2f1g|21s6p3d2f1g]
    c        5     77     55   cc-pVQZ   [5s4p3d2f1g|21s6p3d2f1g]
    h        5     32     30   cc-pVQZ   [4s3p2d1f|6s3p2d1f]
   ---------------------------------------------------------------------------
   total:   11    622    480
   ---------------------------------------------------------------------------

   total number of primitive shells          :   78
   total number of contracted shells         :  140
   total number of cartesian basis functions :  595
   total number of SCF-basis functions       :  480


 integral neglect threshold       :  0.56E-13
 integral storage threshold THIZE :  0.10E-04
 integral storage threshold THIME :         5

 RI-J AUXILIARY BASIS SET information:

              we will work with the 1s 3p 5d 7f 9g ... basis set
              ...i.e. with spherical basis functions...

   type   atoms  prim   cont   basis
   ---------------------------------------------------------------------------
    n        1     70     49   cc-pVQZ   [6s4p3d1f1g|12s5p4d2f1g]
    c        5     70     49   cc-pVQZ   [6s4p3d1f1g|12s5p4d2f1g]
    h        5     16     11   cc-pVQZ   [3s1p1d|5s2p1d]
   ---------------------------------------------------------------------------
   total:   11    500    349
   ---------------------------------------------------------------------------

   total number of primitive shells          :   56
   total number of contracted shells         :  115
   total number of cartesian basis functions :  426
   total number of SCF-basis functions       :  349


 symmetry group of the molecule :   c1 

 the group has the following generators :
   c1(z)

    1 symmetry operations found

 there are 1 real representations :   a   

 maximum number of shells which are related by symmetry :  1


    mo occupation :
   irrep   mo's   occupied
    a      480       21
 
 number of basis functions   :                    480
 number of occupied orbitals :                     21
 
  
           ------------------
           density functional
           ------------------
 TPSS meta-GGA functional
 exchange:    LDA + TPSS
 correlation: LDA (PW) + TPSS

 iterations will be done with small grid
  
 spherical integration : Lebedev's spherical grid
 spherical gridsize    :                     5
    i.e. gridpoints    :                   590
 value for diffuse not defined
 radial integration    : Chebyshev 2nd kind (scaling 3)
 radial gridsize       :                     8
 integration cells     :                    11
 partition function    : becke
 partition sharpness   :                     3
  

 biggest AO integral is expected to be     4.161848376
  
           ------------------------
               RI-J - INFORMATION
           ------------------------
 Contributions to RI integral batches: 
  neglected integral batches:                   881
  direct contribution:                            0
  memory contribution:                  8989
 Memory core needed for (P|Q) and Cholesky      1 MByte
 Memory core minimum needed except of (P|Q)     2 MByte
 Total minimum memory core needed (sum)         3 MByte
  
 ****************************************
 Memory allocated for RI-J   538 MByte
 ****************************************
                                            

          ------------------------
          nuclear repulsion energy  :   206.198696868    
          ------------------------


         -----------------
         -S,T+V- integrals
         -----------------

 1e-integrals will be neglected if expon. factor < 0.561674E-14
 Difference densities >>NOT<< switched on in parallel ridft!

 DIIS switched on: error vector is FDS-SDF
 Max. Iterations for DIIS is     :   4
 DIIS matrix (see manual) 
    Scaling factor of diagonals  :  1.200
    threshold for scaling factor :  0.000

 scf convergence criterion : increment of total energy < .1000000D-08
                  and increment of one-electron energy < .1000000D-05

  MOs are in ASCII format !


 automatic virtual orbital shift switched on 
      shift if e(lumo)-e(homo) < 0.10000000    


 reading orbital data $scfmo  from file mos
 orbital characterization : expanded
 mo provided and orthogonalized by Cholesky decomposition

 DSCF restart information will be dumped onto file mos


 Starting SCF iterations

          Overall gridpoints after grid construction =         54808

 ITERATION  ENERGY          1e-ENERGY        2e-ENERGY     RMS[dD(SAO)]   TOL
   1  -247.45374567485    -732.86562411     279.21318156    0.000D+00 0.560D-13
                            Exc = -35.1136752053     Coul =  314.326856769    
                              N = 41.999992573    
                            current damping = 0.700
 
          max. resid. norm for Fia-block=  2.911D-01 for orbital     15a         
          max. resid. fock norm         =  9.424D+00 for orbital    452a         

 ITERATION  ENERGY          1e-ENERGY        2e-ENERGY     RMS[dD(SAO)]   TOL
   2  -248.23967259683    -739.19529514     284.75692568    0.581D-02 0.560D-13
                            Exc = -35.6440153621     Coul =  320.400941040    
                              N = 41.999990486    
                            current damping = 0.650
 
          Norm of current diis error:  2.8081    
          max. resid. norm for Fia-block=  1.389D-01 for orbital      1a         
          max. resid. fock norm         =  2.220D-01 for orbital    427a         

 ITERATION  ENERGY          1e-ENERGY        2e-ENERGY     RMS[dD(SAO)]   TOL
   3  -248.37775256563    -740.82306186     286.24661243    0.260D-02 0.560D-13
                            Exc = -35.8517317892     Coul =  322.098344219    
                              N = 41.999990377    
                            current damping = 0.550
 
          Norm of current diis error:  1.3687    
          max. resid. norm for Fia-block=  5.505D-02 for orbital     21a         
          max. resid. fock norm         =  6.063D-02 for orbital      7a         

 ITERATION  ENERGY          1e-ENERGY        2e-ENERGY     RMS[dD(SAO)]   TOL
   4  -248.42276211454    -741.55209026     286.93063128    0.147D-02 0.560D-13
                            Exc = -35.9242879746     Coul =  322.854919253    
                              N = 41.999989771    
                            current damping = 0.450
 
          Norm of current diis error: 0.53026    
          max. resid. norm for Fia-block=  2.750D-02 for orbital      7a         
          max. resid. fock norm         =  4.644D-02 for orbital    451a         

 ITERATION  ENERGY          1e-ENERGY        2e-ENERGY     RMS[dD(SAO)]   TOL
   5  -248.42856665157    -742.21772007     287.59045655    0.610D-03 0.560D-13
                            Exc = -35.9995629044     Coul =  323.590019452    
                              N = 41.999990194    
                            current damping = 0.350
 
          Norm of current diis error: 0.31148    
          max. resid. norm for Fia-block=  1.367D-02 for orbital     21a         
          max. resid. fock norm         =  1.460D-02 for orbital     21a         
          mo-orthogonalization: Cholesky decomposition

 ITERATION  ENERGY          1e-ENERGY        2e-ENERGY     RMS[dD(SAO)]   TOL
   6  -248.43103840198    -742.08377032     287.45403505    0.553D-03 0.560D-13
                            Exc = -35.9897331127     Coul =  323.443768167    
                              N = 41.999989846    
                            current damping = 0.400
 
          Norm of current diis error: 0.13046    
          max. resid. norm for Fia-block=  3.186D-03 for orbital     19a         
          max. resid. fock norm         =  7.369D-03 for orbital    382a         

 ITERATION  ENERGY          1e-ENERGY        2e-ENERGY     RMS[dD(SAO)]   TOL
   7  -248.43142295062    -742.14918717     287.51906735    0.760D-04 0.560D-13
                            Exc = -35.9963291239     Coul =  323.515396477    
                              N = 41.999990001    
                            current damping = 0.450
 
          Norm of current diis error: 0.43491E-01
          max. resid. norm for Fia-block=  1.474D-03 for orbital     13a         
          max. resid. fock norm         =  2.526D-03 for orbital    475a         

 ITERATION  ENERGY          1e-ENERGY        2e-ENERGY     RMS[dD(SAO)]   TOL
   8  -248.43146192335    -742.18231466     287.55215587    0.254D-04 0.560D-13
                            Exc = -35.9998502463     Coul =  323.552006114    
                              N = 41.999989977    
                            current damping = 0.300
 
          Norm of current diis error: 0.14292E-01
          max. resid. norm for Fia-block=  3.635D-04 for orbital     21a         
          max. resid. fock norm         =  5.566D-04 for orbital    475a         

 ITERATION  ENERGY          1e-ENERGY        2e-ENERGY     RMS[dD(SAO)]   TOL
   9  -248.43146694661    -742.18001764     287.54985382    0.145D-04 0.560D-13
                            Exc = -35.9996697929     Coul =  323.549523616    
                              N = 41.999989979    
                            current damping = 0.350
 
          Norm of current diis error: 0.15420E-02
          max. resid. norm for Fia-block=  7.147D-05 for orbital     19a         
          max. resid. fock norm         =  1.587D-04 for orbital    470a         

 ITERATION  ENERGY          1e-ENERGY        2e-ENERGY     RMS[dD(SAO)]   TOL
  10  -248.43146697345    -742.17781145     287.54764760    0.315D-05 0.560D-13
                            Exc = -35.9995419649     Coul =  323.547189569    
                              N = 41.999989982    
                            current damping = 0.200
 
          Norm of current diis error: 0.12824E-02
          max. resid. norm for Fia-block=  4.176D-05 for orbital     20a         
          max. resid. fock norm         =  7.826D-05 for orbital    476a         
          mo-orthogonalization: Cholesky decomposition

 ITERATION  ENERGY          1e-ENERGY        2e-ENERGY     RMS[dD(SAO)]   TOL
  11  -248.43146700316    -742.17885833     287.54869446    0.868D-06 0.560D-13
                            Exc = -35.9996155838     Coul =  323.548310040    
                              N = 41.999989982    
                            current damping = 0.250
 
          Norm of current diis error: 0.68767E-03
          max. resid. norm for Fia-block=  2.403D-05 for orbital     19a         
          max. resid. fock norm         =  3.599D-05 for orbital    382a         

 ITERATION  ENERGY          1e-ENERGY        2e-ENERGY     RMS[dD(SAO)]   TOL
  12  -248.43146701073    -742.17883958     287.54867570    0.739D-06 0.560D-13
                            Exc = -35.9996047040     Coul =  323.548280400    
                              N = 41.999989981    
                            current damping = 0.300
 
          Norm of current diis error: 0.43565E-03
          max. resid. norm for Fia-block=  1.114D-05 for orbital     19a         
          max. resid. fock norm         =  1.868D-05 for orbital    382a         

 ITERATION  ENERGY          1e-ENERGY        2e-ENERGY     RMS[dD(SAO)]   TOL
  13  -248.43146701520    -742.17896720     287.54880332    0.260D-06 0.560D-13
                            Exc = -35.9996233633     Coul =  323.548426683    
                              N = 41.999989981    
                            current damping = 0.350
 
          Norm of current diis error: 0.75420E-04
          max. resid. norm for Fia-block=  3.245D-06 for orbital     21a         
          max. resid. fock norm         =  4.426D-06 for orbital    373a         

 DENSITY CONVERGED !


 ITERATION  ENERGY          1e-ENERGY        2e-ENERGY     RMS[dD(SAO)]   TOL
  14  -248.43146701528    -742.17880540     287.54864152    0.860D-07 0.560D-13
                            Exc = -35.9996095407     Coul =  323.548251057    
                              N = 41.999989981    
                            current damping = 0.400
 
          Norm of current diis error: 0.52240E-04
          max. resid. norm for Fia-block=  1.189D-06 for orbital     17a         
          max. resid. fock norm         =  1.699D-06 for orbital    441a         

 DENSITY CONVERGED !


 ITERATION  ENERGY          1e-ENERGY        2e-ENERGY     RMS[dD(SAO)]   TOL
  15  -248.43146701535    -742.17882793     287.54866405    0.235D-07 0.560D-13
                            Exc = -35.9996118391     Coul =  323.548275886    
                              N = 41.999989981    
                            current damping = 0.450
 
          Norm of current diis error: 0.10787E-04
          max. resid. norm for Fia-block=  3.461D-07 for orbital     15a         
          max. resid. fock norm         =  7.350D-07 for orbital    470a         
          mo-orthogonalization: Cholesky decomposition

 DENSITY CONVERGED !


 ITERATION  ENERGY          1e-ENERGY        2e-ENERGY     RMS[dD(SAO)]   TOL
  16  -248.43146701534    -742.17885506     287.54869117    0.101D-07 0.560D-13
                            Exc = -35.9996138245     Coul =  323.548304996    
                              N = 41.999989981    
                            current damping = 0.300
 
          Norm of current diis error: 0.54251E-05
          max. resid. norm for Fia-block=  1.376D-07 for orbital     20a         
          max. resid. fock norm         =  2.770D-07 for orbital    476a         

 ENERGY & DENSITY CONVERGED !

          Overall gridpoints after grid construction =        176049

 ITERATION  ENERGY          1e-ENERGY        2e-ENERGY     RMS[dD(SAO)]   TOL
  17  -248.43137235177    -742.17885527     287.54878605    0.279D-08 0.560D-13
                            Exc = -35.9995192427     Coul =  323.548305290    
                              N = 41.999998600    
                            current damping = 0.150
 
          Norm of current diis error: 0.17395E-05
          max. resid. norm for Fia-block=  5.032D-08 for orbital     20a         
          max. resid. fock norm         =  8.806D-08 for orbital    475a         

 End of SCF iterations

   convergence criteria satisfied after    17 iterations


                  ------------------------------------------ 
                 |  total energy      =   -248.43137235177  |
                  ------------------------------------------ 
                 :  kinetic energy    =    247.35220859827  :
                 :  potential energy  =   -495.78358095004  :
                 :  virial theorem    =      1.99565608907  :
                 :  wavefunction norm =      1.00000000000  :
                  .......................................... 


 <geterg> : there is no data group $energy 


 <skperg> : $end is missing 


 orbitals $scfmo  will be written to file mos

    irrep                 17a         18a         19a         20a         21a   
 eigenvalues H         -0.36537    -0.32803    -0.26665    -0.24415    -0.22150
            eV          -9.9422     -8.9262     -7.2561     -6.6438     -6.0274
 occupation              2.0000      2.0000      2.0000      2.0000      2.0000 

    irrep                 22a         23a         24a         25a         26a   
 eigenvalues H         -0.06100    -0.04665     0.01868     0.04365     0.05484
            eV          -1.6600     -1.2694      0.5084      1.1879      1.4922
 
 
 
 
 ==============================================================================
                           electrostatic moments
 ==============================================================================

 reference point for electrostatic moments:    0.00000   0.00000   0.00000

 
              nuc           elec       ->  total
 ------------------------------------------------------------------------------
                          charge      
 ------------------------------------------------------------------------------
          42.000000     -42.000000       0.000000
 
 ------------------------------------------------------------------------------
                       dipole moment  
 ------------------------------------------------------------------------------
   x       1.192661      -1.457850      -0.265189
   y      -0.464115       0.459788      -0.004327
   z     430.652344    -431.475459      -0.823115
 
   | dipole moment | =     0.8648 a.u. =     2.1981 debye 
 
 ------------------------------------------------------------------------------
                     quadrupole moment
 ------------------------------------------------------------------------------
  xx     179.655736    -202.185113     -22.529377
  yy       0.010176     -27.845784     -27.835608
  zz    4593.258165   -4636.679104     -43.420938
  xy      -0.050744       0.044855      -0.005889
  xz      11.165583     -15.383696      -4.218113
  yz      -3.812840       3.784621      -0.028219
 
     1/3  trace=     -31.261974
     anisotropy=      20.177658
 
 ==============================================================================
 


    ------------------------------------------------------------------------
         total  cpu-time : 10 minutes and 16 seconds
         total wall-time :  1 minutes and 21 seconds
    ------------------------------------------------------------------------

   ****  ridft : all done  ****


    2018-04-28 21:07:43.250 

