STARTING dscf ON 56 PROCESSORS!
RUNNING PROGRAM /sopt/TURBOMOLE/7.2.1-official/bin/em64t-unknown-linux-gnu_mpi/dscf_mpi.
PLEASE WAIT UNTIL dscf HAS FINISHED.
Look for the output in slave1.output.
MACHINEFILE is ./hostlist
 this is node-proc. number 1 running on node c-13-11.gp.local
 the total number of node-proc. spawned is  57
  parallel platform: MPP or cluster with fast interconnect

 dscf (c-13-11.gp.local) : TURBOMOLE V7.2 ( 21471 ) 7 Nov 2017 at 16:15:16
 Copyright (C) 2017 TURBOMOLE GmbH, Karlsruhe


    2018-02-16 09:07:13.260 


 SCF run will be profiled !



                             d s c f - program

                   idea & directorship : reinhart ahlrichs
                   program development : marco haeser
                                         michael baer
                           dft version : oliver treutler
           parallelized version : malte v. arnim, gina corongiu, GMD 


                          quantum chemistry group
                          universitaet  karlsruhe
                                  germany




                          References             
                                                 
          TURBOMOLE:                             
              R. Ahlrichs, M. Baer, M. Haeser, H. Horn, and
              C. Koelmel
              Electronic structure calculations on workstation
              computers: the program system TURBOMOLE
              Chem. Phys. Lett. 162: 165 (1989)
          Density Functional:                              
              O. Treutler and R. Ahlrichs                      
              Efficient Molecular Numerical Integration Schemes
              J. Chem. Phys. 102: 346 (1995)                   
          Parallel Version:                                
              Performance of parallel TURBOMOLE for Density    
              Functional Calculations                          
              M. v. Arnim and R. Ahlrichs                      
              J. Comp. Chem. 19: 1746 (1998)                   
                                         




              +--------------------------------------------------+
              | Atomic coordinate, charge and isotop information |
              +--------------------------------------------------+

                    atomic coordinates            atom    charge  isotop
         -1.00170129    2.31805571   15.84505276    n      7.000     0
          5.31260054    8.80247574  -12.26789569    n      7.000     0
         -5.74252517   -8.72741374   15.08786916    c      6.000     0
         -4.70351651  -10.31159045   15.90297894    h      1.000     0
         -7.75911269   -9.02351561   15.40229565    h      1.000     0
         -4.83412851   -6.21303683   16.10287351    c      6.000     0
         -2.50911660   -6.02458570   17.33950789    c      6.000     0
         -1.41258511   -7.71326969   17.74521999    h      1.000     0
         -1.59098968   -3.66999475   18.09590118    c      6.000     0
          0.20824256   -3.55691128   19.08011524    h      1.000     0
         -2.98868314   -1.48057959   17.62299555    c      6.000     0
         -5.36331131   -1.68293163   16.46955188    c      6.000     0
         -6.52010133   -0.01093774   16.17715671    h      1.000     0
         -6.27720278   -4.02715808   15.71622017    c      6.000     0
         -8.13399519   -4.15067540   14.84637519    h      1.000     0
         -1.91148343    1.09507496   18.24237661    c      6.000     0
         -3.31697045    2.36282002   19.06142616    h      1.000     0
         -0.30063392    0.97232014   19.52443429    h      1.000     0
          1.16576937    1.48095751   14.75656209    c      6.000     0
          2.24884660    0.12121890   15.83781087    h      1.000     0
          1.87912817    2.28831354   12.39291117    c      6.000     0
          3.59743878    1.52294874   11.58630487    h      1.000     0
          0.35672335    3.99004817   11.01374326    c      6.000     0
         -1.81730941    4.90346858   12.25761134    c      6.000     0
         -3.01516031    6.31867982   11.38873098    h      1.000     0
         -2.45234310    4.04966733   14.63320828    c      6.000     0
         -4.10882304    4.70865953   15.64068547    h      1.000     0
          0.97905751    4.71514027    8.41938944    c      6.000     0
          3.48019551    4.61072616    7.51685567    c      6.000     0
          5.01971819    4.13678801    8.78711448    h      1.000     0
          4.03574125    5.22839933    5.03444311    c      6.000     0
          5.99361279    5.22219551    4.42670163    h      1.000     0
          2.11863298    5.94397410    3.33390844    c      6.000     0
         -0.37523468    6.05787375    4.24465543    c      6.000     0
         -1.90801451    6.54103237    2.97409510    h      1.000     0
         -0.93247104    5.47330923    6.73447633    c      6.000     0
         -2.88889797    5.51223131    7.34635281    h      1.000     0
          2.70470807    6.55490059    0.67874189    c      6.000     0
          4.84118024    5.52430218   -0.51917879    c      6.000     0
          6.04707843    4.21250962    0.49193042    h      1.000     0
          5.39338444    6.08571887   -3.01523261    c      6.000     0
          7.01713589    5.19510865   -3.89469237    h      1.000     0
          3.81285694    7.68177811   -4.43742284    c      6.000     0
          1.67615842    8.72372231   -3.24108994    c      6.000     0
          0.46975975   10.04505874   -4.24467029    h      1.000     0
          1.14638868    8.18346480   -0.73487075    c      6.000     0
         -0.45949799    9.09388558    0.15672476    h      1.000     0
          4.35244875    8.17984595   -7.10282861    c      6.000     0
          6.81490818    7.99237540   -8.10778452    c      6.000     0
          8.42599045    7.63803371   -6.89494045    h      1.000     0
          7.24231209    8.29999251  -10.65682116    c      6.000     0
          9.10739620    8.16588729  -11.49142434    h      1.000     0
          2.93422847    9.10981974  -11.35539154    c      6.000     0
          1.48735408    9.53541993  -12.73973165    h      1.000     0
          2.42106266    8.82815465   -8.82460402    c      6.000     0
          0.48325162    9.04166319   -8.20138957    h      1.000     0
          1.01094286   -2.32119823  -15.83105176    n      7.000     0
         -5.33239582   -8.79516515   12.27764423    n      7.000     0
          5.72327903    8.73562219  -15.07805193    c      6.000     0
          4.68061693   10.31746071  -15.89302714    h      1.000     0
          7.73911852    9.03646443  -15.39254294    h      1.000     0
          4.82124996    6.21888502  -16.09294024    c      6.000     0
          2.49013572    6.02156372  -17.31673453    c      6.000     0
          1.38352354    7.70579594  -17.71349191    h      1.000     0
          1.57903022    3.66413182  -18.07223093    c      6.000     0
         -0.22491057    3.54436047  -19.04698368    h      1.000     0
          2.99002732    1.48048342  -17.61181574    c      6.000     0
          5.37047993    1.69214113  -16.47228438    c      6.000     0
          6.53764747    0.02550810  -16.19081488    h      1.000     0
          6.27757098    4.03953103  -15.71983843    c      6.000     0
          8.13934181    4.17038411  -14.86183333    h      1.000     0
          1.92101528   -1.09916963  -18.22869492    c      6.000     0
          3.33157682   -2.36376765  -19.04376436    h      1.000     0
          0.31151322   -0.98346404  -19.51308881    h      1.000     0
         -1.16832261   -1.49954893  -14.75441867    c      6.000     0
         -2.25999456   -0.15460202  -15.84543426    h      1.000     0
         -1.88414116   -2.30460192  -12.39072074    c      6.000     0
         -3.61326061   -1.55173837  -11.59527644    h      1.000     0
         -0.35342696   -3.98873205  -10.99915147    c      6.000     0
          1.83308349   -4.88799006  -12.23164008    c      6.000     0
          3.03858311   -6.29154180  -11.35458652    h      1.000     0
          2.47096517   -4.03639716  -14.60705718    c      6.000     0
          4.13697294   -4.68494521  -15.60552285    h      1.000     0
         -0.98115635   -4.71315813   -8.40592868    c      6.000     0
         -3.48623302   -4.62098571   -7.51256475    c      6.000     0
         -5.02374357   -4.15533682   -8.78824648    h      1.000     0
         -4.04832499   -5.24071468   -5.03214128    c      6.000     0
         -6.00827087   -5.24344541   -4.43099065    h      1.000     0
         -2.13412591   -5.94791940   -3.32484651    c      6.000     0
          0.36342967   -6.05125499   -4.22650350    c      6.000     0
          1.89248199   -6.52922443   -2.94944556    h      1.000     0
          0.92744757   -5.46253880   -6.71366004    c      6.000     0
          2.88636985   -5.49218066   -7.31804187    h      1.000     0
         -2.72492498   -6.56014302   -0.67121554    c      6.000     0
         -4.86578518   -5.53426471    0.52292871    c      6.000     0
         -6.07474915   -4.22758157   -0.49140044    h      1.000     0
         -5.41903852   -6.09456421    3.01912594    c      6.000     0
         -7.04672317   -5.20793516    3.89546387    h      1.000     0
         -3.83554995   -7.68456338    4.44494114    c      6.000     0
         -1.69655750   -8.72458344    3.25107918    c      6.000     0
         -0.48904186  -10.04362536    4.25628260    h      1.000     0
         -1.16565331   -8.18562892    0.74504856    c      6.000     0
          0.44208117   -9.09411628   -0.14519497    h      1.000     0
         -4.37447648   -8.17878446    7.11109455    c      6.000     0
         -6.83688801   -7.99375438    8.11654935    c      6.000     0
         -8.44921660   -7.64341664    6.90416363    h      1.000     0
         -7.26321216   -8.29832282   10.66619543    c      6.000     0
         -9.12842908   -8.16636904   11.50088249    h      1.000     0
         -2.95343092   -9.09843698   11.36524810    c      6.000     0
         -1.50532110   -9.51974041   12.74965163    h      1.000     0
         -2.44145026   -8.82025113    8.83391633    c      6.000     0
         -0.50321877   -9.03023917    8.21054563    h      1.000     0
          0.41762680    0.94097172   -3.47075615    c      6.000     0
         -0.38115719   -0.94193257    3.43201590    c      6.000     0
         -0.69331975    0.58671567   -0.99239775    c      6.000     0
          0.73023825   -0.58754151    0.95372772    c      6.000     0
          2.94185546    0.10085069   -3.91927675    c      6.000     0
         -2.90529028   -0.10101985    3.88035189    c      6.000     0
          4.04926869    0.43815509   -6.33093317    c      6.000     0
         -4.01279637   -0.43716306    6.29196394    c      6.000     0
          0.92422366   -2.09667831    5.46266008    c      6.000     0
         -0.88857707    2.09470090   -5.50138177    c      6.000     0
         -3.20832493    1.39735654   -0.45224206    c      6.000     0
          3.24579843   -1.39682503    0.41349113    c      6.000     0
         -4.27076249    1.06930894    1.87797054    c      6.000     0
          4.30813404   -1.06867138   -1.91692406    c      6.000     0
          0.23170404    2.40280920   -7.84029746    c      6.000     0
         -0.19677597   -2.40462339    7.80142071    c      6.000     0
          2.72369888    1.57093869   -8.26894026    c      6.000     0
         -2.68779127   -1.57073571    8.23003627    c      6.000     0
         -4.31889928    2.29834901   -1.91882446    h      1.000     0
          4.35657888   -2.29762129    1.88009713    h      1.000     0
         -2.80911488    2.75823662   -5.23977913    h      1.000     0
          2.84463917   -2.76087410    5.20174938    h      1.000     0
         -6.19114228    1.70668972    2.23324461    h      1.000     0
          6.22915747   -1.70442052   -2.27153997    h      1.000     0
         -5.93777388    0.21999428    6.58552551    h      1.000     0
          5.97470309   -0.21756100   -6.62488792    h      1.000     0
          0.85850225   -3.29934505    9.31874425    h      1.000     0
         -0.82403301    3.29616516   -9.35803065    h      1.000     0
          3.58810965    1.82255328  -10.11510007    h      1.000     0
         -3.55449247   -1.82059259   10.07539000    h      1.000     0
 
       center of nuclear mass  :    0.00010850    0.00003048   -0.00009599
       center of nuclear charge:    0.00009164    0.00002694   -0.00007865

              +--------------------------------------------------+
              |               basis set information              |
              +--------------------------------------------------+

              we will work with the 1s 3p 5d 7f 9g ... basis set
              ...i.e. with spherical basis functions...

   type   atoms  prim   cont   basis
   ---------------------------------------------------------------------------
    n        4     77     57   def2-QZVP   [7s4p3d2f1g|15s8p3d2f1g]
    c       78     77     57   def2-QZVP   [7s4p3d2f1g|15s8p3d2f1g]
    h       60     33     30   def2-QZVP   [4s3p2d1f|7s3p2d1f]
   ---------------------------------------------------------------------------
   total:  142   8294   6474
   ---------------------------------------------------------------------------

   total number of primitive shells          :   71
   total number of contracted shells         : 1994
   total number of cartesian basis functions : 8004
   total number of SCF-basis functions       : 6474


 integral neglect threshold       :  0.42E-12
 integral storage threshold THIZE :  0.10E-04
 integral storage threshold THIME :         5


 DENSITY CONVERGENCE CHECK SWITCHED ON !
 SCF CONVERGENCE IF RMS(delta[D]) <     0.1000000000E-06


 symmetry group of the molecule :   c1 

 the group has the following generators :
   c1(z)

    1 symmetry operations found

 there are 1 real representations :   a   

 maximum number of shells which are related by symmetry :  1


    mo occupation :
   irrep   mo's   occupied
    a     6474      276
 
 number of basis functions   :                   6474
 number of occupied orbitals :                    276
 

 automatic virtual orbital shift switched on 
      shift if e(lumo)-e(homo) < 0.10000000    


 keyword $2e-ints_shell_statistics missing in file <control>

 ! One task per shell generated
  No pre-computed optimal task distribution found
  ... using automatic task generation

          ------------------------
          nuclear repulsion energy  :   13332.7944354    
          ------------------------


         -----------------
         -S,T+V- integrals
         -----------------

 1e-integrals will be neglected if expon. factor < 0.417536E-13
 
   Difference densities algorithm switched on.
   The maximal number of linear combinations of
   difference densities is                    20 .

 DIIS switched on: error vector is FDS-SDF
 Max. Iterations for DIIS is     :   5
 DIIS matrix (see manual) 
    Scaling factor of diagonals  :  1.200
    threshold for scaling factor :  0.000

 scf convergence criterion : increment of total energy < .1000000D-06
                  and increment of one-electron energy < .1000000D-03

  MOs are in ASCII format !


 reading orbital data $scfmo  from file mos
 orbital characterization : expanded
 mo provided and orthogonalized by Cholesky decomposition

 DSCF restart information will be dumped onto file mos

 
                                              current damping :  0.300
 ITERATION  ENERGY          1e-ENERGY        2e-ENERGY     RMS[dD(SAO)]   TOL
   1  -3195.4351743665    -30623.616627     14095.387018    0.000D+00 0.416D-12
          max. resid. norm for Fia-block=  6.516D-01 for orbital     83a         
          max. resid. fock norm         =  4.213D+01 for orbital   5506a         
          Delta Eig. =  4132.5657417067 eV 
 
                                              current damping :  0.250
 ITERATION  ENERGY          1e-ENERGY        2e-ENERGY     RMS[dD(SAO)]   TOL
   2  -3205.1969684675    -30745.500182     14207.508778    0.129D-01 0.416D-12
          Norm of current diis error:  8.8507    
          max. resid. norm for Fia-block=  1.106D-01 for orbital    103a         
          max. resid. fock norm         =  1.435D-01 for orbital    762a         
          Delta Eig. =   999.9097303749 eV 
 
                                              current damping :  0.150
 ITERATION  ENERGY          1e-ENERGY        2e-ENERGY     RMS[dD(SAO)]   TOL
   3  -3206.4577218948    -30752.222306     14212.970148    0.183D-02 0.280D-12
          Norm of current diis error:  2.8703    
          max. resid. norm for Fia-block=  3.640D-02 for orbital     99a         
          max. resid. fock norm         =  3.999D-02 for orbital     99a         
          Delta Eig. =   215.7432535153 eV 
 
                                              current damping :  0.100
 ITERATION  ENERGY          1e-ENERGY        2e-ENERGY     RMS[dD(SAO)]   TOL
   4  -3206.6436493538    -30765.942844     14226.504759    0.403D-03 0.215D-12
          Norm of current diis error: 0.67523    
          max. resid. norm for Fia-block=  1.009D-02 for orbital    276a         
          max. resid. fock norm         =  1.613D-02 for orbital   6425a         
          Delta Eig. =    30.4851136877 eV 
 
                                              current damping :  0.150
 ITERATION  ENERGY          1e-ENERGY        2e-ENERGY     RMS[dD(SAO)]   TOL
   5  -3206.6590253721    -30764.155530     14224.702070    0.106D-03 0.189D-12
          Norm of current diis error: 0.23739    
          max. resid. norm for Fia-block=  3.573D-03 for orbital    275a         
          max. resid. fock norm         =  9.506D-03 for orbital     65a         
 mo-orthogonalization: Cholesky decomposition
          Delta Eig. =     2.2679710136 eV 
 
                                              current damping :  0.200
 ITERATION  ENERGY          1e-ENERGY        2e-ENERGY     RMS[dD(SAO)]   TOL
   6  -3206.6609457417    -30765.481353     14226.025972    0.224D-04 0.178D-12
          Norm of current diis error: 0.84225E-01
          max. resid. norm for Fia-block=  1.954D-03 for orbital    263a         
          max. resid. fock norm         =  2.539D-03 for orbital   6440a         
          Delta Eig. =     0.4173685359 eV 
 
                                              current damping :  0.250
 ITERATION  ENERGY          1e-ENERGY        2e-ENERGY     RMS[dD(SAO)]   TOL
   7  -3206.6612962919    -30765.369460     14225.913728    0.113D-04 0.168D-12
          Norm of current diis error: 0.39252E-01
          max. resid. norm for Fia-block=  9.914D-04 for orbital    254a         
          max. resid. fock norm         =  1.447D-03 for orbital   6433a         
          Delta Eig. =     0.0555419676 eV 
 
                                              current damping :  0.300
 ITERATION  ENERGY          1e-ENERGY        2e-ENERGY     RMS[dD(SAO)]   TOL
   8  -3206.6613791399    -30765.375772     14225.919957    0.437D-05 0.161D-12
          Norm of current diis error: 0.21427E-01
          max. resid. norm for Fia-block=  7.470D-04 for orbital    263a         
          max. resid. fock norm         =  7.783D-04 for orbital    263a         
          Delta Eig. =     0.0172541552 eV 
 
                                              current damping :  0.350
 ITERATION  ENERGY          1e-ENERGY        2e-ENERGY     RMS[dD(SAO)]   TOL
   9  -3206.6614073641    -30765.365581     14225.909739    0.214D-05 0.155D-12
          Norm of current diis error: 0.11018E-01
          max. resid. norm for Fia-block=  4.286D-04 for orbital    263a         
          max. resid. fock norm         =  4.862D-04 for orbital    278a         
          Delta Eig. =     0.0104309498 eV 
 
                                              current damping :  0.400
 ITERATION  ENERGY          1e-ENERGY        2e-ENERGY     RMS[dD(SAO)]   TOL
  10  -3206.6614171207    -30765.371628     14225.915775    0.970D-06 0.148D-12
          Norm of current diis error: 0.60968E-02
          max. resid. norm for Fia-block=  3.057D-04 for orbital    263a         
          max. resid. fock norm         =  3.213D-04 for orbital    278a         
 mo-orthogonalization: Cholesky decomposition
          Delta Eig. =     0.0036855868 eV 
 
                                              current damping :  0.450
 ITERATION  ENERGY          1e-ENERGY        2e-ENERGY     RMS[dD(SAO)]   TOL
  11  -3206.6614206180    -30765.362228     14225.906372    0.499D-06 0.141D-12
          Norm of current diis error: 0.35440E-02
          max. resid. norm for Fia-block=  1.883D-04 for orbital    263a         
          max. resid. fock norm         =  1.983D-04 for orbital    278a         
          Delta Eig. =     0.0033485979 eV 
 
                                              current damping :  0.500
 ITERATION  ENERGY          1e-ENERGY        2e-ENERGY     RMS[dD(SAO)]   TOL
  12  -3206.6614218780    -30765.364100     14225.908242    0.310D-06 0.134D-12
          Norm of current diis error: 0.19640E-02
          max. resid. norm for Fia-block=  1.177D-04 for orbital    263a         
          max. resid. fock norm         =  1.211D-04 for orbital    278a         
          Delta Eig. =     0.0012558017 eV 
 
                                              current damping :  0.550
 ITERATION  ENERGY          1e-ENERGY        2e-ENERGY     RMS[dD(SAO)]   TOL
  13  -3206.6614222822    -30765.361108     14225.905251    0.183D-06 0.128D-12
          Norm of current diis error: 0.10780E-02
          max. resid. norm for Fia-block=  6.236D-05 for orbital    263a         
          max. resid. fock norm         =  6.595D-05 for orbital    278a         
          Delta Eig. =     0.0010603516 eV 
 
                                              current damping :  0.600
 ITERATION  ENERGY          1e-ENERGY        2e-ENERGY     RMS[dD(SAO)]   TOL
  14  -3206.6614223977    -30765.361178     14225.905320    0.111D-06 0.124D-12
          Norm of current diis error: 0.57817E-03
          max. resid. norm for Fia-block=  3.450D-05 for orbital    273a         
          max. resid. fock norm         =  3.496D-05 for orbital    278a         
          Delta Eig. =     0.0003470526 eV 

 DENSITY CONVERGED !

 
                                              current damping :  0.650
 ITERATION  ENERGY          1e-ENERGY        2e-ENERGY     RMS[dD(SAO)]   TOL
  15  -3206.6614224185    -30765.360472     14225.904615    0.631D-07 0.119D-12
          Norm of current diis error: 0.31571E-03
          max. resid. norm for Fia-block=  1.704D-05 for orbital    268a         
          max. resid. fock norm         =  3.612D-05 for orbital   2724a         
 mo-orthogonalization: Cholesky decomposition
          Delta Eig. =     0.0002895419 eV 

 ENERGY & DENSITY CONVERGED !

 
                                              current damping :  0.500
 ITERATION  ENERGY          1e-ENERGY        2e-ENERGY     RMS[dD(SAO)]   TOL
  16  -3206.6614224221    -30765.360408     14225.904550    0.554D-07 0.119D-12
          max. resid. norm for Fia-block=  3.873D-06 for orbital    273a         
          max. resid. fock norm         =  2.371D-05 for orbital   1551a         

 convergence criteria satisfied after    16 iterations


                  ------------------------------------------ 
                 |  total energy      =  -3206.66142242210  |
                  ------------------------------------------ 
                 :  kinetic energy    =   3202.17308279340  :
                 :  potential energy  =  -6408.83450521550  :
                 :  virial theorem    =      1.99860030760  :
                 :  wavefunction norm =      1.00000000000  :
                  .......................................... 


 <geterg> : there is no data group $energy 


 <skperg> : $end is missing 


 orbitals $scfmo  will be written to file mos

    irrep                272a        273a        274a        275a        276a   
 eigenvalues H         -0.59296    -0.57042    -0.56920    -0.56343    -0.54357
            eV         -16.1354    -15.5219    -15.4890    -15.3317    -14.7914
 occupation              2.0000      2.0000      2.0000      2.0000      2.0000 

    irrep                277a        278a        279a        280a        281a   
 eigenvalues H         -0.27017    -0.26692    -0.24820    -0.24565    -0.20963
            eV          -7.3519     -7.2633     -6.7538     -6.6845     -5.7044
 
 
 
 
 ==============================================================================
                           electrostatic moments
 ==============================================================================

 reference point for electrostatic moments:    0.00000   0.00000   0.00000

 
              nuc           elec       ->  total
 ------------------------------------------------------------------------------
                          charge      
 ------------------------------------------------------------------------------
         556.000000    -552.000000       4.000000
 
 ------------------------------------------------------------------------------
                       dipole moment  
 ------------------------------------------------------------------------------
   x       0.050954      -0.068536      -0.017582
   y       0.014977      -0.015559      -0.000582
   z      -0.043732       0.069845       0.026112
 
   | dipole moment | =     0.0315 a.u. =     0.0800 debye 
 
 ------------------------------------------------------------------------------
                     quadrupole moment
 ------------------------------------------------------------------------------
  xx    7401.569063   -7634.909508    -233.340445
  yy   16570.981601  -16747.260239    -176.278638
  zz   62468.885389  -62108.714181     360.171208
  xy    7291.215474   -7233.661582      57.553892
  xz  -12171.034706   12038.324733    -132.709973
  yz   -9931.940349    9807.934522    -124.005827
 
     1/3  trace=     -16.482625
     anisotropy=     656.163686
 
 ==============================================================================
 

    dscf profiling
  --------------------------------------------------------------------
             module   cpu total (s)       %  wall total (s)       %

          dscf.total         65474.0  100.00         57464.5  100.00
        dscf.prepare           308.8    0.47           308.8    0.54
      prepare.oneint             1.9    0.00             1.9    0.00
     prepare.moinput             1.5    0.00             1.5    0.00
     moinput_orthmos           304.2    0.46           304.2    0.53
            dscf.scf         65155.7   99.51         57145.8   99.45
             scf.pre             0.0    0.00             0.0    0.00
        scf.makedmat            92.4    0.14           101.7    0.18
          scf.shloop         53233.1   81.30         53237.7   92.64
          shloop_omp         53224.0   81.29         53228.6   92.63
          scf.symcar            10.3    0.02            10.3    0.02
        scf.makefock            17.8    0.03            24.2    0.04
          scf.newerg             0.8    0.00             0.8    0.00
          scf.newcnv          2237.2    3.42           296.8    0.52
           scf.fdiag          6647.6   10.15           833.0    1.45
         diag_tritrn          1720.1    2.63           215.5    0.38
          diag_rdiag          4911.4    7.50           615.0    1.07
          scf.modump          2225.2    3.40          2223.0    3.87
           ortho_all           539.7    0.82           266.6    0.46
            scf.post           149.9    0.23           151.3    0.26
        dscf.postscf             9.4    0.01             9.8    0.02
 


    ------------------------------------------------------------------------
         total  cpu-time : 18 hours 11 minutes and 14 seconds
         total wall-time : 15 hours 57 minutes and 45 seconds
    ------------------------------------------------------------------------

   ****  dscf : all done  ****


    2018-02-17 01:04:57.955 

