
 ridftserver (c-8-40.local) : TURBOMOLE V7.1 ( ) 5 Apr 2016 at 13:22:17
 Copyright (C) 2016 TURBOMOLE GmbH, Karlsruhe


    2016-06-10 11:38:45.938 

   ***************************************************************************
$operating system unix                                                          
   ***************************************************************************
 ! Initialization MPI         :            8  tasks intended
 total turnaround time of ridftserver   660.89 sec
 cpu elapsed by ridftserver process     565.37 sec 

   ***  ridft server : all done  ***


    2016-06-10 11:49:46.830 

