STARTING ridft ON 32 PROCESSORS!
RUNNING PROGRAM /sopt/TURBOMOLE/7.3-official/bin/em64t-unknown-linux-gnu_smp/ridft_mpi.
           SMPCPUS    set: Shared-memory Parallelization with  32 CPUs.

           SMP Parallelization Reference:
           C. van Wullen, J. Comput. Chem. 32 (2011) 1195--1201
 operating system is UNIX !

 ridft (c-16-23) : TURBOMOLE V7.3 ( 22118 ) 1 Jul 2018 at 20:38:15
 Copyright (C) 2018 TURBOMOLE GmbH, Karlsruhe


    2019-03-12 22:20:29.113 



                                  r i d f t

                        DFT program with RI approximation 
                                for coulomb part 




                                                 
                                 References:     
                                                 
          TURBOMOLE:                             
              R. Ahlrichs, M. Baer, M. Haeser, H. Horn, and
              C. Koelmel
              Electronic structure calculations on workstation
              computers: the program system TURBOMOLE
              Chem. Phys. Lett. 162: 165 (1989)
          Density Functional:                              
              O. Treutler and R. Ahlrichs                      
              Efficient Molecular Numerical Integration Schemes
              J. Chem. Phys. 102: 346 (1995)                   
          Parallel Version:                                
              Performance of parallel TURBOMOLE for Density    
              Functional Calculations                          
              M. v. Arnim and R. Ahlrichs                      
              J. Comp. Chem. 19: 1746 (1998)                   
          RI-J Method:                                     
              Auxiliary Basis Sets to approximate Coulomb      
              Potentials                                       
              Chem. Phys. Lett. 240: 283 (1995)                
              K. Eichkorn, O. Treutler, H. Oehm, M. Haeser     
              and R. Ahlrichs                                  
              Chem. Phys. Lett. 242: 652 (1995)                
                                                           
              Auxiliary Basis Sets for Main Row Atoms and their
              Use to approximate Coulomb Potentials            
              K. Eichkorn, F. Weigend, O. Treutler and         
              R. Ahlrichs                                      
              Theo. Chem. Acc. 97: 119 (1997)                   
                                                           
              Accurate Coulomb-fitting basis sets for H to Rn 
              F. Weigend                                        
              Phys. Chem. Chem. Phys. 8: 1057 (2006)            
                                                           
          Multipole accelerated RI-J (MARI-J):             
              Fast evaluation of the Coulomb potential for     
              electron densities using multipole accelerated   
              resolution of identity approximation             
              M. Sierka, A. Hogekamp and R. Ahlrichs           
              J. Chem. Phys. 118: 9136 (2003)                  
          RI-JK Method:                                     
              A fully direct RI-HF algorithm: Implementation,
              optimised auxiliary basis sets, demonstration of
              accuracy and efficiency                         
              F. Weigend                                      
              Phys. Chem. Chem. Phys. 4: 4285 (2002)           
          Two-component HF and DFT with spin-orbit coupling:  
              Self-consistent treatment of spin-orbit         
              interactions with efficient Hartree-Fock and    
              density functional methods                      
              M. K. Armbruster, F. Weigend, C. van Wüllen and 
              W. Klopper                                      
              Phys. Chem. Chem. Phys. 10: 1748 (2008)         
          Two-component difference density and DIIS algorithm 
              Efficient two-component self-consistent field   
              procedures and gradients: implementation in     
              TURBOMOLE and application to Au20-              
              A. Baldes, F. Weigend                           
              Mol. Phys. 111: 2617 (2013)                     
          Relativistic all-electron 2c calculations           
              An efficient implementation of two-component    
              relativistic exact-decoupling methods for large 
              molecules                                       
              D. Peng, N. Middendorf, F. Weigend, M. Reiher   
              J. Chem. Phys. 138: 184105 (2013)               
          Finite nucleus model and SNSO approximation         
              Efficient implementation of one- and two-       
              component analytical energy gradients in exact  
              two-component theory                            
              Y. J. Franzke, N. Middendorf, F. Weigend        
              J. Chem. Phys. 148: 104110 (2018)               
                                         




              +--------------------------------------------------+
              |      general information about current run       |
              +--------------------------------------------------+

 
 PBE functional
 exchange:    LDA + PBE
 correlation: LDA (PW) + PBE
 A DFT calculation using the RI-J approximation will be carried out.
 Allocatable memory for RI due to $ricore (MB):                  8000


              +--------------------------------------------------+
              | Atomic coordinate, charge and isotop information |
              +--------------------------------------------------+

                    atomic coordinates            atom    charge  isotop
          2.28799600    0.05418937    0.62306371    n      7.000     0
          1.15638950   -2.18915137    0.28998181    c      6.000     0
          2.36495050   -3.83524341    0.41440361    h      1.000     0
         -1.41977768   -2.47298927   -0.16787207    c      6.000     0
         -2.21176527   -4.34045397   -0.40323582    h      1.000     0
         -2.92504599   -0.32114057   -0.29567961    c      6.000     0
         -4.93409902   -0.46478701   -0.64015558    h      1.000     0
         -1.78318786    2.02320905    0.03746023    c      6.000     0
         -2.87014308    3.75016205   -0.02200402    h      1.000     0
          0.80827096    2.10913964    0.48631874    c      6.000     0
          1.74741939    3.90805141    0.75125682    h      1.000     0
 
       center of nuclear mass  :   -0.30226744   -0.13212970    0.16478085
       center of nuclear charge:   -0.35399457   -0.13591763    0.15626108

              +--------------------------------------------------+
              |               basis set information              |
              +--------------------------------------------------+

              we will work with the 1s 3p 5d 7f 9g ... basis set
              ...i.e. with spherical basis functions...

   type   atoms  prim   cont   basis
   ---------------------------------------------------------------------------
    n        1     68     48   def2-QZVP   [7s4p3d2f|15s8p3d2f]
    c        5     68     48   def2-QZVP   [7s4p3d2f|15s8p3d2f]
    h        5     26     23   def2-QZVP   [4s3p2d|7s3p2d]
   ---------------------------------------------------------------------------
   total:   11    538    403
   ---------------------------------------------------------------------------

   total number of primitive shells          :   68
   total number of contracted shells         :  141
   total number of cartesian basis functions :  467
   total number of SCF-basis functions       :  403


 integral neglect threshold       :  0.71E-11
 integral storage threshold THIZE :  0.10E-04
 integral storage threshold THIME :         5

 RI-J AUXILIARY BASIS SET information:

              we will work with the 1s 3p 5d 7f 9g ... basis set
              ...i.e. with spherical basis functions...

   type   atoms  prim   cont   basis
   ---------------------------------------------------------------------------
    n        1     70     49   def2-QZVP   [6s4p3d1f1g|12s5p4d2f1g]
    c        5     70     49   def2-QZVP   [6s4p3d1f1g|12s5p4d2f1g]
    h        5     16     11   def2-QZVP   [3s1p1d|5s2p1d]
   ---------------------------------------------------------------------------
   total:   11    500    349
   ---------------------------------------------------------------------------

   total number of primitive shells          :   56
   total number of contracted shells         :  115
   total number of cartesian basis functions :  426
   total number of SCF-basis functions       :  349


 symmetry group of the molecule :   c1 

 the group has the following generators :
   c1(z)

    1 symmetry operations found

 there are 1 real representations :   a   

 maximum number of shells which are related by symmetry :  1


    mo occupation :
   irrep   mo's   occupied
    a      403       21
 
 number of basis functions   :                    403
 number of occupied orbitals :                     21
 
  
           ------------------
           density functional
           ------------------
 PBE functional
 exchange:    LDA + PBE
 correlation: LDA (PW) + PBE

 iterations will be done with small grid
  
 spherical integration : Lebedev's spherical grid
 spherical gridsize    :                     4
    i.e. gridpoints    :                   434
 value for diffuse not defined
 radial integration    : Chebyshev 2nd kind (scaling 3)
 radial gridsize       :                     6
 integration cells     :                    11
 partition function    : becke
 partition sharpness   :                     3
  

 biggest AO integral is expected to be     6.129561670
  
           ------------------------
               RI-J - INFORMATION
           ------------------------
 Contributions to RI integral batches: 
  neglected integral batches:                  1016
  direct contribution:                            0
  memory contribution:                  8995
 Memory core needed for (P|Q) and Cholesky      1 MByte
 Memory core minimum needed except of (P|Q)     1 MByte
 Total minimum memory core needed (sum)         2 MByte
  
 ****************************************
 Memory allocated for RI-J   334 MByte
 ****************************************
                                            

          ------------------------
          nuclear repulsion energy  :   206.160400215    
          ------------------------

  _________________________________
 |                                 |
 |         DFTD3 V3.1 Rev 0        |
 | S.Grimme, University Bonn       |
 |            June  2014           |
 |   see standalone version        |
 |       dftd3 -h for options      |
 |_________________________________|
 
 Please cite DFT-D3 work done with this code as:
 S. Grimme, J. Antony, S. Ehrlich and H. Krieg,
 J. Chem. Phys, 132 (2010), 154104.
 If used with BJ-damping cite also
 S. Grimme, S. Ehrlich and L. Goerigk,
 J. Comput. Chem. 32 (2011), 1456-1465
 For DFT-D2 the reference is
 S. Grimme, J. Comput. Chem., 27 (2006), 1787-1799
 
C6 coefficients used:
                     2  C6 for element                      1
Z=  1 CN= 0.912     C6(AA)=    3.03
Z=  1 CN= 0.000     C6(AA)=    7.59
                     5  C6 for element                      6
Z=  6 CN= 0.000     C6(AA)=   49.11
Z=  6 CN= 0.987     C6(AA)=   43.25
Z=  6 CN= 1.998     C6(AA)=   29.36
Z=  6 CN= 2.999     C6(AA)=   25.78
Z=  6 CN= 3.984     C6(AA)=   18.21
                     4  C6 for element                      7
Z=  7 CN= 0.000     C6(AA)=   25.27
Z=  7 CN= 0.994     C6(AA)=   22.12
Z=  7 CN= 2.014     C6(AA)=   19.68
Z=  7 CN= 2.990     C6(AA)=   15.58

#           XYZ [au]              R0(AA) [Ang.]  CN          C6(AA)     C8(AA)   C10(AA) [au]
  1   2.28800   0.05419   0.62306   n   0.533  2.103        19.5       430.4     11631.8
  2   1.15639  -2.18915   0.28998   c   0.610  3.198        25.0       724.2     25657.6
  3   2.36495  -3.83524   0.41440   h   0.395  1.003         3.1        37.3       552.9
  4  -1.41978  -2.47299  -0.16787   c   0.610  3.128        25.3       733.2     25975.1
  5  -2.21177  -4.34045  -0.40324   h   0.395  1.003         3.1        37.3       553.0
  6  -2.92505  -0.32114  -0.29568   c   0.610  3.142        25.3       731.7     25921.9
  7  -4.93410  -0.46479  -0.64016   h   0.395  1.003         3.1        37.3       553.0
  8  -1.78319   2.02321   0.03746   c   0.610  3.128        25.4       733.2     25977.2
  9  -2.87014   3.75016  -0.02200   h   0.395  1.003         3.1        37.3       553.0
 10   0.80827   2.10914   0.48632   c   0.610  3.199        25.0       724.1     25653.0
 11   1.74742   3.90805   0.75126   h   0.395  1.003         3.1        37.3       553.0

molecular C6(AA) [au] =      1465.69

           DFT-D V3(BJ)
 DF pbe                                               
 parameters
 s6       :    1.0000
 s8       :    0.7875
 a1       :    0.4289
 a2       :    4.4407
 k1-k3    :   16.0000    1.3333   -4.0000
 
 Edisp /kcal,au:    -6.2393 -0.00994292

 E6    /kcal :    -4.3444
 E8    /kcal :    -1.8949
 % E8        : 30.37
 nuclear repulsion energy                  =     206.160400215
 empirical dispersive energy correction    =      -0.009942923
 nuclear repulsion + dispersion correction =     206.150457292


         -----------------
         -S,T+V- integrals
         -----------------

 1e-integrals will be neglected if expon. factor < 0.715623E-12
 Difference densities >>NOT<< switched on in parallel ridft!

 DIIS switched on: error vector is FDS-SDF
 Max. Iterations for DIIS is     :   4
 DIIS matrix (see manual) 
    Scaling factor of diagonals  :  1.200
    threshold for scaling factor :  0.000

 scf convergence criterion : increment of total energy < .1000000D-06
                  and increment of one-electron energy < .1000000D-03

  MOs are in ASCII format !


 automatic virtual orbital shift switched on 
      shift if e(lumo)-e(homo) < 0.10000000    


 reading orbital data $scfmo  from file mos
 orbital characterization : expanded
 mo provided and orthogonalized by Cholesky decomposition

 DSCF restart information will be dumped onto file mos


 Starting SCF iterations

          Overall gridpoints after grid construction =         30438

 ITERATION  ENERGY          1e-ENERGY        2e-ENERGY     NORM[dD(SAO)]  TOL
   1  -247.09499578020    -732.79786789     279.55241482    0.000D+00 0.714D-11
                            Exc = -34.7653817060     Coul =  314.317796525    
                              N = 42.000111705    
                            current damping = 0.700
 
          max. resid. norm for Fia-block=  5.837D-01 for orbital      7a         
          max. resid. fock norm         =  5.497D+01 for orbital    329a         

 ITERATION  ENERGY          1e-ENERGY        2e-ENERGY     NORM[dD(SAO)]  TOL
   2  -247.89934624761    -739.19865406     285.14885052    0.000D+00 0.714D-11
                            Exc = -35.2693368298     Coul =  320.418187351    
                              N = 42.000083999    
                            current damping = 0.650
 
          Norm of current diis error:  2.8379    
          max. resid. norm for Fia-block=  1.364D-01 for orbital      1a         
          max. resid. fock norm         =  1.993D-01 for orbital    389a         

 ITERATION  ENERGY          1e-ENERGY        2e-ENERGY     NORM[dD(SAO)]  TOL
   3  -248.03143345681    -740.75426266     286.57237191    0.000D+00 0.714D-11
                            Exc = -35.4556375481     Coul =  322.028009457    
                              N = 42.000066539    
                            current damping = 0.550
 
          Norm of current diis error:  1.3991    
          max. resid. norm for Fia-block=  5.635D-02 for orbital     21a         
          max. resid. fock norm         =  6.059D-02 for orbital      7a         

 ITERATION  ENERGY          1e-ENERGY        2e-ENERGY     NORM[dD(SAO)]  TOL
   4  -248.07546665607    -741.39511583     287.16919188    0.000D+00 0.714D-11
                            Exc = -35.5100628361     Coul =  322.679254718    
                              N = 42.000058749    
                            current damping = 0.450
 
          Norm of current diis error: 0.55984    
          max. resid. norm for Fia-block=  2.831D-02 for orbital      7a         
          max. resid. fock norm         =  5.114D-02 for orbital    388a         

 ITERATION  ENERGY          1e-ENERGY        2e-ENERGY     NORM[dD(SAO)]  TOL
   5  -248.08078983716    -742.10084949     287.86960236    0.000D+00 0.714D-11
                            Exc = -35.5855597033     Coul =  323.455162064    
                              N = 42.000052570    
                            current damping = 0.350
 
          Norm of current diis error: 0.34603    
          max. resid. norm for Fia-block=  1.424D-02 for orbital     21a         
          max. resid. fock norm         =  1.529D-02 for orbital     21a         
          mo-orthogonalization: Cholesky decomposition

 ITERATION  ENERGY          1e-ENERGY        2e-ENERGY     NORM[dD(SAO)]  TOL
   6  -248.08384541633    -741.91362678     287.67932407    0.000D+00 0.714D-11
                            Exc = -35.5702506429     Coul =  323.249574710    
                              N = 42.000050586    
                            current damping = 0.400
 
          Norm of current diis error: 0.13536    
          max. resid. norm for Fia-block=  3.477D-03 for orbital     20a         
          max. resid. fock norm         =  8.890D-03 for orbital    400a         

 ITERATION  ENERGY          1e-ENERGY        2e-ENERGY     NORM[dD(SAO)]  TOL
   7  -248.08422924912    -741.97948001     287.74479347    0.000D+00 0.714D-11
                            Exc = -35.5761180930     Coul =  323.320911566    
                              N = 42.000049918    
                            current damping = 0.450
 
          Norm of current diis error: 0.56527E-01
          max. resid. norm for Fia-block=  1.606D-03 for orbital     13a         
          max. resid. fock norm         =  4.523D-03 for orbital    400a         

 ITERATION  ENERGY          1e-ENERGY        2e-ENERGY     NORM[dD(SAO)]  TOL
   8  -248.08429850258    -742.01663322     287.78187743    0.000D+00 0.714D-11
                            Exc = -35.5799109739     Coul =  323.361788402    
                              N = 42.000049678    
                            current damping = 0.300
 
          Norm of current diis error: 0.11838E-01
          max. resid. norm for Fia-block=  3.248D-04 for orbital     21a         
          max. resid. fock norm         =  6.281D-04 for orbital    400a         

 ITERATION  ENERGY          1e-ENERGY        2e-ENERGY     NORM[dD(SAO)]  TOL
   9  -248.08430206974    -742.01098155     287.77622219    0.000D+00 0.714D-11
                            Exc = -35.5795404980     Coul =  323.355762687    
                              N = 42.000049579    
                            current damping = 0.350
 
          Norm of current diis error: 0.17065E-02
          max. resid. norm for Fia-block=  7.372D-05 for orbital     13a         
          max. resid. fock norm         =  1.933D-04 for orbital    402a         

 ITERATION  ENERGY          1e-ENERGY        2e-ENERGY     NORM[dD(SAO)]  TOL
  10  -248.08430208002    -742.01163400     287.77687462    0.000D+00 0.714D-11
                            Exc = -35.5795743172     Coul =  323.356448941    
                              N = 42.000049570    
                            current damping = 0.400
 
          Norm of current diis error: 0.15945E-02
          max. resid. norm for Fia-block=  4.987D-05 for orbital     20a         
          max. resid. fock norm         =  9.999D-05 for orbital    399a         
          mo-orthogonalization: Cholesky decomposition

 ENERGY CONVERGED !

          Overall gridpoints after grid construction =        109420

 ITERATION  ENERGY          1e-ENERGY        2e-ENERGY     NORM[dD(SAO)]  TOL
  11  -248.08423078265    -742.01191976     287.77723169    0.000D+00 0.714D-11
                            Exc = -35.5795342318     Coul =  323.356765918    
                              N = 41.999996140    
                            current damping = 0.250
 
          Norm of current diis error: 0.75741E-03
          max. resid. norm for Fia-block=  2.595D-05 for orbital     19a         
          max. resid. fock norm         =  4.503D-05 for orbital    400a         

 End of SCF iterations

   convergence criteria satisfied after    11 iterations


                  ------------------------------------------ 
                 |  total energy      =   -248.08423078265  |
                  ------------------------------------------ 
                 :  kinetic energy    =    247.03028903801  :
                 :  potential energy  =   -495.11451982066  :
                 :  virial theorem    =      1.99575167780  :
                 :  wavefunction norm =      1.00000000000  :
                  .......................................... 


 orbitals $scfmo  will be written to file mos

    irrep                 17a         18a         19a         20a         21a   
 eigenvalues H         -0.36146    -0.32395    -0.26850    -0.24645    -0.21809
            eV          -9.8360     -8.8153     -7.3064     -6.7063     -5.9346
 occupation              2.0000      2.0000      2.0000      2.0000      2.0000 

    irrep                 22a         23a         24a         25a         26a   
 eigenvalues H         -0.06905    -0.05533     0.00519     0.02963     0.03992
            eV          -1.8788     -1.5055      0.1413      0.8064      1.0863
 
 
 
 
 ==============================================================================
                           electrostatic moments
 ==============================================================================

 reference point for electrostatic moments:    0.00000   0.00000   0.00000

 
              nuc           elec       ->  total
 ------------------------------------------------------------------------------
                          charge      
 ------------------------------------------------------------------------------
          42.000000     -42.000000       0.000000
 
 ------------------------------------------------------------------------------
                       dipole moment  
 ------------------------------------------------------------------------------
   x     -14.867772      14.005362      -0.862410
   y      -5.708540       5.645955      -0.062586
   z       6.562966      -6.709059      -0.146093
 
   | dipole moment | =     0.8769 a.u. =     2.2289 debye 
 
 ------------------------------------------------------------------------------
                     quadrupole moment
 ------------------------------------------------------------------------------
  xx     177.217667    -203.851772     -26.634105
  yy     180.440011    -202.616386     -22.176375
  zz       6.652095     -34.732858     -28.080763
  xy      -0.147819      -0.140122      -0.287941
  xz      26.974353     -26.964923       0.009430
  yz       9.408942      -9.126550       0.282392
 
     1/3  trace=     -25.630414
     anisotropy=       5.375985
 
 ==============================================================================
 


    ------------------------------------------------------------------------
         total  cpu-time :  1 minutes and 21 seconds
         total wall-time :  16.94 seconds
    ------------------------------------------------------------------------

   ****  ridft : all done  ****


    2019-03-12 22:20:46.006 

