
   OpenMP run-time library returned nthreads = 28
 operating system is UNIX !

 dscf (c-13-38) : TURBOMOLE V7.3 ( 22142 ) 4 Jul 2018 at 18:12:42
 Copyright (C) 2018 TURBOMOLE GmbH, Karlsruhe


    2019-04-01 23:06:31.796 



                             d s c f - program

                   idea & directorship : reinhart ahlrichs
                   program development : marco haeser
                                         michael baer
                           dft version : oliver treutler


                          quantum chemistry group
                          universitaet  karlsruhe
                                  germany




                          References             
                                                 
          TURBOMOLE:                             
              R. Ahlrichs, M. Baer, M. Haeser, H. Horn, and
              C. Koelmel
              Electronic structure calculations on workstation
              computers: the program system TURBOMOLE
              Chem. Phys. Lett. 162: 165 (1989)
          Density Functional:                              
              O. Treutler and R. Ahlrichs                      
              Efficient Molecular Numerical Integration Schemes
              J. Chem. Phys. 102: 346 (1995)                   
          Parallel Version:                                
              Performance of parallel TURBOMOLE for Density    
              Functional Calculations                          
              M. v. Arnim and R. Ahlrichs                      
              J. Comp. Chem. 19: 1746 (1998)                   
                                         




              +--------------------------------------------------+
              | Atomic coordinate, charge and isotop information |
              +--------------------------------------------------+

                    atomic coordinates            atom    charge  isotop
          1.18312216   -1.60799188    1.52295994    n      0.000     0
          0.77325684   -3.42323994    1.95473540    h      0.000     0
         -0.81722377   -0.16504076    0.55683381    c      0.000     0
         -2.89273913   -1.11192077    0.23355612    o      0.000     0
         -0.12637471    2.44015652    0.03710929    c      0.000     0
         -1.53019350    3.68838710   -0.74235935    h      0.000     0
          2.23657039    3.24642668    0.54902820    c      0.000     0
          2.83808562    5.16626679    0.20755398    h      0.000     0
          4.03292084    1.67543422    1.54784023    n      0.000     0
          5.77374816    2.31283841    1.97179275    h      0.000     0
          3.59573912   -0.83748588    2.13220021    c      0.000     0
          5.18504248   -2.19949672    3.07758398    o      0.000     0
         -1.17862634   -0.05615881    8.94197459    c      6.000     0
         -3.66691602    1.34467401    9.34802554    c      6.000     0
         -5.00308733    0.17643362   10.39656340    h      1.000     0
         -3.36550553    3.08357079   10.41418071    h      1.000     0
         -4.53186214    1.83883176    7.54304671    h      1.000     0
         -0.01561969   -0.72405969   11.49551889    c      6.000     0
          1.76669852   -1.73009945   11.24837705    h      1.000     0
          0.35669596    0.97620579   12.60063478    h      1.000     0
         -1.28418154   -1.92920798   12.58539339    h      1.000     0
          0.64519422    1.63226958    7.47594567    c      6.000     0
          2.43773264    0.66360596    7.15402327    h      1.000     0
          1.03313647    3.36729602    8.52176995    h      1.000     0
         -0.15301739    2.15853300    5.64770284    h      1.000     0
         -1.67244427   -2.47507325    7.44840140    c      6.000     0
         -2.54878285   -2.05586831    5.62930446    h      1.000     0
          0.08986953   -3.49249976    7.10893727    h      1.000     0
         -2.93952040   -3.72572040    8.48810022    h      1.000     0
 
       center of nuclear mass  :    0.49603995    0.04349379    4.25507757
       center of nuclear charge:   -1.17791182   -0.05569067    8.94279120

              +--------------------------------------------------+
              |               basis set information              |
              +--------------------------------------------------+

              we will work with the 1s 3p 5d 7f 9g ... basis set
              ...i.e. with spherical basis functions...

   type   atoms  prim   cont   basis
   ---------------------------------------------------------------------------
    n        2     50     30   cc-pVTZ   [4s3p2d1f|18s5p2d1f]
    h       16     16     14   cc-pVTZ   [3s2p1d|5s2p1d]
    c        9     50     30   cc-pVTZ   [4s3p2d1f|18s5p2d1f]
    o        2     50     30   cc-pVTZ   [4s3p2d1f|18s5p2d1f]
   ---------------------------------------------------------------------------
   total:   29    906    614
   ---------------------------------------------------------------------------

   total number of primitive shells          :   86
   total number of contracted shells         :  226
   total number of cartesian basis functions :  695
   total number of SCF-basis functions       :  614


 integral neglect threshold       :  0.48E-13
 integral storage threshold THIZE :  0.10E-04
 integral storage threshold THIME :         5


 DENSITY CONVERGENCE CHECK SWITCHED ON !
 SCF CONVERGENCE IF RMS(delta[D]) <     0.1000000000E-06


 symmetry group of the molecule :   c1 

 the group has the following generators :
   c1(z)

    1 symmetry operations found

 there are 1 real representations :   a   

 maximum number of shells which are related by symmetry :  1


    mo occupation :
   irrep   mo's   occupied
    a      614       21
 
 number of basis functions   :                    614
 number of occupied orbitals :                     21
 

 automatic virtual orbital shift switched on 
      shift if e(lumo)-e(homo) < 0.10000000    


          ------------------------
          nuclear repulsion energy  :   199.361535643    
          ------------------------


         -----------------
         -S,T+V- integrals
         -----------------

 1e-integrals will be neglected if expon. factor < 0.480858E-14
 
   Difference densities algorithm switched on.
   The maximal number of linear combinations of
   difference densities is                    20 .

 DIIS switched on: error vector is FDS-SDF
 Max. Iterations for DIIS is     :   5
 DIIS matrix (see manual) 
    Scaling factor of diagonals  :  1.200
    threshold for scaling factor :  0.000

 scf convergence criterion : increment of total energy < .1000000D-08
                  and increment of one-electron energy < .1000000D-05

  MOs are in ASCII format !


 reading orbital data $scfmo  from file mos
 orbital characterization : scfconv=9

 DSCF restart information will be dumped onto file mos

 
                                              current damping :  0.700
 ITERATION  ENERGY          1e-ENERGY        2e-ENERGY     RMS[dD(SAO)]   TOL
   1  -196.35815017630    -659.09682338     263.37713756    0.000D+00 0.480D-13
          max. resid. norm for Fia-block=  8.574D-02 for orbital      2a         
          max. resid. fock norm         =  4.281D-01 for orbital    604a         
          Delta Eig. =    20.8067011906 eV 
 
                                              current damping :  0.650
 ITERATION  ENERGY          1e-ENERGY        2e-ENERGY     RMS[dD(SAO)]   TOL
   2  -196.39398173434    -658.43981263     262.68429525    0.426D-03 0.305D-13
          Norm of current diis error: 0.42346    
          max. resid. norm for Fia-block=  4.191D-02 for orbital      3a         
          max. resid. fock norm         =  8.888D-02 for orbital    526a         
          Delta Eig. =     9.7043664499 eV 
 
                                              current damping :  0.600
 ITERATION  ENERGY          1e-ENERGY        2e-ENERGY     RMS[dD(SAO)]   TOL
   3  -196.40163139527    -658.63128180     262.86811476    0.223D-03 0.230D-13
          Norm of current diis error: 0.19173    
          max. resid. norm for Fia-block=  1.709D-02 for orbital      5a         
          max. resid. fock norm         =  5.046D-02 for orbital    588a         
          Delta Eig. =     3.6723488346 eV 
 
                                              current damping :  0.650
 ITERATION  ENERGY          1e-ENERGY        2e-ENERGY     RMS[dD(SAO)]   TOL
   4  -196.40325803556    -658.55169727     262.78690359    0.950D-04 0.204D-13
          Norm of current diis error: 0.77397E-01
          max. resid. norm for Fia-block=  6.434D-03 for orbital      5a         
          max. resid. fock norm         =  2.230D-02 for orbital    588a         
          Delta Eig. =     1.3836074175 eV 
 
                                              current damping :  0.500
 ITERATION  ENERGY          1e-ENERGY        2e-ENERGY     RMS[dD(SAO)]   TOL
   5  -196.40351950525    -658.54622444     262.78116929    0.385D-04 0.189D-13
          Norm of current diis error: 0.32879E-01
          max. resid. norm for Fia-block=  2.502D-03 for orbital      5a         
          max. resid. fock norm         =  9.362D-03 for orbital    588a         
 mo-orthogonalization: Cholesky decomposition
          Delta Eig. =     0.5878199076 eV 
 
                                              current damping :  0.350
 ITERATION  ENERGY          1e-ENERGY        2e-ENERGY     RMS[dD(SAO)]   TOL
   6  -196.40356967953    -658.54020611     262.77510079    0.176D-04 0.176D-13
          Norm of current diis error: 0.12111E-01
          max. resid. norm for Fia-block=  8.876D-04 for orbital     13a         
          max. resid. fock norm         =  3.095D-03 for orbital    589a         
          Delta Eig. =     0.2169253817 eV 
 
                                              current damping :  0.200
 ITERATION  ENERGY          1e-ENERGY        2e-ENERGY     RMS[dD(SAO)]   TOL
   7  -196.40357700480    -658.53765304     262.77254039    0.720D-05 0.165D-13
          Norm of current diis error: 0.36676E-02
          max. resid. norm for Fia-block=  2.648D-04 for orbital     13a         
          max. resid. fock norm         =  7.897D-04 for orbital    589a         
          Delta Eig. =     0.0639851585 eV 
 
                                              current damping :  0.050
 ITERATION  ENERGY          1e-ENERGY        2e-ENERGY     RMS[dD(SAO)]   TOL
   8  -196.40357774513    -658.53703251     262.77191912    0.252D-05 0.154D-13
          Norm of current diis error: 0.85274E-03
          max. resid. norm for Fia-block=  6.016D-05 for orbital     13a         
          max. resid. fock norm         =  1.332D-04 for orbital    589a         
          Delta Eig. =     0.0120274147 eV 
 
                                              current damping :  0.050
 ITERATION  ENERGY          1e-ENERGY        2e-ENERGY     RMS[dD(SAO)]   TOL
   9  -196.40357779241    -658.53663037     262.77151694    0.733D-06 0.144D-13
          Norm of current diis error: 0.14861E-03
          max. resid. norm for Fia-block=  1.291D-05 for orbital     21a         
          max. resid. fock norm         =  1.365D-05 for orbital     21a         
          Delta Eig. =     0.0010320320 eV 
 
                                              current damping :  0.100
 ITERATION  ENERGY          1e-ENERGY        2e-ENERGY     RMS[dD(SAO)]   TOL
  10  -196.40357779421    -658.53666628     262.77155284    0.176D-06 0.139D-13
          Norm of current diis error: 0.37320E-04
          max. resid. norm for Fia-block=  3.356D-06 for orbital     21a         
          max. resid. fock norm         =  3.396D-06 for orbital     21a         
 mo-orthogonalization: Cholesky decomposition
          Delta Eig. =     0.0000756831 eV 

 DENSITY CONVERGED !

 
                                              current damping :  0.150
 ITERATION  ENERGY          1e-ENERGY        2e-ENERGY     RMS[dD(SAO)]   TOL
  11  -196.40357779433    -658.53660451     262.77149107    0.459D-07 0.135D-13
          Norm of current diis error: 0.12308E-04
          max. resid. norm for Fia-block=  1.097D-06 for orbital     21a         
          max. resid. fock norm         =  1.547D-06 for orbital    589a         
          Delta Eig. =     0.0001103949 eV 

 DENSITY CONVERGED !

 
                                              current damping :  0.200
 ITERATION  ENERGY          1e-ENERGY        2e-ENERGY     RMS[dD(SAO)]   TOL
  12  -196.40357779433    -658.53662494     262.77151151    0.127D-07 0.133D-13
          Norm of current diis error: 0.30972E-05
          max. resid. norm for Fia-block=  2.818D-07 for orbital     21a         
          max. resid. fock norm         =  2.930D-07 for orbital     21a         
          Delta Eig. =     0.0000104982 eV 

 ENERGY & DENSITY CONVERGED !

 
                                              current damping :  0.250
 ITERATION  ENERGY          1e-ENERGY        2e-ENERGY     RMS[dD(SAO)]   TOL
  13  -196.40357779434    -658.53662069     262.77150726    0.309D-08 0.137D-13
          max. resid. norm for Fia-block=  5.722D-08 for orbital     21a         
          max. resid. fock norm         =  6.020D-08 for orbital     21a         

 convergence criteria satisfied after    13 iterations


                  ------------------------------------------ 
                 |  total energy      =   -196.40357779434  |
                  ------------------------------------------ 
                 :  kinetic energy    =    196.25523810409  :
                 :  potential energy  =   -392.65881589843  :
                 :  virial theorem    =      1.99924472002  :
                 :  wavefunction norm =      1.00000000000  :
                  .......................................... 


 orbitals $scfmo  will be written to file mos

    irrep                 17a         18a         19a         20a         21a   
 eigenvalues H         -0.50941    -0.50870    -0.45282    -0.45218    -0.45174
            eV         -13.8618    -13.8425    -12.3220    -12.3047    -12.2925
 occupation              2.0000      2.0000      2.0000      2.0000      2.0000 

    irrep                 22a         23a         24a         25a         26a   
 eigenvalues H          0.07096     0.11439     0.11747     0.14221     0.17784
            eV           1.9309      3.1127      3.1965      3.8697      4.8393
 
 
 
 
 ==============================================================================
                           electrostatic moments
 ==============================================================================

 reference point for electrostatic moments:    0.00000   0.00000   0.00000

 
              nuc           elec       ->  total
 ------------------------------------------------------------------------------
                          charge      
 ------------------------------------------------------------------------------
          42.000000     -42.000000       0.000000
 
 ------------------------------------------------------------------------------
                       dipole moment  
 ------------------------------------------------------------------------------
   x     -49.472297      49.470405      -0.001892
   y      -2.339008       2.338710      -0.000298
   z     375.597231    -375.594750       0.002480
 
   | dipole moment | =     0.0031 a.u. =     0.0080 debye 
 
 ------------------------------------------------------------------------------
                     quadrupole moment
 ------------------------------------------------------------------------------
  xx     192.265474    -218.873945     -26.608471
  yy     134.087503    -160.713316     -26.625813
  zz    3492.265773   -3518.851076     -26.585303
  xy       2.854956      -2.861037      -0.006081
  xz    -442.108142     442.108739       0.000597
  yz     -20.942986      20.939317      -0.003668
 
     1/3  trace=     -26.606529
     anisotropy=       0.037305
 
 ==============================================================================
 


    ------------------------------------------------------------------------
         total  cpu-time :  1 hours 12 minutes and 47 seconds
         total wall-time :  3 minutes and 37 seconds
    ------------------------------------------------------------------------

   ****  dscf : all done  ****


    2019-04-01 23:10:08.936 

