STARTING dscf ON 32 PROCESSORS!
RUNNING PROGRAM /sopt/TURBOMOLE/7.2.1-official/bin/em64t-unknown-linux-gnu_mpi/dscf_mpi.
PLEASE WAIT UNTIL dscf HAS FINISHED.
Look for the output in slave1.output.
MACHINEFILE is ./hostlist
 this is node-proc. number 1 running on node c-12-11.gp.local
 the total number of node-proc. spawned is  33
  parallel platform: MPP or cluster with fast interconnect

 dscf (c-12-11.gp.local) : TURBOMOLE V7.2 ( 21471 ) 7 Nov 2017 at 16:15:16
 Copyright (C) 2017 TURBOMOLE GmbH, Karlsruhe


    2018-02-12 16:33:13.129 


 SCF run will be profiled !



                             d s c f - program

                   idea & directorship : reinhart ahlrichs
                   program development : marco haeser
                                         michael baer
                           dft version : oliver treutler
           parallelized version : malte v. arnim, gina corongiu, GMD 


                          quantum chemistry group
                          universitaet  karlsruhe
                                  germany




                          References             
                                                 
          TURBOMOLE:                             
              R. Ahlrichs, M. Baer, M. Haeser, H. Horn, and
              C. Koelmel
              Electronic structure calculations on workstation
              computers: the program system TURBOMOLE
              Chem. Phys. Lett. 162: 165 (1989)
          Density Functional:                              
              O. Treutler and R. Ahlrichs                      
              Efficient Molecular Numerical Integration Schemes
              J. Chem. Phys. 102: 346 (1995)                   
          Parallel Version:                                
              Performance of parallel TURBOMOLE for Density    
              Functional Calculations                          
              M. v. Arnim and R. Ahlrichs                      
              J. Comp. Chem. 19: 1746 (1998)                   
                                         




              +--------------------------------------------------+
              | Atomic coordinate, charge and isotop information |
              +--------------------------------------------------+

                    atomic coordinates            atom    charge  isotop
         -0.29620678    6.06902116   14.96060107    n      7.000     0
          0.13396702    6.36741847  -14.56819755    n      7.000     0
         -0.02222308   -5.66218014   17.61321468    c      6.000     0
          1.67261956   -6.52157006   18.41468211    h      1.000     0
         -1.68000536   -6.51987666   18.49061991    h      1.000     0
         -0.02915002   -2.81327148   17.86104810    c      6.000     0
          2.15939286   -1.43011483   17.30535209    c      6.000     0
          3.91762145   -2.40038535   16.87343448    h      1.000     0
          2.11076263    1.19510437   17.32691632    c      6.000     0
          3.83156279    2.23693670   16.91123023    h      1.000     0
         -0.12719271    2.48682764   17.90514801    c      6.000     0
         -2.28289651    1.10992772   18.55748387    c      6.000     0
         -4.00568142    2.08290656   19.10851632    h      1.000     0
         -2.23416227   -1.52806191   18.53532632    c      6.000     0
         -3.91971482   -2.57318311   19.06917457    h      1.000     0
         -0.22561361    5.33768700   17.70523289    c      6.000     0
         -1.91281628    6.11870819   18.59804319    h      1.000     0
          1.43734949    6.24523558   18.52017498    h      1.000     0
          1.83129052    6.84842876   13.76192248    c      6.000     0
          3.46270375    7.19952785   14.94860293    h      1.000     0
          1.87370791    7.17222528   11.17909969    c      6.000     0
          3.60795474    7.83990178   10.31983251    h      1.000     0
         -0.29578804    6.69171534    9.70524113    c      6.000     0
         -2.49946148    6.00088061   11.04151196    c      6.000     0
         -4.25601861    5.63230822   10.05680467    h      1.000     0
         -2.45153000    5.69144045   13.62014300    c      6.000     0
         -4.08753108    5.09537940   14.69681189    h      1.000     0
         -0.25989399    6.84692861    6.94484804    c      6.000     0
          2.00966478    6.49477441    5.60478259    c      6.000     0
          3.74913935    6.08471727    6.60850509    h      1.000     0
          2.04113715    6.53816245    2.98842792    c      6.000     0
          3.80534517    6.17217645    2.01133389    h      1.000     0
         -0.18002197    6.96618612    1.59365694    c      6.000     0
         -2.44221094    7.35423208    2.93835066    c      6.000     0
         -4.17175406    7.78852966    1.92680421    h      1.000     0
         -2.48674599    7.28436030    5.55542942    c      6.000     0
         -4.25352690    7.66771563    6.52483528    h      1.000     0
         -0.13396511    7.00483232   -1.19192776    c      6.000     0
          2.06636669    7.69549088   -2.51789760    c      6.000     0
          3.72799199    8.31751536   -1.49040963    h      1.000     0
          2.12612028    7.68507910   -5.13529321    c      6.000     0
          3.83654661    8.29884751   -6.08656851    h      1.000     0
         -0.02765862    7.01064775   -6.54506335    c      6.000     0
         -2.24077662    6.36261246   -5.22057047    c      6.000     0
         -3.91698994    5.76809086   -6.23983008    h      1.000     0
         -2.28680197    6.34747857   -2.60400156    c      6.000     0
         -3.99411369    5.74305211   -1.64616689    h      1.000     0
          0.03784852    6.91372358   -9.30716396    c      6.000     0
          2.31723203    6.54270264  -10.64164833    c      6.000     0
          4.10310713    6.38696636   -9.65414335    h      1.000     0
          2.31721760    6.26505979  -13.22440905    c      6.000     0
          4.02194122    5.90986074  -14.30065812    h      1.000     0
         -2.08027291    6.84935910  -13.36917885    c      6.000     0
         -3.73966644    7.00048443  -14.55903782    h      1.000     0
         -2.17127769    7.13325863  -10.78452123    c      6.000     0
         -3.97876544    7.56063226   -9.92344393    h      1.000     0
          0.42699944   -6.10847053  -14.67286391    n      7.000     0
         -0.06413079   -6.34847902   14.85635337    n      7.000     0
          0.15324266    5.65529239  -17.31760415    c      6.000     0
         -1.53578702    6.48388321  -18.16215656    h      1.000     0
          1.81710518    6.52863061  -18.16714513    h      1.000     0
          0.19947363    2.80485433  -17.54746499    c      6.000     0
         -2.02813933    1.40997728  -17.23564519    c      6.000     0
         -3.82918017    2.37003770  -17.00565680    h      1.000     0
         -1.96448403   -1.21717488  -17.25760301    c      6.000     0
         -3.71698896   -2.26674199  -17.04435531    h      1.000     0
          0.32800040   -2.49716765  -17.59160042    c      6.000     0
          2.53652646   -1.10632579  -17.99572129    c      6.000     0
          4.31308531   -2.06847787  -18.36482566    h      1.000     0
          2.47258708    1.52953997  -17.97414987    c      6.000     0
          4.20028580    2.58250125  -18.32722381    h      1.000     0
          0.41976851   -5.34998165  -17.40979217    c      6.000     0
          2.12659862   -6.12691495  -18.26758053    h      1.000     0
         -1.22445222   -6.24532188  -18.27438674    h      1.000     0
         -1.76712970   -6.70434611  -13.48795854    c      6.000     0
         -3.41571473   -6.90800458  -14.68487913    h      1.000     0
         -1.85157834   -7.03272617  -10.90839914    c      6.000     0
         -3.64111615   -7.55101743  -10.05977502    h      1.000     0
          0.34290717   -6.74202741   -9.42162289    c      6.000     0
          2.60721910   -6.25262577  -10.74338488    c      6.000     0
          4.38247699   -6.03640064   -9.74816084    h      1.000     0
          2.60091458   -5.93366724  -13.32140337    c      6.000     0
          4.29097858   -5.48782425  -14.38701812    h      1.000     0
          0.27526242   -6.88564383   -6.66159104    c      6.000     0
         -1.96667409   -6.35358970   -5.33383957    c      6.000     0
         -3.66349939   -5.81336562   -6.34915140    h      1.000     0
         -2.02016460   -6.38394016   -2.71742218    c      6.000     0
         -3.75434607   -5.86869476   -1.75557504    h      1.000     0
          0.15505998   -6.97298819   -1.30963398    c      6.000     0
          2.38620302   -7.54766640   -2.63950810    c      6.000     0
          4.06979574   -8.11583375   -1.61661705    h      1.000     0
          2.45199062   -7.49157908   -5.25612461    c      6.000     0
          4.18901533   -8.01707590   -6.21211256    h      1.000     0
          0.10117091   -6.98486753    1.47612795    c      6.000     0
         -2.14343478   -7.49928972    2.80770361    c      6.000     0
         -3.84982624   -7.99243121    1.78380674    h      1.000     0
         -2.19502782   -7.48077987    5.42579526    c      6.000     0
         -3.94386071   -7.96194593    6.38415247    h      1.000     0
          0.00819281   -6.97061928    6.82783070    c      6.000     0
          2.26120568   -6.48951519    5.50013273    c      6.000     0
          3.97792158   -6.01829863    6.51610017    h      1.000     0
          2.29826769   -6.48140150    2.88360759    c      6.000     0
          4.04482171   -6.01532142    1.91743554    h      1.000     0
         -0.03648796   -6.87107329    9.59072442    c      6.000     0
         -2.26705659   -6.29543089   10.93677481    c      6.000     0
         -4.03636849   -5.97932016    9.95654245    h      1.000     0
         -2.23245297   -6.03265279   13.52091309    c      6.000     0
         -3.89136898   -5.52266103   14.60674949    h      1.000     0
          2.09326764   -7.02037532   13.64603158    c      6.000     0
          3.73669635   -7.32853284   14.82806548    h      1.000     0
          2.14978573   -7.29296845   11.05764190    c      6.000     0
          3.90923066   -7.87535134   10.18739597    h      1.000     0
          0.06516788    0.04206372   -3.95980038    c      6.000     0
         -0.15965863    0.01591327   -1.20830832    c      6.000     0
         -2.17088749    0.00308335   -5.46184241    c      6.000     0
          1.66741497    0.01568181    3.05310968    c      6.000     0
         -0.82042858   -0.04088871    4.14885968    c      6.000     0
         -2.64782368   -0.04309042   -0.09720690    c      6.000     0
         -2.91660748   -0.06839276    2.52538836    c      6.000     0
          1.92109393    0.04324275    0.40572280    c      6.000     0
         -1.97495884    0.02510143   -8.12201863    c      6.000     0
          2.41232968    0.10414813   -5.21746088    c      6.000     0
          3.79792700    0.04055789    4.69417651    c      6.000     0
         -1.06238989   -0.06871054    6.82834789    c      6.000     0
         -4.83380415   -0.07787301   -1.70690100    c      6.000     0
         -4.60706935   -0.05763725   -4.26413561    c      6.000     0
          2.56417379    0.12624233   -7.83370976    c      6.000     0
          0.35591975    0.08584843   -9.30458090    c      6.000     0
          1.03867920   -0.04361768    8.35411334    c      6.000     0
          3.49495139    0.01120853    7.27538433    c      6.000     0
          3.82397366    0.08548265   -0.36159971    h      1.000     0
          4.15173799    0.13649263   -4.13324592    h      1.000     0
         -4.80885819   -0.11250934    3.32820749    h      1.000     0
         -6.68876444   -0.12287835   -0.82554066    h      1.000     0
         -6.28058529   -0.08813984   -5.45575289    h      1.000     0
         -3.70413873   -0.00824893   -9.23284523    h      1.000     0
          5.68068792    0.08254973    3.87263669    h      1.000     0
         -2.94932636   -0.11066661    7.64217141    h      1.000     0
          4.40577015    0.17463630   -8.74005550    h      1.000     0
          5.14231722    0.02979874    8.50039452    h      1.000     0
          0.83243878   -0.06566648   10.39832945    h      1.000     0
          0.47577365    0.10204617  -11.35478197    h      1.000     0
 
       center of nuclear mass  :   -0.01940218   -0.00006905   -0.00487028
       center of nuclear charge:   -0.01666999   -0.00006289   -0.00409636

              +--------------------------------------------------+
              |               basis set information              |
              +--------------------------------------------------+

              we will work with the 1s 3p 5d 7f 9g ... basis set
              ...i.e. with spherical basis functions...

   type   atoms  prim   cont   basis
   ---------------------------------------------------------------------------
    n        4     50     30   cc-pVTZ   [4s3p2d1f|18s5p2d1f]
    c       78     50     30   cc-pVTZ   [4s3p2d1f|18s5p2d1f]
    h       60     16     14   cc-pVTZ   [3s2p1d|5s2p1d]
   ---------------------------------------------------------------------------
   total:  142   5060   3300
   ---------------------------------------------------------------------------

   total number of primitive shells          :   60
   total number of contracted shells         : 1180
   total number of cartesian basis functions : 3770
   total number of SCF-basis functions       : 3300


 integral neglect threshold       :  0.88E-14
 integral storage threshold THIZE :  0.10E-04
 integral storage threshold THIME :         5


 DENSITY CONVERGENCE CHECK SWITCHED ON !
 SCF CONVERGENCE IF RMS(delta[D]) <     0.1000000000E-06


 symmetry group of the molecule :   c1 

 the group has the following generators :
   c1(z)

    1 symmetry operations found

 there are 1 real representations :   a   

 maximum number of shells which are related by symmetry :  1


    mo occupation :
   irrep   mo's   occupied
    a     3300      276
 
 number of basis functions   :                   3300
 number of occupied orbitals :                    276
 

 automatic virtual orbital shift switched on 
      shift if e(lumo)-e(homo) < 0.10000000    


   ----> a dscf RESTART run will be tried ! <----

 $restart flag 'dscf' will be switched off !


 keyword $2e-ints_shell_statistics missing in file <control>

 ! One task per shell generated
  No pre-computed optimal task distribution found
  ... using automatic task generation

          ------------------------
          nuclear repulsion energy  :   13314.5250629    
          ------------------------


         -----------------
         -S,T+V- integrals
         -----------------

 1e-integrals will be neglected if expon. factor < 0.886462E-15
 
   Difference densities algorithm switched on.
   The maximal number of linear combinations of
   difference densities is                    20 .

 DIIS switched on: error vector is FDS-SDF
 Max. Iterations for DIIS is     :   5
 DIIS matrix (see manual) 
    Scaling factor of diagonals  :  1.200
    threshold for scaling factor :  0.000

 scf convergence criterion : increment of total energy < .1000000D-08
                  and increment of one-electron energy < .1000000D-05

  MOs are in ASCII format !


 reading orbital data $scfmo  from file mos
 orbital characterization : scfdump=10

 DSCF restart information will be dumped onto file mos


 complete restart information read in from $restartd
 iterations from earlier run will be continued
no density matrices from previous iterations found
  expected :                     10  found :                      0
 
                                              current damping :  0.450
 ITERATION  ENERGY          1e-ENERGY        2e-ENERGY     RMS[dD(SAO)]   TOL
  11  -3206.4418285769    -30728.271013     14207.304121    0.619D-02 0.884D-14
          max. resid. norm for Fia-block=  2.954D-04 for orbital    274a         
          max. resid. fock norm         =  2.429D-03 for orbital   3198a         
          Delta Eig. =     0.1186140493 eV 
 
                                              current damping :  0.500
 ITERATION  ENERGY          1e-ENERGY        2e-ENERGY     RMS[dD(SAO)]   TOL
  12  -3206.4418316236    -30728.283408     14207.316514    0.459D-05 0.561D-14
          Norm of current diis error: 0.33663E-02
          max. resid. norm for Fia-block=  1.358D-04 for orbital    262a         
          max. resid. fock norm         =  7.459D-04 for orbital   3198a         
          Delta Eig. =     0.0346973860 eV 
 
                                              current damping :  0.550
 ITERATION  ENERGY          1e-ENERGY        2e-ENERGY     RMS[dD(SAO)]   TOL
  13  -3206.4418324227    -30728.278402     14207.311507    0.174D-05 0.437D-14
          Norm of current diis error: 0.17611E-02
          max. resid. norm for Fia-block=  7.367D-05 for orbital    262a         
          max. resid. fock norm         =  2.464D-04 for orbital   3198a         
          Delta Eig. =     0.0117941677 eV 
 
                                              current damping :  0.600
 ITERATION  ENERGY          1e-ENERGY        2e-ENERGY     RMS[dD(SAO)]   TOL
  14  -3206.4418327280    -30728.279987     14207.313092    0.667D-06 0.373D-14
          Norm of current diis error: 0.10735E-02
          max. resid. norm for Fia-block=  5.718D-05 for orbital    262a         
          max. resid. fock norm         =  8.657D-05 for orbital   3198a         
          Delta Eig. =     0.0038642019 eV 
 
                                              current damping :  0.650
 ITERATION  ENERGY          1e-ENERGY        2e-ENERGY     RMS[dD(SAO)]   TOL
  15  -3206.4418328773    -30728.278953     14207.312057    0.283D-06 0.330D-14
          Norm of current diis error: 0.72496E-03
          max. resid. norm for Fia-block=  4.587D-05 for orbital    262a         
          max. resid. fock norm         =  4.816D-05 for orbital    278a         
 mo-orthogonalization: Cholesky decomposition
          Delta Eig. =     0.0015709275 eV 
 
                                              current damping :  0.500
 ITERATION  ENERGY          1e-ENERGY        2e-ENERGY     RMS[dD(SAO)]   TOL
  16  -3206.4418329623    -30728.278791     14207.311895    0.168D-06 0.296D-14
          Norm of current diis error: 0.45877E-03
          max. resid. norm for Fia-block=  3.797D-05 for orbital    262a         
          max. resid. fock norm         =  3.831D-05 for orbital    278a         
          Delta Eig. =     0.0006409191 eV 
 
                                              current damping :  0.350
 ITERATION  ENERGY          1e-ENERGY        2e-ENERGY     RMS[dD(SAO)]   TOL
  17  -3206.4418330061    -30728.278240     14207.311344    0.130D-06 0.270D-14
          Norm of current diis error: 0.24550E-03
          max. resid. norm for Fia-block=  2.211D-05 for orbital    262a         
          max. resid. fock norm         =  2.333D-05 for orbital    278a         
          Delta Eig. =     0.0004034800 eV 

 DENSITY CONVERGED !

 
                                              current damping :  0.200
 ITERATION  ENERGY          1e-ENERGY        2e-ENERGY     RMS[dD(SAO)]   TOL
  18  -3206.4418330202    -30728.278149     14207.311253    0.859D-07 0.252D-14
          Norm of current diis error: 0.10133E-03
          max. resid. norm for Fia-block=  9.873D-06 for orbital    262a         
          max. resid. fock norm         =  9.971D-06 for orbital    262a         
          Delta Eig. =     0.0001473855 eV 

 DENSITY CONVERGED !

 
                                              current damping :  0.100
 ITERATION  ENERGY          1e-ENERGY        2e-ENERGY     RMS[dD(SAO)]   TOL
  19  -3206.4418330227    -30728.277937     14207.311041    0.404D-07 0.242D-14
          Norm of current diis error: 0.38483E-04
          max. resid. norm for Fia-block=  2.557D-06 for orbital    268a         
          max. resid. fock norm         =  2.815D-06 for orbital    278a         
          Delta Eig. =     0.0000995470 eV 

 DENSITY CONVERGED !

 
                                              current damping :  0.150
 ITERATION  ENERGY          1e-ENERGY        2e-ENERGY     RMS[dD(SAO)]   TOL
  20  -3206.4418330234    -30728.277962     14207.311066    0.136D-07 0.237D-14
          Norm of current diis error: 0.16665E-04
          max. resid. norm for Fia-block=  9.068D-07 for orbital    275a         
          max. resid. fock norm         =  9.639D-07 for orbital    275a         
 mo-orthogonalization: Cholesky decomposition
          Delta Eig. =     0.0000277366 eV 

 DENSITY CONVERGED !

 
                                              current damping :  0.200
 ITERATION  ENERGY          1e-ENERGY        2e-ENERGY     RMS[dD(SAO)]   TOL
  21  -3206.4418330233    -30728.277935     14207.311039    0.395D-08 0.252D-14
          Norm of current diis error: 0.84026E-05
          max. resid. norm for Fia-block=  6.883D-07 for orbital    276a         
          max. resid. fock norm         =  6.926D-07 for orbital    276a         
          Delta Eig. =     0.0000081186 eV 

 ENERGY & DENSITY CONVERGED !

 
                                              current damping :  0.250
 ITERATION  ENERGY          1e-ENERGY        2e-ENERGY     RMS[dD(SAO)]   TOL
  22  -3206.4418330235    -30728.277937     14207.311041    0.204D-08 0.253D-14
          max. resid. norm for Fia-block=  3.768D-07 for orbital    276a         
          max. resid. fock norm         =  3.788D-07 for orbital    276a         

 convergence criteria satisfied after    22 iterations


                  ------------------------------------------ 
                 |  total energy      =  -3206.44183302350  |
                  ------------------------------------------ 
                 :  kinetic energy    =   3201.33541656205  :
                 :  potential energy  =  -6407.77724958555  :
                 :  virial theorem    =      1.99840745077  :
                 :  wavefunction norm =      1.00000000000  :
                  .......................................... 


 <geterg> : there is no data group $energy 


 <skperg> : $end is missing 


 orbitals $scfmo  will be written to file mos

    irrep                272a        273a        274a        275a        276a   
 eigenvalues H         -0.59840    -0.57334    -0.57067    -0.55901    -0.53275
            eV         -16.2834    -15.6015    -15.5288    -15.2117    -14.4971
 occupation              2.0000      2.0000      2.0000      2.0000      2.0000 

    irrep                277a        278a        279a        280a        281a   
 eigenvalues H         -0.26837    -0.26539    -0.24568    -0.24318    -0.22117
            eV          -7.3028     -7.2216     -6.6852     -6.6172     -6.0185
 
 
 
 
 ==============================================================================
                           electrostatic moments
 ==============================================================================

 reference point for electrostatic moments:    0.00000   0.00000   0.00000

 
              nuc           elec       ->  total
 ------------------------------------------------------------------------------
                          charge      
 ------------------------------------------------------------------------------
         556.000000    -552.000000       4.000000
 
 ------------------------------------------------------------------------------
                       dipole moment  
 ------------------------------------------------------------------------------
   x      -9.268513       9.427758       0.159245
   y      -0.034965       0.020010      -0.014955
   z      -2.277578       2.963262       0.685684
 
   | dipole moment | =     0.7041 a.u. =     1.7896 debye 
 
 ------------------------------------------------------------------------------
                     quadrupole moment
 ------------------------------------------------------------------------------
  xx    2775.616046   -3048.824189    -273.208143
  yy   16221.817261  -16416.432216    -194.614955
  zz   67622.261395  -67205.622580     416.638815
  xy    -274.131860     272.618923      -1.512937
  xz    -480.295137     468.693423     -11.601714
  yz    -465.123509     459.446038      -5.677470
 
     1/3  trace=     -17.061428
     anisotropy=     654.488969
 
 ==============================================================================
 

    dscf profiling
  --------------------------------------------------------------------
             module   cpu total (s)       %  wall total (s)       %

          dscf.total          8017.1  100.00          7223.0  100.00
        dscf.prepare            29.2    0.36            29.3    0.41
      prepare.oneint             0.4    0.00             0.4    0.01
     prepare.moinput             8.6    0.11             8.6    0.12
     moinput_orthmos            20.0    0.25            20.1    0.28
            dscf.scf          7985.1   99.60          7190.9   99.56
             scf.pre             2.0    0.03             2.0    0.03
        scf.makedmat            15.7    0.20            16.5    0.23
          scf.shloop          6574.7   82.01          6576.1   91.04
          shloop_omp          6573.4   81.99          6574.9   91.03
          scf.symcar             1.7    0.02             1.7    0.02
        scf.makefock             2.9    0.04             3.3    0.05
          scf.newerg             0.2    0.00             0.2    0.00
          scf.newcnv           229.5    2.86            29.0    0.40
           scf.fdiag           635.4    7.93            79.6    1.10
         diag_tritrn           177.7    2.22            22.3    0.31
          diag_rdiag           451.7    5.63            56.5    0.78
          scf.modump           430.2    5.37           420.2    5.82
           ortho_all            51.6    0.64            23.0    0.32
            scf.post            40.4    0.50            39.1    0.54
        dscf.postscf             2.8    0.03             2.8    0.04
 


    ------------------------------------------------------------------------
         total  cpu-time :  2 hours 13 minutes and 37 seconds
         total wall-time :  2 hours  0 minutes and 23 seconds
    ------------------------------------------------------------------------

   ****  dscf : all done  ****


    2018-02-12 18:33:36.218 

