 this is node-proc. number 0 running on node c-12-11.gp.local
 the total number of node-proc. spawned is  33

 dscfserver (c-12-11.gp.local) : TURBOMOLE V7.2 ( 21471 ) 7 Nov 2017 at 16:15:16
 Copyright (C) 2017 TURBOMOLE GmbH, Karlsruhe


    2018-02-12 16:33:13.080 

 
    0:00:32 ---- Start global counter...
    0:20:14 ---- ... finished.
 
    0:21:07 ---- Start global counter...
    0:34:09 ---- ... finished.
 
    0:34:59 ---- Start global counter...
    0:45:13 ---- ... finished.
 
    0:46:03 ---- Start global counter...
    0:55:42 ---- ... finished.
 
    0:56:31 ---- Start global counter...
    1:05:40 ---- ... finished.
 
    1:06:41 ---- Start global counter...
    1:15:04 ---- ... finished.
 
    1:15:53 ---- Start global counter...
    1:23:23 ---- ... finished.
 
    1:24:13 ---- Start global counter...
    1:31:02 ---- ... finished.
 
    1:31:52 ---- Start global counter...
    1:38:00 ---- ... finished.
 
    1:38:51 ---- Start global counter...
    1:44:27 ---- ... finished.
 
    1:45:29 ---- Start global counter...
    1:54:26 ---- ... finished.
 
    1:55:16 ---- Start global counter...
    1:59:38 ---- ... finished.
 
    2:00:23 ---- ByeBye Tag received


 ! Total wall-clock time in seconds  :     7222.8
 ! Time (sec) spent in global counter:     6572.7
 ! So-called SERIAL wall-clock time  :      650.1

  *** Regular termination of server ***
 total turnaround time of dscfserver  7223.10 sec
 cpu elapsed by dscfserver process    6570.92 sec 

   ***  dscf server : all done  ***


    2018-02-12 18:33:36.176 

