
 eiger (gplogin2.gp.local) : TURBOMOLE V7.3 ( 22118 ) 1 Jul 2018 at 20:38:15
 Copyright (C) 2018 TURBOMOLE GmbH, Karlsruhe


    2019-05-14 12:32:24.240 

                                                                                
  
Total energy =   -191.1693300446 H =     -5201.9851076 eV
 
 HOMO-LUMO Separation
   HOMO:    14.    14 a     -0.42541500 H =    -11.57614 eV
   LUMO:    15.    15 a     +0.09916482 H =     +2.69841 eV
   Gap :                    +0.52457982 H =    +14.27455 eV
 
Number of MOs=    345, Electrons=     28.00, Symmetry: c1   
 
   Nr.   Orbital    Occupation       Energy
   31.    31 a                     +0.550053 H =       +14.968 eV
   30.    30 a                     +0.521790 H =       +14.199 eV
   29.    29 a                     +0.515786 H =       +14.035 eV
   28.    28 a                     +0.504993 H =       +13.742 eV
   27.    27 a                     +0.491831 H =       +13.383 eV
   26.    26 a                     +0.469689 H =       +12.781 eV
   25.    25 a                     +0.455786 H =       +12.403 eV
   24.    24 a                     +0.417226 H =       +11.353 eV
   23.    23 a                     +0.317483 H =        +8.639 eV
   22.    22 a                     +0.307678 H =        +8.372 eV
   21.    21 a                     +0.290752 H =        +7.912 eV
   20.    20 a                     +0.223573 H =        +6.084 eV
   19.    19 a                     +0.204728 H =        +5.571 eV
   18.    18 a                     +0.203015 H =        +5.524 eV
   17.    17 a                     +0.157457 H =        +4.285 eV
   16.    16 a                     +0.139429 H =        +3.794 eV
   15.    15 a                     +0.099165 H =        +2.698 eV
   14.    14 a        2.000        -0.425415 H =       -11.576 eV
   13.    13 a        2.000        -0.477635 H =       -12.997 eV
   12.    12 a        2.000        -0.538004 H =       -14.640 eV
   11.    11 a        2.000        -0.571535 H =       -15.552 eV
   10.    10 a        2.000        -0.598255 H =       -16.279 eV
    9.     9 a        2.000        -0.609781 H =       -16.593 eV
    8.     8 a        2.000        -0.676557 H =       -18.410 eV
    7.     7 a        2.000        -0.740242 H =       -20.143 eV
    6.     6 a        2.000        -0.903726 H =       -24.592 eV
    5.     5 a        2.000        -1.330027 H =       -36.192 eV
    4.     4 a        2.000        -1.378643 H =       -37.515 eV
    3.     3 a        2.000       -11.249225 H =      -306.107 eV
    2.     2 a        2.000       -20.523911 H =      -558.484 eV
    1.     1 a        2.000       -20.588471 H =      -560.241 eV


    ------------------------------------------------------------------------
         total  cpu-time :   0.11 seconds
         total wall-time :   0.12 seconds
    ------------------------------------------------------------------------

   ****  eiger : all done  ****


    2019-05-14 12:32:24.339 

