           Doing BLAS/Lapack in the master proc. with  8 CPUs.
           SMPCPUS    set: Shared-memory Parallelization with   8 CPUs.

           SMP Parallelization Reference:
           C. van Wullen, J. Comput. Chem. 32 (2011) 1195--1201
 operating system is UNIX !

 ridft (c-18-264.gp.local) : TURBOMOLE V7.2 ( 21454 ) 4 Oct 2017 at 12:48:15
 Copyright (C) 2017 TURBOMOLE GmbH, Karlsruhe


    2018-04-28 20:54:32.840 



                                  r i d f t

                        DFT program with RI approximation 
                                for coulomb part 




                                                 
                                 References:     
                                                 
          TURBOMOLE:                             
              R. Ahlrichs, M. Baer, M. Haeser, H. Horn, and
              C. Koelmel
              Electronic structure calculations on workstation
              computers: the program system TURBOMOLE
              Chem. Phys. Lett. 162: 165 (1989)
          Density Functional:                              
              O. Treutler and R. Ahlrichs                      
              Efficient Molecular Numerical Integration Schemes
              J. Chem. Phys. 102: 346 (1995)                   
          Parallel Version:                                
              Performance of parallel TURBOMOLE for Density    
              Functional Calculations                          
              M. v. Arnim and R. Ahlrichs                      
              J. Comp. Chem. 19: 1746 (1998)                   
          RI-J Method:                                     
              Auxiliary Basis Sets to approximate Coulomb      
              Potentials                                       
              Chem. Phys. Lett. 240: 283 (1995)                
              K. Eichkorn, O. Treutler, H. Oehm, M. Haeser     
              and R. Ahlrichs                                  
              Chem. Phys. Lett. 242: 652 (1995)                
                                                           
              Auxiliary Basis Sets for Main Row Atoms and their
              Use to approximate Coulomb Potentials            
              K. Eichkorn, F. Weigend, O. Treutler and         
              R. Ahlrichs                                      
              Theo. Chem. Acc. 97: 119 (1997)                   
                                                           
              Accurate Coulomb-fitting basis sets for H to Rn 
              F. Weigend                                        
              Phys. Chem. Chem. Phys. 8: 1057 (2006)            
                                                           
          Multipole accelerated RI-J (MARI-J):             
              Fast evaluation of the Coulomb potential for     
              electron densities using multipole accelerated   
              resolution of identity approximation             
              M. Sierka, A. Hogekamp and R. Ahlrichs           
              J. Chem. Phys. 118: 9136 (2003)                  
          RI-JK Method:                                     
              A fully direct RI-HF algorithm: Implementation,
              optimised auxiliary basis sets, demonstration of
              accuracy and efficiency                         
              F. Weigend                                      
              Phys. Chem. Chem. Phys. 4: 4285 (2002)           
          Two-component HF and DFT with spin-orbit coupling:  
              Self-consistent treatment of spin-orbit         
              interactions with efficient Hartree-Fock and    
              density functional methods                      
              M. K. Armbruster, F. Weigend, C. van Wüllen and 
              W. Klopper                                      
              Phys. Chem. Chem. Phys. 10: 1748 (2008)         
          Relativistic all-electron 2c calculations           
              An efficient implementation of two-component    
              relativistic exact-decoupling methods for large 
              molecules                                       
              D. Peng, N. Middendorf, F. Weigend, M. Reiher   
              J. Chem. Phys. 138, 184105 (2013)               
                                         




              +--------------------------------------------------+
              |      general information about current run       |
              +--------------------------------------------------+

 

 DENSITY CONVERGENCE CHECK SWITCHED ON !
 SCF CONVERGENCE IF RMS(delta[D]) <     0.1000000000E-06

 PBE functional
 exchange:    LDA + PBE
 correlation: LDA (PW) + PBE
 A DFT calculation using the RI-J approximation will be carried out.
 Allocatable memory for RI due to $ricore (MB):                  5000


              +--------------------------------------------------+
              | Atomic coordinate, charge and isotop information |
              +--------------------------------------------------+

                    atomic coordinates            atom    charge  isotop
          4.46735224    0.18259041    0.00027741    n      7.000     0
          5.78242520    0.11839492    2.16353733    c      6.000     0
          4.67755420    0.16301313    3.88482845    h      1.000     0
          8.40729938   -0.00478203    2.25801620    c      6.000     0
          9.36332389   -0.05174958    4.06143688    h      1.000     0
          9.75120296   -0.06738072   -0.00003862    c      6.000     0
         11.79180474   -0.16521855   -0.00019060    h      1.000     0
          8.40702508   -0.00490799   -2.25788585    c      6.000     0
          9.36284279   -0.05191120   -4.06143783    h      1.000     0
          5.78213876    0.11829269   -2.16312315    c      6.000     0
          4.67708572    0.16289146   -3.88427164    h      1.000     0
 
       center of nuclear mass  :    7.08891531    0.05729481    0.00013060
       center of nuclear charge:    7.14106251    0.05459189    0.00012721

              +--------------------------------------------------+
              |               basis set information              |
              +--------------------------------------------------+

              we will work with the 1s 3p 5d 7f 9g ... basis set
              ...i.e. with spherical basis functions...

   type   atoms  prim   cont   basis
   ---------------------------------------------------------------------------
    n        1     77     55   cc-pVQZ   [5s4p3d2f1g|21s6p3d2f1g]
    c        5     77     55   cc-pVQZ   [5s4p3d2f1g|21s6p3d2f1g]
    h        5     32     30   cc-pVQZ   [4s3p2d1f|6s3p2d1f]
   ---------------------------------------------------------------------------
   total:   11    622    480
   ---------------------------------------------------------------------------

   total number of primitive shells          :   78
   total number of contracted shells         :  140
   total number of cartesian basis functions :  595
   total number of SCF-basis functions       :  480


 integral neglect threshold       :  0.56E-13
 integral storage threshold THIZE :  0.10E-04
 integral storage threshold THIME :         5

 RI-J AUXILIARY BASIS SET information:

              we will work with the 1s 3p 5d 7f 9g ... basis set
              ...i.e. with spherical basis functions...

   type   atoms  prim   cont   basis
   ---------------------------------------------------------------------------
    n        1     70     49   cc-pVQZ   [6s4p3d1f1g|12s5p4d2f1g]
    c        5     70     49   cc-pVQZ   [6s4p3d1f1g|12s5p4d2f1g]
    h        5     16     11   cc-pVQZ   [3s1p1d|5s2p1d]
   ---------------------------------------------------------------------------
   total:   11    500    349
   ---------------------------------------------------------------------------

   total number of primitive shells          :   56
   total number of contracted shells         :  115
   total number of cartesian basis functions :  426
   total number of SCF-basis functions       :  349


 symmetry group of the molecule :   c1 

 the group has the following generators :
   c1(z)

    1 symmetry operations found

 there are 1 real representations :   a   

 maximum number of shells which are related by symmetry :  1


    mo occupation :
   irrep   mo's   occupied
    a      480       21
 
 number of basis functions   :                    480
 number of occupied orbitals :                     21
 
  
           ------------------
           density functional
           ------------------
 PBE functional
 exchange:    LDA + PBE
 correlation: LDA (PW) + PBE

 iterations will be done with small grid
  
 spherical integration : Lebedev's spherical grid
 spherical gridsize    :                     5
    i.e. gridpoints    :                   590
 value for diffuse not defined
 radial integration    : Chebyshev 2nd kind (scaling 3)
 radial gridsize       :                     8
 integration cells     :                    11
 partition function    : becke
 partition sharpness   :                     3
  

 biggest AO integral is expected to be     4.161848376
  
           ------------------------
               RI-J - INFORMATION
           ------------------------
 Contributions to RI integral batches: 
  neglected integral batches:                   878
  direct contribution:                            0
  memory contribution:                  8992
 Memory core needed for (P|Q) and Cholesky      1 MByte
 Memory core minimum needed except of (P|Q)     2 MByte
 Total minimum memory core needed (sum)         3 MByte
  
 ****************************************
 Memory allocated for RI-J   538 MByte
 ****************************************
                                            

          ------------------------
          nuclear repulsion energy  :   206.285463432    
          ------------------------


         -----------------
         -S,T+V- integrals
         -----------------

 1e-integrals will be neglected if expon. factor < 0.561674E-14
 Difference densities >>NOT<< switched on in parallel ridft!

 DIIS switched on: error vector is FDS-SDF
 Max. Iterations for DIIS is     :   4
 DIIS matrix (see manual) 
    Scaling factor of diagonals  :  1.200
    threshold for scaling factor :  0.000

 scf convergence criterion : increment of total energy < .1000000D-08
                  and increment of one-electron energy < .1000000D-05

  MOs are in ASCII format !


 automatic virtual orbital shift switched on 
      shift if e(lumo)-e(homo) < 0.10000000    


 reading orbital data $scfmo  from file mos
 orbital characterization : expanded
 mo provided and orthogonalized by Cholesky decomposition

 DSCF restart information will be dumped onto file mos


 Starting SCF iterations

          Overall gridpoints after grid construction =         54796

 ITERATION  ENERGY          1e-ENERGY        2e-ENERGY     RMS[dD(SAO)]   TOL
   1  -247.09602463409    -733.04753298     279.66604491    0.000D+00 0.560D-13
                            Exc = -34.7584497308     Coul =  314.424494645    
                              N = 42.000035813    
                            current damping = 0.700
 
          max. resid. norm for Fia-block=  2.954D-01 for orbital     15a         
          max. resid. fock norm         =  8.762D+00 for orbital    444a         

 ITERATION  ENERGY          1e-ENERGY        2e-ENERGY     RMS[dD(SAO)]   TOL
   2  -247.88680939731    -739.45981402     285.28754119    0.587D-02 0.560D-13
                            Exc = -35.2824773114     Coul =  320.570018503    
                              N = 42.000026997    
                            current damping = 0.650
 
          Norm of current diis error:  2.7331    
          max. resid. norm for Fia-block=  1.371D-01 for orbital      1a         
          max. resid. fock norm         =  1.989D-01 for orbital    465a         

 ITERATION  ENERGY          1e-ENERGY        2e-ENERGY     RMS[dD(SAO)]   TOL
   3  -248.01865452589    -741.03694999     286.73283203    0.257D-02 0.560D-13
                            Exc = -35.4715940242     Coul =  322.204426055    
                              N = 42.000021122    
                            current damping = 0.550
 
          Norm of current diis error:  1.3423    
          max. resid. norm for Fia-block=  5.547D-02 for orbital     21a         
          max. resid. fock norm         =  6.082D-02 for orbital      7a         

 ITERATION  ENERGY          1e-ENERGY        2e-ENERGY     RMS[dD(SAO)]   TOL
   4  -248.06183958411    -741.69754050     287.35023749    0.153D-02 0.560D-13
                            Exc = -35.5290519429     Coul =  322.879289429    
                              N = 42.000019689    
                            current damping = 0.450
 
          Norm of current diis error: 0.53111    
          max. resid. norm for Fia-block=  2.772D-02 for orbital      7a         
          max. resid. fock norm         =  4.932D-02 for orbital    454a         

 ITERATION  ENERGY          1e-ENERGY        2e-ENERGY     RMS[dD(SAO)]   TOL
   5  -248.06726984647    -742.39914593     288.04641265    0.638D-03 0.560D-13
                            Exc = -35.6034465967     Coul =  323.649859248    
                              N = 42.000018243    
                            current damping = 0.350
 
          Norm of current diis error: 0.32624    
          max. resid. norm for Fia-block=  1.357D-02 for orbital     21a         
          max. resid. fock norm         =  1.439D-02 for orbital     21a         
          mo-orthogonalization: Cholesky decomposition

 ITERATION  ENERGY          1e-ENERGY        2e-ENERGY     RMS[dD(SAO)]   TOL
   6  -248.06997535380    -742.21973796     287.86429917    0.598D-03 0.560D-13
                            Exc = -35.5894683002     Coul =  323.453767471    
                              N = 42.000018119    
                            current damping = 0.400
 
          Norm of current diis error: 0.12634    
          max. resid. norm for Fia-block=  3.307D-03 for orbital     20a         
          max. resid. fock norm         =  6.747D-03 for orbital    455a         

 ITERATION  ENERGY          1e-ENERGY        2e-ENERGY     RMS[dD(SAO)]   TOL
   7  -248.07031207905    -742.28736653     287.93159102    0.811D-04 0.560D-13
                            Exc = -35.5953478927     Coul =  323.526938910    
                              N = 42.000017957    
                            current damping = 0.450
 
          Norm of current diis error: 0.53049E-01
          max. resid. norm for Fia-block=  1.502D-03 for orbital     13a         
          max. resid. fock norm         =  2.605D-03 for orbital    475a         

 ITERATION  ENERGY          1e-ENERGY        2e-ENERGY     RMS[dD(SAO)]   TOL
   8  -248.07037339325    -742.32376353     287.96792670    0.265D-04 0.560D-13
                            Exc = -35.5989777527     Coul =  323.566904455    
                              N = 42.000017920    
                            current damping = 0.300
 
          Norm of current diis error: 0.11004E-01
          max. resid. norm for Fia-block=  3.129D-04 for orbital     21a         
          max. resid. fock norm         =  3.508D-04 for orbital    475a         

 ITERATION  ENERGY          1e-ENERGY        2e-ENERGY     RMS[dD(SAO)]   TOL
   9  -248.07037643785    -742.31693118     287.96109131    0.159D-04 0.560D-13
                            Exc = -35.5985562457     Coul =  323.559647552    
                              N = 42.000017901    
                            current damping = 0.350
 
          Norm of current diis error: 0.16004E-02
          max. resid. norm for Fia-block=  6.775D-05 for orbital     13a         
          max. resid. fock norm         =  1.457D-04 for orbital    478a         

 ITERATION  ENERGY          1e-ENERGY        2e-ENERGY     RMS[dD(SAO)]   TOL
  10  -248.07037645347    -742.31864599     287.96280610    0.255D-05 0.560D-13
                            Exc = -35.5986505240     Coul =  323.561456626    
                              N = 42.000017900    
                            current damping = 0.400
 
          Norm of current diis error: 0.14178E-02
          max. resid. norm for Fia-block=  4.600D-05 for orbital     20a         
          max. resid. fock norm         =  7.792D-05 for orbital    476a         
          mo-orthogonalization: Cholesky decomposition

 ITERATION  ENERGY          1e-ENERGY        2e-ENERGY     RMS[dD(SAO)]   TOL
  11  -248.07037648651    -742.31858714     287.96274723    0.748D-06 0.560D-13
                            Exc = -35.5986627122     Coul =  323.561409939    
                              N = 42.000017898    
                            current damping = 0.450
 
          Norm of current diis error: 0.73151E-03
          max. resid. norm for Fia-block=  2.518D-05 for orbital     19a         
          max. resid. fock norm         =  3.537D-05 for orbital    455a         

 ITERATION  ENERGY          1e-ENERGY        2e-ENERGY     RMS[dD(SAO)]   TOL
  12  -248.07037649871    -742.31805837     287.96221844    0.800D-06 0.560D-13
                            Exc = -35.5986217495     Coul =  323.560840188    
                              N = 42.000017897    
                            current damping = 0.300
 
          Norm of current diis error: 0.26057E-03
          max. resid. norm for Fia-block=  7.810D-06 for orbital     19a         
          max. resid. fock norm         =  1.224D-05 for orbital    478a         

 ITERATION  ENERGY          1e-ENERGY        2e-ENERGY     RMS[dD(SAO)]   TOL
  13  -248.07037650022    -742.31804811     287.96220818    0.115D-06 0.560D-13
                            Exc = -35.5986267908     Coul =  323.560834970    
                              N = 42.000017897    
                            current damping = 0.150
 
          Norm of current diis error: 0.67236E-04
          max. resid. norm for Fia-block=  2.217D-06 for orbital     17a         
          max. resid. fock norm         =  2.833D-06 for orbital     17a         

 DENSITY CONVERGED !


 ITERATION  ENERGY          1e-ENERGY        2e-ENERGY     RMS[dD(SAO)]   TOL
  14  -248.07037650028    -742.31819973     287.96235980    0.483D-07 0.560D-13
                            Exc = -35.5986345186     Coul =  323.560994317    
                              N = 42.000017897    
                            current damping = 0.200
 
          Norm of current diis error: 0.37703E-04
          max. resid. norm for Fia-block=  8.686D-07 for orbital     16a         
          max. resid. fock norm         =  1.299D-06 for orbital    479a         

 DENSITY CONVERGED !


 ITERATION  ENERGY          1e-ENERGY        2e-ENERGY     RMS[dD(SAO)]   TOL
  15  -248.07037650031    -742.31814978     287.96230985    0.157D-07 0.560D-13
                            Exc = -35.5986318039     Coul =  323.560941653    
                              N = 42.000017897    
                            current damping = 0.250
 
          Norm of current diis error: 0.11314E-04
          max. resid. norm for Fia-block=  3.812D-07 for orbital     21a         
          max. resid. fock norm         =  5.835D-07 for orbital    392a         
          mo-orthogonalization: Cholesky decomposition

 ENERGY & DENSITY CONVERGED !

          Overall gridpoints after grid construction =        176019

 ITERATION  ENERGY          1e-ENERGY        2e-ENERGY     RMS[dD(SAO)]   TOL
  16  -248.07036882851    -742.31813419     287.96230193    0.121D-07 0.560D-13
                            Exc = -35.5986228912     Coul =  323.560924825    
                              N = 42.000001187    
                            current damping = 0.100
 
          Norm of current diis error: 0.58309E-05
          max. resid. norm for Fia-block=  1.453D-07 for orbital     21a         
          max. resid. fock norm         =  2.243D-07 for orbital    385a         

 End of SCF iterations

   convergence criteria satisfied after    16 iterations


                  ------------------------------------------ 
                 |  total energy      =   -248.07036882851  |
                  ------------------------------------------ 
                 :  kinetic energy    =    246.98983708753  :
                 :  potential energy  =   -495.06020591605  :
                 :  virial theorem    =      1.99564425310  :
                 :  wavefunction norm =      1.00000000000  :
                  .......................................... 


 <geterg> : there is no data group $energy 


 <skperg> : $end is missing 


 orbitals $scfmo  will be written to file mos

    irrep                 17a         18a         19a         20a         21a   
 eigenvalues H         -0.36082    -0.32367    -0.26749    -0.24593    -0.21573
            eV          -9.8185     -8.8075     -7.2788     -6.6921     -5.8703
 occupation              2.0000      2.0000      2.0000      2.0000      2.0000 

    irrep                 22a         23a         24a         25a         26a   
 eigenvalues H         -0.06716    -0.05387     0.01077     0.03622     0.04745
            eV          -1.8275     -1.4660      0.2931      0.9855      1.2913
 
 
 
 
 ==============================================================================
                           electrostatic moments
 ==============================================================================

 reference point for electrostatic moments:    0.00000   0.00000   0.00000

 
              nuc           elec       ->  total
 ------------------------------------------------------------------------------
                          charge      
 ------------------------------------------------------------------------------
          42.000000     -42.000000       0.000000
 
 ------------------------------------------------------------------------------
                       dipole moment  
 ------------------------------------------------------------------------------
   x     299.924625    -299.069327       0.855299
   y       2.292859      -2.335916      -0.043057
   z       0.005343      -0.005401      -0.000058
 
   | dipole moment | =     0.8564 a.u. =     2.1767 debye 
 
 ------------------------------------------------------------------------------
                     quadrupole moment
 ------------------------------------------------------------------------------
  xx    2317.734310   -2332.616696     -14.882386
  yy       0.514737     -28.488914     -27.974177
  zz     180.510093    -202.603080     -22.092987
  xy       8.095936      -8.392620      -0.296684
  xz       0.038916      -0.038877       0.000039
  yz       0.004945      -0.004884       0.000061
 
     1/3  trace=     -21.649850
     anisotropy=      11.368911
 
 ==============================================================================
 


    ------------------------------------------------------------------------
         total  cpu-time :  3 minutes and 35 seconds
         total wall-time :  27.60 seconds
    ------------------------------------------------------------------------

   ****  ridft : all done  ****


    2018-04-28 20:55:00.427 

