Using Slurm to start processes with PMI2
STARTING ridft ON 8 PROCESSORS!
RUNNING PROGRAM /beegfs/modfac/apps/TURBOMOLE/7.0_intel_GA/bin/em64t-unknown-linux-gnu_mpi/ridft_mpi.
PLEASE WAIT UNTIL ridft HAS FINISHED.
Look for the output in slave1.output.
  this is node-proc. number 1 running on node c-14-38.local
  the total number of node-proc. spawned is            8
  parallel platform: MPP, or cluster with fast interconnect

 ridft (c-14-38.local) : TURBOMOLE V7.0.2( ) 15 Jan 2016 at 17:47:42
 Copyright (C) 2016 TURBOMOLE GmbH, Karlsruhe


    2016-06-15 13:02:39.107 



                                  r i d f t

                        DFT program with RI approximation 
                                for coulomb part 




                                                 
                                 References:     
                                                 
          TURBOMOLE:                             
              R. Ahlrichs, M. Baer, M. Haeser, H. Horn, and
              C. Koelmel
              Electronic structure calculations on workstation
              computers: the program system TURBOMOLE
              Chem. Phys. Lett. 162: 165 (1989)
          Density Functional:                              
              O. Treutler and R. Ahlrichs                      
              Efficient Molecular Numerical Integration Schemes
              J. Chem. Phys. 102: 346 (1995)                   
          Parallel Version:                                
              Performance of parallel TURBOMOLE for Density    
              Functional Calculations                          
              M. v. Arnim and R. Ahlrichs                      
              J. Comp. Chem. 19: 1746 (1998)                   
          RI-J Method:                                     
              Auxiliary Basis Sets to approximate Coulomb      
              Potentials                                       
              Chem. Phys. Lett. 240: 283 (1995)                
              K. Eichkorn, O. Treutler, H. Oehm, M. Haeser     
              and R. Ahlrichs                                  
              Chem. Phys. Lett. 242: 652 (1995)                
                                                           
              Auxiliary Basis Sets for Main Row Atoms and their
              Use to approximate Coulomb Potentials            
              K. Eichkorn, F. Weigend, O. Treutler and         
              R. Ahlrichs                                      
              Theo. Chem. Acc. 97: 119 (1997)                   
                                                           
              Accurate Coulomb-fitting basis sets for H to Rn 
              F. Weigend                                        
              Phys. Chem. Chem. Phys. 8: 1057 (2006)            
                                                           
          Multipole accelerated RI-J (MARI-J):             
              Fast evaluation of the Coulomb potential for     
              electron densities using multipole accelerated   
              resolution of identity approximation             
              M. Sierka, A. Hogekamp and R. Ahlrichs           
              J. Chem. Phys. 118: 9136 (2003)                  
          RI-JK Method:                                     
              A fully direct RI-HF algorithm: Implementation,
              optimised auxiliary basis sets, demonstration of
              accuracy and efficiency                         
              F. Weigend                                      
              Phys. Chem. Chem. Phys. 4: 4285 (2002)           
          Two-component HF and DFT with spin-orbit coupling:  
              Self-consistent treatment of spin-orbit         
              interactions with efficient Hartree-Fock and    
              density functional methods                      
              M. K. Armbruster, F. Weigend, C. van Wüllen and 
              W. Klopper                                      
              Phys. Chem. Chem. Phys. 10: 1748 (2008)         
          Relativistic all-electron 2c calculations           
              An efficient implementation of two-component    
              relativistic exact-decoupling methods for large 
              molecules                                       
              D. Peng, N. Middendorf, F. Weigend, M. Reiher   
              J. Chem. Phys. 138, 184105 (2013)               
                                         


 


              +--------------------------------------------------+
              |      general information about current run       |
              +--------------------------------------------------+

 

 SCF run will be profiled !


 DENSITY CONVERGENCE CHECK SWITCHED ON !
 SCF CONVERGENCE IF RMS(delta[D]) <     0.1000000000E-06

 TPSS meta-GGA functional
 exchange:    LDA + TPSS
 correlation: LDA (PW) + TPSS
 A DFT calculation using the RI-J approximation will be carried out.
 Allocatable memory for RI due to $ricore (MB):        5000


              +--------------------------------------------------+
              | Atomic coordinate, charge and isotop information |
              +--------------------------------------------------+

                    atomic coordinates            atom    charge  isotop
         -1.38581176    1.46807154   -2.82759721    c      6.000     0
          2.89485257    1.29342305   -0.81267672    c      6.000     0
          0.62595288   -2.70999956   -1.91491618    c      6.000     0
         -0.84191079    2.73180699    1.71808231    c      6.000     0
         -3.11413639   -1.28771608    0.63795265    c      6.000     0
          1.17752615   -1.47135966    2.64043874    c      6.000     0
          1.12533191    0.02772228   -2.74518626    c      6.000     0
         -2.61914152    1.45421985   -0.19428274    c      6.000     0
          1.67357926    1.27720920    1.82934938    c      6.000     0
         -0.59926995   -2.74278630    0.72348165    c      6.000     0
          2.13935896    0.14352470   -5.25207805    o      8.000     0
          3.63243157   -0.92976415   -5.35489805    h      1.000     0
         -4.41627108    2.48430956   -0.26913480    h      1.000     0
          2.93158884    2.18089514    3.20391727    h      1.000     0
         -0.95646598   -4.70141185    1.29673007    h      1.000     0
         -1.01977181    3.40426604   -3.46645693    h      1.000     0
         -2.62159817    0.58265926   -4.23402589    h      1.000     0
         -0.58857410   -3.62092314   -3.32455739    h      1.000     0
          3.27733314    3.23337811   -1.43252579    h      1.000     0
         -1.71031553    2.79027512    3.59835981    h      1.000     0
         -3.99501333   -1.31560844    2.51429952    h      1.000     0
          0.33873341   -1.52213661    4.53362307    h      1.000     0
         -4.41948361   -2.20145536   -0.68797370    h      1.000     0
         -0.49361536    4.69128292    1.13062315    h      1.000     0
          4.70658970    0.27714723   -0.76813588    h      1.000     0
          2.42612490   -3.74488917   -1.86731398    h      1.000     0
          2.96979910   -2.50948072    2.74584766    h      1.000     0
 
       center of nuclear mass  :    0.14137205    0.01231763   -0.64231811
       center of nuclear charge:    0.12854997    0.00583678   -0.59607586

              +--------------------------------------------------+
              |               basis set information              |
              +--------------------------------------------------+

              we will work with the 1s 3p 5d 7f 9g ... basis set
              ...i.e. with spherical basis functions...

   type   atoms  prim   cont   basis
   ---------------------------------------------------------------------------
    c       10     77     57   def2-QZVP   [7s4p3d2f1g|15s8p3d2f1g]
    o        1     77     57   def2-QZVP   [7s4p3d2f1g|15s8p3d2f1g]
    h       16     33     30   def2-QZVP   [4s3p2d1f|7s3p2d1f]
   ---------------------------------------------------------------------------
   total:   27   1375   1107
   ---------------------------------------------------------------------------

   total number of primitive shells          :   71
   total number of contracted shells         :  347
   total number of cartesian basis functions : 1352
   total number of SCF-basis functions       : 1107


 integral neglect threshold       :  0.25E-13
 integral storage threshold THIZE :  0.10E-04
 integral storage threshold THIME :         5

 RI-J AUXILIARY BASIS SET information:

              we will work with the 1s 3p 5d 7f 9g ... basis set
              ...i.e. with spherical basis functions...

   type   atoms  prim   cont   basis
   ---------------------------------------------------------------------------
    c       10     70     49   def2-QZVP   [6s4p3d1f1g|12s5p4d2f1g]
    o        1     70     49   def2-QZVP   [6s4p3d1f1g|12s5p4d2f1g]
    h       16     16     11   def2-QZVP   [3s1p1d|5s2p1d]
   ---------------------------------------------------------------------------
   total:   27   1026    715
   ---------------------------------------------------------------------------

   total number of primitive shells          :   56
   total number of contracted shells         :  245
   total number of cartesian basis functions :  863
   total number of SCF-basis functions       :  715


 symmetry group of the molecule :   c1 

 the group has the following generators :
   c1(z)

    1 symmetry operations found

 there are 1 real representations :   a   

 maximum number of shells which are related by symmetry :  1


    mo occupation :
   irrep   mo's   occupied
    a     1107       42
 
 number of basis functions   :         1107
 number of occupied orbitals :           42
 
  
           ------------------
           density functional
           ------------------
 TPSS meta-GGA functional
 exchange:    LDA + TPSS
 correlation: LDA (PW) + TPSS
 grinp -> nfun, dfgga, dfhybrid 
           5 F F
 iterations will be done with small grid
  
 spherical integration : Lebedev's spherical grid
 spherical gridsize    :           5
    i.e. gridpoints    :         590
 value for diffuse not defined
 radial integration    : Chebyshev 2nd kind (scaling 3)
 radial gridsize       :           8
 integration cells     :          27
 partition function    : becke
 partition sharpness   :           3
  

 <rddim> : input of entry tasksize
           from data group '$pardft' failed !

               Default values taken

 <rddim> : input of entry memdiv
           from data group '$pardft' failed !

               Default values taken
  RIDFT: memory allocation for DFT gridpoints
  MEMORY is divided by 1 as DEFAULT
 Each node can hold at most  the            1 -th part
 of the gridpoints    

 biggest AO integral is expected to be     6.990327543
  
           ------------------------
               RI-J - INFORMATION
           ------------------------
 
 
 **************************************************
 *      MEMORY ALLOCATION FOR PARALLEL RI-DFT     *
 **************************************************
 
 
MEMORY FOR (MU NU/ ALPHA), SEQUENTIAL RUN               4996 MByte
 
            DIFFERENCE IN MEMORY NEED:       DIAG./SLAVE  
 
      TOTAL DIFFERENCE :                     54 MByte
 
      difference in xcore:                    5 MByte
      difference in fatmat:                  17 MByte
      getcor calls skipped by slaves:        33 MByte
 
 
           Integral memory available for diagonal.      4996 MByte
 
           Integral memory available for slave             0 MByte
 
         MEMORY FOR (MU NU/ ALPHA) ON DIAGONALIZER      4996 MByte
 
         MEMORY FOR (MU NU/ ALPHA) ON ONE SLAVE            0 MByte
 
         TOTAL MEMORY FOR (MU NU/ ALPHA),ALL NODES      4996 MByte
 
 Contributions to RI integral batches: 
  neglected integral batches:       10387
  direct contribution:               2594
  memory contribution:       47397
 Memory core needed for (P|Q) and Cholesky      4 MByte
 Memory core minimum needed except of (P|Q)     6 MByte
 Total minimum memory core needed (sum)        10 MByte
     number of direct tasks:         160
  
 ****************************************
 Memory allocated for RI-J  5006 MByte
 ****************************************
                                            

          ------------------------
          nuclear repulsion energy  :   702.704950527    
          ------------------------

 
          -----------------
          -S integrals
          -----------------

 1e-integrals will be neglected if expon. factor < 0.247186E-14
 
          -----------------
          -T+V integrals
          -----------------

 1e-integrals will be neglected if expon. factor < 0.247186E-14
 Difference densities >>NOT<< switched on in parallel ridft!

 automatic virtual orbital shift switched on 
      shift if e(lumo)-e(homo) < 0.10000000    


 DIIS switched on: error vector is FDS-SDF
 Max. Iterations for DIIS is     :   4
 DIIS matrix (see manual) 
    Scaling factor of diagonals  :  1.200
    threshold for scaling factor :  0.000

 scf convergence criterion : increment of total energy < .1000000D-08
                  and increment of one-electron energy < .1000000D-05


 <geterg> : there is no data group $energy 

  MOs are in ASCII format !


 reading orbital data $scfmo  from file mos . 

 orbital characterization : expanded
 
 mo provided and orthogonalized by Cholesky decomposition

 DSCF restart information will be dumped onto file mos


 Starting SCF iterations


 ITERATION  ENERGY          1e-ENERGY        2e-ENERGY     RMS[dD(SAO)]   TOL
   1  -464.75122031625    -2008.2270494     840.77087858    0.000D+00 0.247D-13
                            Exc = -67.6991255712     Coul =  908.470004153    
                              N = 83.999964062    
                            current damping = 0.700
 
          max. resid. norm for Fia-block=  8.123D-01 for orbital     12a         
          max. resid. fock norm         =  4.962D+01 for orbital    910a         

 ITERATION  ENERGY          1e-ENERGY        2e-ENERGY     RMS[dD(SAO)]   TOL
   2  -465.90936303557    -2020.4168360     851.80252246    0.596D-02 0.247D-13
                            Exc = -68.5222543887     Coul =  920.324776845    
                              N = 83.999965320    
                            current damping = 0.650
 
          Norm of current diis error:  3.9096    
          max. resid. norm for Fia-block=  1.381D-01 for orbital      1a         
          max. resid. fock norm         =  2.157D-01 for orbital    586a         

 ITERATION  ENERGY          1e-ENERGY        2e-ENERGY     RMS[dD(SAO)]   TOL
   3  -466.12502046476    -2021.9754774     853.14550640    0.231D-02 0.247D-13
                            Exc = -68.8830558861     Coul =  922.028562289    
                              N = 83.999970087    
                            current damping = 0.550
 
          Norm of current diis error:  1.9989    
          max. resid. norm for Fia-block=  5.485D-02 for orbital      1a         
          max. resid. fock norm         =  5.982D-02 for orbital     13a         

 ITERATION  ENERGY          1e-ENERGY        2e-ENERGY     RMS[dD(SAO)]   TOL
   4  -466.20090592289    -2024.5877131     855.68185669    0.134D-02 0.247D-13
                            Exc = -69.0435736346     Coul =  924.725430323    
                              N = 83.999965988    
                            current damping = 0.450
 
          Norm of current diis error: 0.72908    
          max. resid. norm for Fia-block=  2.931D-02 for orbital     12a         
          max. resid. fock norm         =  4.749D-02 for orbital   1051a         

 ITERATION  ENERGY          1e-ENERGY        2e-ENERGY     RMS[dD(SAO)]   TOL
   5  -466.21160981638    -2024.7383432     855.82178282    0.702D-03 0.247D-13
                            Exc = -69.1558252022     Coul =  924.977608024    
                              N = 83.999968063    
                            current damping = 0.300
 
          Norm of current diis error: 0.35716    
          max. resid. norm for Fia-block=  1.180D-02 for orbital     42a         
          max. resid. fock norm         =  1.383D-02 for orbital     42a         
          mo-orthogonalization: Cholesky decomposition

 ITERATION  ENERGY          1e-ENERGY        2e-ENERGY     RMS[dD(SAO)]   TOL
   6  -466.21448734449    -2025.0261267     856.10668886    0.586D-03 0.247D-13
                            Exc = -69.1575636300     Coul =  925.264252493    
                              N = 83.999965310    
                            current damping = 0.150
 
          Norm of current diis error: 0.11210    
          max. resid. norm for Fia-block=  4.656D-03 for orbital     12a         
          max. resid. fock norm         =  9.158D-03 for orbital   1069a         

 ITERATION  ENERGY          1e-ENERGY        2e-ENERGY     RMS[dD(SAO)]   TOL
   7  -466.21472685219    -2025.2462646     856.32658720    0.605D-04 0.247D-13
                            Exc = -69.1837828330     Coul =  925.510370031    
                              N = 83.999966041    
                            current damping = 0.050
 
          Norm of current diis error: 0.53165E-01
          max. resid. norm for Fia-block=  1.578D-03 for orbital     42a         
          max. resid. fock norm         =  1.901D-03 for orbital     42a         

 ITERATION  ENERGY          1e-ENERGY        2e-ENERGY     RMS[dD(SAO)]   TOL
   8  -466.21477498396    -2025.0316021     856.11187658    0.720D-04 0.247D-13
                            Exc = -69.1719887203     Coul =  925.283865302    
                              N = 83.999965556    
                            current damping = 0.100
 
          Norm of current diis error: 0.28687E-01
          max. resid. norm for Fia-block=  4.007D-04 for orbital     42a         
          max. resid. fock norm         =  5.790D-04 for orbital    143a         

 ITERATION  ENERGY          1e-ENERGY        2e-ENERGY     RMS[dD(SAO)]   TOL
   9  -466.21478848694    -2025.1381050     856.21836600    0.139D-04 0.247D-13
                            Exc = -69.1769482846     Coul =  925.395314280    
                              N = 83.999965652    
                            current damping = 0.150
 
          Norm of current diis error: 0.47232E-02
          max. resid. norm for Fia-block=  7.548D-05 for orbital     39a         
          max. resid. fock norm         =  1.279D-04 for orbital   1092a         

 ITERATION  ENERGY          1e-ENERGY        2e-ENERGY     RMS[dD(SAO)]   TOL
  10  -466.21478881625    -2025.1205598     856.20082044    0.131D-05 0.247D-13
                            Exc = -69.1762624568     Coul =  925.377082892    
                              N = 83.999965647    
                            current damping = 0.200
 
          Norm of current diis error: 0.17155E-02
          max. resid. norm for Fia-block=  2.874D-05 for orbital     41a         
          max. resid. fock norm         =  8.325D-05 for orbital   1098a         
          mo-orthogonalization: Cholesky decomposition

 ITERATION  ENERGY          1e-ENERGY        2e-ENERGY     RMS[dD(SAO)]   TOL
  11  -466.21478886171    -2025.1237680     856.20402861    0.323D-06 0.247D-13
                            Exc = -69.1764351286     Coul =  925.380463734    
                              N = 83.999965648    
                            current damping = 0.250
 
          Norm of current diis error: 0.65345E-03
          max. resid. norm for Fia-block=  1.920D-05 for orbital     12a         
          max. resid. fock norm         =  3.657D-05 for orbital   1097a         

 ITERATION  ENERGY          1e-ENERGY        2e-ENERGY     RMS[dD(SAO)]   TOL
  12  -466.21478886852    -2025.1239291     856.20418967    0.329D-06 0.247D-13
                            Exc = -69.1763872471     Coul =  925.380576914    
                              N = 83.999965644    
                            current damping = 0.100
 
          Norm of current diis error: 0.26799E-03
          max. resid. norm for Fia-block=  1.030D-05 for orbital     42a         
          max. resid. fock norm         =  1.648D-05 for orbital   1069a         

 ITERATION  ENERGY          1e-ENERGY        2e-ENERGY     RMS[dD(SAO)]   TOL
  13  -466.21478886972    -2025.1243217     856.20458235    0.306D-06 0.247D-13
                            Exc = -69.1764384414     Coul =  925.381020789    
                              N = 83.999965647    
                            current damping = 0.050
 
          Norm of current diis error: 0.14269E-03
          max. resid. norm for Fia-block=  4.147D-06 for orbital     42a         
          max. resid. fock norm         =  6.087D-06 for orbital   1069a         

 ITERATION  ENERGY          1e-ENERGY        2e-ENERGY     RMS[dD(SAO)]   TOL
  14  -466.21478887014    -2025.1239032     856.20416385    0.145D-06 0.247D-13
                            Exc = -69.1764082680     Coul =  925.380572113    
                              N = 83.999965646    
                            current damping = 0.100
 
          Norm of current diis error: 0.37773E-04
          max. resid. norm for Fia-block=  7.372D-07 for orbital     42a         
          max. resid. fock norm         =  1.079D-06 for orbital   1097a         

 DENSITY CONVERGED !


 ITERATION  ENERGY          1e-ENERGY        2e-ENERGY     RMS[dD(SAO)]   TOL
  15  -466.21478887016    -2025.1240614     856.20432197    0.274D-07 0.247D-13
                            Exc = -69.1764159518     Coul =  925.380737918    
                              N = 83.999965646    
                            current damping = 0.150
 
          Norm of current diis error: 0.16454E-04
          max. resid. norm for Fia-block=  2.488D-07 for orbital     35a         
          max. resid. fock norm         =  5.335D-07 for orbital   1094a         
          mo-orthogonalization: Cholesky decomposition

 DENSITY CONVERGED !


 ITERATION  ENERGY          1e-ENERGY        2e-ENERGY     RMS[dD(SAO)]   TOL
  16  -466.21478887017    -2025.1240102     856.20427082    0.354D-08 0.247D-13
                            Exc = -69.1764142188     Coul =  925.380685036    
                              N = 83.999965646    
                            current damping = 0.200
 
          Norm of current diis error: 0.60478E-05
          max. resid. norm for Fia-block=  1.067D-07 for orbital     41a         
          max. resid. fock norm         =  3.435D-07 for orbital   1097a         

 ENERGY & DENSITY CONVERGED !


 ITERATION  ENERGY          1e-ENERGY        2e-ENERGY     RMS[dD(SAO)]   TOL
  17  -466.21459035588    -2025.1240175     856.20447659    0.105D-08 0.247D-13
                            Exc = -69.1762161140     Coul =  925.380692705    
                              N = 83.999965299    
                            current damping = 0.250
 
          Norm of current diis error: 0.20855E-05
          max. resid. norm for Fia-block=  6.293D-08 for orbital     12a         
          max. resid. fock norm         =  8.770D-08 for orbital     42a         

 End of SCF iterations

   convergence criteria satisfied after   17 iterations


                  ------------------------------------------ 
                 |  total energy      =   -466.21459035588  |
                  ------------------------------------------ 
                 :  kinetic energy    =    463.96439957326  :
                 :  potential energy  =   -930.17898992914  :
                 :  virial theorem    =      1.99517348700  :
                 :  wavefunction norm =      1.00000000000  :
                  .......................................... 


 <geterg> : there is no data group $energy 


 <skperg> : $end is missing 


 orbitals $scfmo  will be written to file mos

    irrep                 38a         39a         40a         41a         42a   
 eigenvalues H         -0.28150    -0.26689    -0.25734    -0.24591    -0.22003
            eV          -7.6601     -7.2625     -7.0027     -6.6915     -5.9875
 occupation              2.0000      2.0000      2.0000      2.0000      2.0000 

    irrep                 43a         44a         45a         46a         47a   
 eigenvalues H         -0.00545     0.01263     0.02813     0.02974     0.03505
            eV          -0.1484      0.3437      0.7655      0.8092      0.9539
 
 
 ! grave: sending quit signal to master process
 
 
 
 
 ==============================================================================
                           electrostatic moments
 ==============================================================================

 reference point for electrostatic moments:    0.00000   0.00000   0.00000

 
              nuc           elec       ->  total
 ------------------------------------------------------------------------------
                          charge      
 ------------------------------------------------------------------------------
          84.000000     -84.000000       0.000000
 
 ------------------------------------------------------------------------------
                       dipole moment  
 ------------------------------------------------------------------------------
   x      10.798197     -10.686354       0.111843
   y       0.490289      -0.782035      -0.291745
   z     -50.070373      50.636861       0.566489
 
   | dipole moment | =     0.6469 a.u. =     1.6444 debye 
 
 ------------------------------------------------------------------------------
                     quadrupole moment
 ------------------------------------------------------------------------------
  xx     376.087000    -425.192339     -49.105339
  yy     331.008286    -381.710351     -50.702065
  zz     562.191079    -617.739001     -55.547922
  xy      -1.157321      -0.197623      -1.354943
  xz     -99.728564      99.332904      -0.395660
  yz      -1.345749       3.192400       1.846651
 
     1/3  trace=     -51.785109
     anisotropy=       7.069440
 
 ==============================================================================
 

    ridft profiling
  --------------------------------------------------------------------
             module   cpu total (s)       %  wall total (s)       %

               RIDFT          1035.2  100.00          1037.1  100.00
         Ridft_b_scf            30.3    2.93            30.4    2.93
        b_scf_prelim             0.0    0.00             0.0    0.00
        b_scf_molinp             0.0    0.00             0.0    0.00
         b_scf_init0             0.0    0.00             0.0    0.00
        b_scf_auxbas             0.0    0.00             0.0    0.00
      b_scf_symmetry             0.0    0.00             0.0    0.00
         b_scf_cosmo             0.0    0.00             0.0    0.00
        b_scf_params             2.5    0.25             2.6    0.25
          b_scf_ri-j            24.3    2.35            24.3    2.34
    b_scf_ri-j_auxpq            24.3    2.34            24.3    2.34
     ri-j_auxpq_chol             0.1    0.01             0.1    0.01
         b_scf_1elec             0.9    0.09             0.9    0.09
       b_scf_moinput             2.5    0.25             2.5    0.25
     moinput_orthmos             2.5    0.24             2.5    0.24
    b_scf_dft-dstmax             0.0    0.00             0.0    0.00
           Ridft_scf          1004.6   97.04          1006.4   97.04
          Scf_b_loop             0.0    0.00             0.0    0.00
                noga             0.0    0.00             0.0    0.00
            Scf_loop          1003.5   96.93          1005.2   96.93
     scf_loop_mkdmat             1.4    0.14             1.4    0.14
       scf_loop_ri-j            27.4    2.65            27.5    2.65
      parlp1.bc.dens             1.1    0.10             1.1    0.10
        parlp1.gs.gp             0.0    0.00             0.0    0.00
        parlp2.bc.gq             0.0    0.00             0.0    0.00
        scf_loop_dft           927.7   89.62           929.4   89.62
      pardft.bc.dens             0.0    0.00             0.0    0.00
        dft_grid_con             0.6    0.06             0.6    0.06
          dft_xcmrhf           921.8   89.04           923.4   89.04
          dft_getval            14.2    1.37            14.2    1.37
          funct2 dst             0.1    0.01             0.1    0.01
      funct2 f2loop1             4.0    0.39             4.0    0.39
      funct2 f2loop2             4.4    0.42             4.4    0.42
          funct2 s+c             5.4    0.52             5.4    0.52
        funct2 cmf_2             4.7    0.45             4.7    0.45
          dft_mkdens           447.7   43.25           448.6   43.25
        dft_mgga-fun             0.6    0.06             0.6    0.06
          dft_mkfock           458.9   44.33           459.7   44.33
     pardft.red.fock            80.5    7.78            80.7    7.78
     scf_loop_energy             0.0    0.00             0.0    0.00
     scf_loop_mkfock             0.0    0.00             0.0    0.00
       scf_loop_diis            12.6    1.22            12.6    1.22
       scf_loop_diag            15.4    1.49            15.5    1.49
         diag_tritrn             4.5    0.43             4.5    0.44
          diag_rdiag            10.9    1.05            10.9    1.05
     scf_loop_modump            15.5    1.50            15.5    1.50
      scf_loop_ortho             2.7    0.26             2.7    0.26
          Scf_a_loop             1.1    0.11             1.1    0.11
         Ridft_a_scf             0.3    0.03             0.4    0.03
         a_scf_fanal             0.3    0.03             0.3    0.03
 


    ------------------------------------------------------------------------
         total  cpu-time : 17 minutes and 17 seconds
         total wall-time : 17 minutes and 19 seconds
    ------------------------------------------------------------------------


   ****  ridft : all done  ****


    2016-06-15 13:19:57.878 

