Using Slurm to start processes with PMI2
STARTING ridft ON 8 PROCESSORS!
RUNNING PROGRAM /beegfs/modfac/apps/TURBOMOLE/7.0_intel_GA/bin/em64t-unknown-linux-gnu_mpi/ridft_mpi.
PLEASE WAIT UNTIL ridft HAS FINISHED.
Look for the output in slave1.output.
  this is node-proc. number 1 running on node c-5-23.local
  the total number of node-proc. spawned is            8
  parallel platform: MPP, or cluster with fast interconnect

 ridft (c-5-23.local) : TURBOMOLE V7.0.2( ) 15 Jan 2016 at 17:47:42
 Copyright (C) 2016 TURBOMOLE GmbH, Karlsruhe


    2018-02-01 18:23:20.905 



                                  r i d f t

                        DFT program with RI approximation 
                                for coulomb part 




                                                 
                                 References:     
                                                 
          TURBOMOLE:                             
              R. Ahlrichs, M. Baer, M. Haeser, H. Horn, and
              C. Koelmel
              Electronic structure calculations on workstation
              computers: the program system TURBOMOLE
              Chem. Phys. Lett. 162: 165 (1989)
          Density Functional:                              
              O. Treutler and R. Ahlrichs                      
              Efficient Molecular Numerical Integration Schemes
              J. Chem. Phys. 102: 346 (1995)                   
          Parallel Version:                                
              Performance of parallel TURBOMOLE for Density    
              Functional Calculations                          
              M. v. Arnim and R. Ahlrichs                      
              J. Comp. Chem. 19: 1746 (1998)                   
          RI-J Method:                                     
              Auxiliary Basis Sets to approximate Coulomb      
              Potentials                                       
              Chem. Phys. Lett. 240: 283 (1995)                
              K. Eichkorn, O. Treutler, H. Oehm, M. Haeser     
              and R. Ahlrichs                                  
              Chem. Phys. Lett. 242: 652 (1995)                
                                                           
              Auxiliary Basis Sets for Main Row Atoms and their
              Use to approximate Coulomb Potentials            
              K. Eichkorn, F. Weigend, O. Treutler and         
              R. Ahlrichs                                      
              Theo. Chem. Acc. 97: 119 (1997)                   
                                                           
              Accurate Coulomb-fitting basis sets for H to Rn 
              F. Weigend                                        
              Phys. Chem. Chem. Phys. 8: 1057 (2006)            
                                                           
          Multipole accelerated RI-J (MARI-J):             
              Fast evaluation of the Coulomb potential for     
              electron densities using multipole accelerated   
              resolution of identity approximation             
              M. Sierka, A. Hogekamp and R. Ahlrichs           
              J. Chem. Phys. 118: 9136 (2003)                  
          RI-JK Method:                                     
              A fully direct RI-HF algorithm: Implementation,
              optimised auxiliary basis sets, demonstration of
              accuracy and efficiency                         
              F. Weigend                                      
              Phys. Chem. Chem. Phys. 4: 4285 (2002)           
          Two-component HF and DFT with spin-orbit coupling:  
              Self-consistent treatment of spin-orbit         
              interactions with efficient Hartree-Fock and    
              density functional methods                      
              M. K. Armbruster, F. Weigend, C. van Wüllen and 
              W. Klopper                                      
              Phys. Chem. Chem. Phys. 10: 1748 (2008)         
          Relativistic all-electron 2c calculations           
              An efficient implementation of two-component    
              relativistic exact-decoupling methods for large 
              molecules                                       
              D. Peng, N. Middendorf, F. Weigend, M. Reiher   
              J. Chem. Phys. 138, 184105 (2013)               
                                         


 


              +--------------------------------------------------+
              |      general information about current run       |
              +--------------------------------------------------+

 

 SCF run will be profiled !


 DENSITY CONVERGENCE CHECK SWITCHED ON !
 SCF CONVERGENCE IF RMS(delta[D]) <     0.1000000000E-06

 TPSS meta-GGA functional
 exchange:    LDA + TPSS
 correlation: LDA (PW) + TPSS
 A DFT calculation using the RI-J approximation will be carried out.

 !!!RI-K makes sense only with a hybrid functional.

    RI-K switched off!!!
 Allocatable memory for RI due to $ricore (MB):        5000


              +--------------------------------------------------+
              | Atomic coordinate, charge and isotop information |
              +--------------------------------------------------+

                    atomic coordinates            atom    charge  isotop
         -2.81102809   -2.32727899   -3.26733648    c      6.000     0
         -0.12371659   -2.32727899   -3.26733648    c      6.000     0
          1.21993916    0.00000000   -3.26733648    c      6.000     0
         -0.12371659    2.32727899   -3.26733648    c      6.000     0
         -2.81102809    2.32727899   -3.26733648    c      6.000     0
         -4.15468385    0.00000000   -3.26733648    c      6.000     0
          1.21375598   -4.64385079   -3.26733648    c      6.000     0
         -0.17645885   -6.93685015   -3.26733648    c      6.000     0
         -2.75828584   -6.93685015   -3.26733648    c      6.000     0
         -4.14850066   -4.64385079   -3.26733648    c      6.000     0
         -6.82962898    0.00000000   -3.26733648    c      6.000     0
         -8.12031760   -2.35046026   -3.26733648    c      6.000     0
         -6.82940410   -4.58638989   -3.26733648    c      6.000     0
         -8.12031760    2.35046026   -3.26733648    c      6.000     0
         -6.82940410    4.58638989   -3.26733648    c      6.000     0
         -4.14850066    4.64385079   -3.26733648    c      6.000     0
         -2.75828584    6.93685015   -3.26733648    c      6.000     0
         -0.17645885    6.93685015   -3.26733648    c      6.000     0
          1.21375598    4.64385079   -3.26733648    c      6.000     0
          3.89465942    4.58638989   -3.26733648    c      6.000     0
          5.18557291    2.35046026   -3.26733648    c      6.000     0
          3.89488430    0.00000000   -3.26733648    c      6.000     0
          5.18557291   -2.35046026   -3.26733648    c      6.000     0
          3.89465942   -4.58638989   -3.26733648    c      6.000     0
          0.84958307   -8.70675631   -3.26733648    h      1.000     0
         -3.78432965   -8.70675631   -3.26733648    h      1.000     0
         -7.84916647   -6.35992054   -3.26733648    h      1.000     0
        -10.16612188   -2.34683577   -3.26733648    h      1.000     0
        -10.16612188    2.34683577   -3.26733648    h      1.000     0
         -7.84916647    6.35992054   -3.26733648    h      1.000     0
         -3.78432965    8.70675631   -3.26733648    h      1.000     0
          0.84958307    8.70675631   -3.26733648    h      1.000     0
          4.91442178    6.35992054   -3.26733648    h      1.000     0
          7.23137720    2.34683577   -3.26733648    h      1.000     0
          7.23137720   -2.34683577   -3.26733648    h      1.000     0
          4.91442178   -6.35992054   -3.26733648    h      1.000     0
 
       center of nuclear mass  :   -1.46737235   -0.00000000   -3.26733648
       center of nuclear charge:   -1.46737237    0.00000000   -3.26733648

              +--------------------------------------------------+
              |               basis set information              |
              +--------------------------------------------------+

              we will work with the 1s 3p 5d 7f 9g ... basis set
              ...i.e. with spherical basis functions...

   type   atoms  prim   cont   basis
   ---------------------------------------------------------------------------
    c       24     77     57   def2-QZVP   [7s4p3d2f1g|15s8p3d2f1g]
    h       12     33     30   def2-QZVP   [4s3p2d1f|7s3p2d1f]
   ---------------------------------------------------------------------------
   total:   36   2244   1728
   ---------------------------------------------------------------------------

   total number of primitive shells          :   42
   total number of contracted shells         :  528
   total number of cartesian basis functions : 2148
   total number of SCF-basis functions       : 1728


 integral neglect threshold       :  0.16E-13
 integral storage threshold THIZE :  0.10E-04
 integral storage threshold THIME :         5

 RI-J AUXILIARY BASIS SET information:

              we will work with the 1s 3p 5d 7f 9g ... basis set
              ...i.e. with spherical basis functions...

   type   atoms  prim   cont   basis
   ---------------------------------------------------------------------------
    c       24     70     49   def2-QZVP   [6s4p3d1f1g|12s5p4d2f1g]
    h       12     16     11   def2-QZVP   [3s1p1d|5s2p1d]
   ---------------------------------------------------------------------------
   total:   36   1872   1308
   ---------------------------------------------------------------------------

   total number of primitive shells          :   32
   total number of contracted shells         :  420
   total number of cartesian basis functions : 1608
   total number of SCF-basis functions       : 1308


 symmetry group of the molecule :   c1 

 the group has the following generators :
   c1(z)

    1 symmetry operations found

 there are 1 real representations :   a   

 maximum number of shells which are related by symmetry :  1


    mo occupation :
   irrep   mo's   occupied
    a     1728       78
 
 number of basis functions   :         1728
 number of occupied orbitals :           78
 
  
           ------------------
           density functional
           ------------------
 TPSS meta-GGA functional
 exchange:    LDA + TPSS
 correlation: LDA (PW) + TPSS
 grinp -> nfun, dfgga, dfhybrid 
           5 F F
 iterations will be done with small grid
  
 spherical integration : Lebedev's spherical grid
 spherical gridsize    :           5
    i.e. gridpoints    :         590
 value for diffuse not defined
 radial integration    : Chebyshev 2nd kind (scaling 3)
 radial gridsize       :           8
 integration cells     :          36
 partition function    : becke
 partition sharpness   :           3
  

 <rddim> : input of entry tasksize
           from data group '$pardft' failed !

               Default values taken

 <rddim> : input of entry memdiv
           from data group '$pardft' failed !

               Default values taken
  RIDFT: memory allocation for DFT gridpoints
  MEMORY is divided by 1 as DEFAULT
 Each node can hold at most  the            1 -th part
 of the gridpoints    

 biggest AO integral is expected to be     5.262544080
  
           ------------------------
               RI-J - INFORMATION
           ------------------------
 
 
 **************************************************
 *      MEMORY ALLOCATION FOR PARALLEL RI-DFT     *
 **************************************************
 
 
MEMORY FOR (MU NU/ ALPHA), SEQUENTIAL RUN               4986 MByte
 
            DIFFERENCE IN MEMORY NEED:       DIAG./SLAVE  
 
      TOTAL DIFFERENCE :                    136 MByte
 
      difference in xcore:                   15 MByte
      difference in fatmat:                  41 MByte
      getcor calls skipped by slaves:        81 MByte
 
 
           Integral memory available for diagonal.      4986 MByte
 
           Integral memory available for slave             0 MByte
 
         MEMORY FOR (MU NU/ ALPHA) ON DIAGONALIZER      4986 MByte
 
         MEMORY FOR (MU NU/ ALPHA) ON ONE SLAVE            0 MByte
 
         TOTAL MEMORY FOR (MU NU/ ALPHA),ALL NODES      4986 MByte
 
 Contributions to RI integral batches: 
  neglected integral batches:       53856
  direct contribution:              52996
  memory contribution:       32804
 Memory core needed for (P|Q) and Cholesky     14 MByte
 Memory core minimum needed except of (P|Q)     4 MByte
 Total minimum memory core needed (sum)        17 MByte
     number of direct tasks:         160
  
 ****************************************
 Memory allocated for RI-J  5003 MByte
 ****************************************
                                            

          ------------------------
          nuclear repulsion energy  :   1837.33059927    
          ------------------------

 
          -----------------
          -S integrals
          -----------------

 1e-integrals will be neglected if expon. factor < 0.155585E-14
 
          -----------------
          -T+V integrals
          -----------------

 1e-integrals will be neglected if expon. factor < 0.155585E-14
 Difference densities >>NOT<< switched on in parallel ridft!

 automatic virtual orbital shift switched on 
      shift if e(lumo)-e(homo) < 0.10000000    


 DIIS switched on: error vector is FDS-SDF
 Max. Iterations for DIIS is     :   4
 DIIS matrix (see manual) 
    Scaling factor of diagonals  :  1.200
    threshold for scaling factor :  0.000

 scf convergence criterion : increment of total energy < .1000000D-08
                  and increment of one-electron energy < .1000000D-05


 <geterg> : there is no data group $energy 

  MOs are in ASCII format !


 reading orbital data $scfmo  from file mos . 

 orbital characterization : expanded
 
 mo provided and orthogonalized by Cholesky decomposition

 DSCF restart information will be dumped onto file mos


 Starting SCF iterations


 ITERATION  ENERGY          1e-ENERGY        2e-ENERGY     RMS[dD(SAO)]   TOL
   1  -919.74307182646    -4857.1730587     2100.0993876    0.000D+00 0.155D-13
                            Exc = -132.003741338     Coul =  2232.10312895    
                              N = 156.00067751    
                            current damping = 0.700
 
          max. resid. norm for Fia-block=  5.313D-01 for orbital     25a         
          max. resid. fock norm         =  4.820D+01 for orbital   1428a         

 ITERATION  ENERGY          1e-ENERGY        2e-ENERGY     RMS[dD(SAO)]   TOL
   2  -921.84807788461    -4883.3302559     2124.1515788    0.407D-01 0.155D-13
                            Exc = -134.126843624     Coul =  2258.27842240    
                              N = 156.00049199    
                            current damping = 0.650
 
          Norm of current diis error:  5.9230    
          max. resid. norm for Fia-block=  1.242D-01 for orbital     27a         
          max. resid. fock norm         =  1.776D-01 for orbital   1490a         

 ITERATION  ENERGY          1e-ENERGY        2e-ENERGY     RMS[dD(SAO)]   TOL
   3  -922.28287798537    -4889.4288958     2129.8154185    0.152D-01 0.155D-13
                            Exc = -134.760470991     Coul =  2264.57588952    
                              N = 156.00039605    
                            current damping = 0.550
 
          Norm of current diis error:  2.8016    
          max. resid. norm for Fia-block=  6.061D-02 for orbital     27a         
          max. resid. fock norm         =  6.694D-02 for orbital     27a         

 ITERATION  ENERGY          1e-ENERGY        2e-ENERGY     RMS[dD(SAO)]   TOL
   4  -922.40235510841    -4894.6204985     2134.8875442    0.340D-02 0.155D-13
                            Exc = -135.143538588     Coul =  2270.03108274    
                              N = 156.00034986    
                            current damping = 0.450
 
          Norm of current diis error:  1.0643    
          max. resid. norm for Fia-block=  2.378D-02 for orbital     27a         
          max. resid. fock norm         =  2.717D-02 for orbital     27a         

 ITERATION  ENERGY          1e-ENERGY        2e-ENERGY     RMS[dD(SAO)]   TOL
   5  -922.42118101104    -4895.1040996     2135.3523194    0.802D-03 0.155D-13
                            Exc = -135.285923999     Coul =  2270.63824337    
                              N = 156.00032596    
                            current damping = 0.300
 
          Norm of current diis error: 0.44687    
          max. resid. norm for Fia-block=  8.345D-03 for orbital     27a         
          max. resid. fock norm         =  1.456D-02 for orbital   1723a         
          mo-orthogonalization: Cholesky decomposition

 ITERATION  ENERGY          1e-ENERGY        2e-ENERGY     RMS[dD(SAO)]   TOL
   6  -922.42212781409    -4897.5301035     2137.7773764    0.225D-03 0.155D-13
                            Exc = -135.361619981     Coul =  2273.13899640    
                              N = 156.00032181    
                            current damping = 0.200
 
          Norm of current diis error: 0.37883    
          max. resid. norm for Fia-block=  5.212D-03 for orbital     75a         
          max. resid. fock norm         =  1.074D-02 for orbital   1722a         

 ITERATION  ENERGY          1e-ENERGY        2e-ENERGY     RMS[dD(SAO)]   TOL
   7  -922.42501472005    -4896.4343736     2136.6787596    0.890D-04 0.155D-13
                            Exc = -135.365484581     Coul =  2272.04424423    
                              N = 156.00031676    
                            current damping = 0.250
 
          Norm of current diis error: 0.10393    
          max. resid. norm for Fia-block=  1.587D-03 for orbital     72a         
          max. resid. fock norm         =  3.616D-03 for orbital   1705a         

 ITERATION  ENERGY          1e-ENERGY        2e-ENERGY     RMS[dD(SAO)]   TOL
   8  -922.42517747398    -4896.5450608     2136.7892840    0.149D-04 0.155D-13
                            Exc = -135.363825045     Coul =  2272.15310909    
                              N = 156.00031669    
                            current damping = 0.300
 
          Norm of current diis error: 0.55112E-01
          max. resid. norm for Fia-block=  6.539D-04 for orbital     61a         
          max. resid. fock norm         =  1.490D-03 for orbital   1705a         

 ITERATION  ENERGY          1e-ENERGY        2e-ENERGY     RMS[dD(SAO)]   TOL
   9  -922.42523306524    -4896.6071588     2136.8513265    0.500D-05 0.155D-13
                            Exc = -135.365594509     Coul =  2272.21692100    
                              N = 156.00031671    
                            current damping = 0.150
 
          Norm of current diis error: 0.64454E-02
          max. resid. norm for Fia-block=  7.754D-05 for orbital     75a         
          max. resid. fock norm         =  1.664D-04 for orbital   1723a         

 ITERATION  ENERGY          1e-ENERGY        2e-ENERGY     RMS[dD(SAO)]   TOL
  10  -922.42523391149    -4896.6016922     2136.8458590    0.150D-05 0.155D-13
                            Exc = -135.366309089     Coul =  2272.21216813    
                              N = 156.00031661    
                            current damping = 0.200
 
          Norm of current diis error: 0.16156E-02
          max. resid. norm for Fia-block=  2.703D-05 for orbital     55a         
          max. resid. fock norm         =  4.421D-05 for orbital   1455a         
          mo-orthogonalization: Cholesky decomposition

 ITERATION  ENERGY          1e-ENERGY        2e-ENERGY     RMS[dD(SAO)]   TOL
  11  -922.42523395568    -4896.5945359     2136.8387027    0.390D-06 0.155D-13
                            Exc = -135.365877122     Coul =  2272.20457979    
                              N = 156.00031661    
                            current damping = 0.050
 
          Norm of current diis error: 0.73453E-03
          max. resid. norm for Fia-block=  9.903D-06 for orbital     55a         
          max. resid. fock norm         =  1.937D-05 for orbital   1609a         

 ITERATION  ENERGY          1e-ENERGY        2e-ENERGY     RMS[dD(SAO)]   TOL
  12  -922.42523396508    -4896.5994762     2136.8436430    0.154D-06 0.155D-13
                            Exc = -135.366044947     Coul =  2272.20968791    
                              N = 156.00031661    
                            current damping = 0.100
 
          Norm of current diis error: 0.29450E-03
          max. resid. norm for Fia-block=  3.204D-06 for orbital     76a         
          max. resid. fock norm         =  5.487D-06 for orbital   1723a         

 DENSITY CONVERGED !


 ITERATION  ENERGY          1e-ENERGY        2e-ENERGY     RMS[dD(SAO)]   TOL
  13  -922.42523396680    -4896.5981687     2136.8423355    0.475D-07 0.155D-13
                            Exc = -135.366012746     Coul =  2272.20834824    
                              N = 156.00031661    
                            current damping = 0.150
 
          Norm of current diis error: 0.32910E-04
          max. resid. norm for Fia-block=  4.629D-07 for orbital     76a         
          max. resid. fock norm         =  9.618D-07 for orbital   1723a         

 DENSITY CONVERGED !


 ITERATION  ENERGY          1e-ENERGY        2e-ENERGY     RMS[dD(SAO)]   TOL
  14  -922.42523396689    -4896.5982942     2136.8424609    0.678D-08 0.155D-13
                            Exc = -135.366016440     Coul =  2272.20847736    
                              N = 156.00031661    
                            current damping = 0.200
 
          Norm of current diis error: 0.82081E-05
          max. resid. norm for Fia-block=  1.385D-07 for orbital     71a         
          max. resid. fock norm         =  3.436D-07 for orbital      5a         

 ENERGY & DENSITY CONVERGED !


 ITERATION  ENERGY          1e-ENERGY        2e-ENERGY     RMS[dD(SAO)]   TOL
  15  -922.42477554596    -4896.5982880     2136.8429132    0.195D-08 0.155D-13
                            Exc = -135.365557829     Coul =  2272.20847103    
                              N = 156.00003500    
                            current damping = 0.250
 
          Norm of current diis error: 0.70976E-05
          max. resid. norm for Fia-block=  7.431D-08 for orbital     74a         
          max. resid. fock norm         =  1.812D-07 for orbital   1718a         

 End of SCF iterations

   convergence criteria satisfied after   15 iterations


                  ------------------------------------------ 
                 |  total energy      =   -922.42477554596  |
                  ------------------------------------------ 
                 :  kinetic energy    =    918.50307741258  :
                 :  potential energy  =  -1840.92785295854  :
                 :  virial theorem    =      1.99574849003  :
                 :  wavefunction norm =      1.00000000000  :
                  .......................................... 


 <geterg> : there is no data group $energy 


 <skperg> : $end is missing 


 orbitals $scfmo  will be written to file mos

    irrep                 74a         75a         76a         77a         78a   
 eigenvalues H         -0.24741    -0.23126    -0.23126    -0.19031    -0.19030
            eV          -6.7324     -6.2930     -6.2929     -5.1786     -5.1785
 occupation              2.0000      2.0000      2.0000      2.0000      2.0000 

    irrep                 79a         80a         81a         82a         83a   
 eigenvalues H         -0.07998    -0.07998    -0.04794    -0.04794    -0.02974
            eV          -2.1763     -2.1763     -1.3045     -1.3045     -0.8094
 
 
 ! grave: sending quit signal to master process
 
 
 
 
 ==============================================================================
                           electrostatic moments
 ==============================================================================

 reference point for electrostatic moments:    0.00000   0.00000   0.00000

 
              nuc           elec       ->  total
 ------------------------------------------------------------------------------
                          charge      
 ------------------------------------------------------------------------------
         156.000000    -156.000000       0.000000
 
 ------------------------------------------------------------------------------
                       dipole moment  
 ------------------------------------------------------------------------------
   x    -228.910089     228.910090       0.000001
   y       0.000000       0.000000       0.000000
   z    -509.704491     509.704491      -0.000000
 
   | dipole moment | =     0.0000 a.u. =     0.0000 debye 
 
 ------------------------------------------------------------------------------
                     quadrupole moment
 ------------------------------------------------------------------------------
  xx    3262.818103   -3351.365813     -88.547710
  yy    2926.921813   -3015.468145     -88.546332
  zz    1665.376081   -1771.690940    -106.314859
  xy      -0.000000      -0.000000      -0.000000
  xz     747.926286    -747.926289      -0.000003
  yz      -0.000000      -0.000000      -0.000000
 
     1/3  trace=     -94.469633
     anisotropy=      17.767838
 
 ==============================================================================
 

    ridft profiling
  --------------------------------------------------------------------
             module   cpu total (s)       %  wall total (s)       %

               RIDFT          1636.4  100.00          1635.3  100.00
         Ridft_b_scf            36.8    2.25            36.8    2.25
        b_scf_prelim             0.0    0.00             0.0    0.00
        b_scf_molinp             0.0    0.00             0.0    0.00
         b_scf_init0             0.0    0.00             0.0    0.00
        b_scf_auxbas             0.0    0.00             0.0    0.00
      b_scf_symmetry             0.0    0.00             0.0    0.00
         b_scf_cosmo             0.0    0.00             0.0    0.00
        b_scf_params             4.6    0.28             4.6    0.28
          b_scf_ri-j            18.1    1.11            18.1    1.11
    b_scf_ri-j_auxpq            18.1    1.11            18.1    1.11
     ri-j_auxpq_chol             0.4    0.02             0.4    0.02
         b_scf_1elec             1.7    0.10             1.7    0.11
       b_scf_moinput            12.3    0.75            12.3    0.75
     moinput_orthmos            12.2    0.74            12.2    0.74
    b_scf_dft-dstmax             0.0    0.00             0.0    0.00
           Ridft_scf          1599.0   97.72          1597.9   97.71
          Scf_b_loop             0.0    0.00             0.0    0.00
                noga             0.0    0.00             0.0    0.00
            Scf_loop          1596.9   97.59          1595.8   97.58
     scf_loop_mkdmat             3.4    0.21             3.4    0.21
       scf_loop_ri-j           141.8    8.67           141.7    8.67
      parlp1.bc.dens             1.0    0.06             1.0    0.06
        parlp1.gs.gp             1.7    0.10             1.7    0.10
        parlp2.bc.gq             0.0    0.00             0.0    0.00
        scf_loop_dft          1322.6   80.82          1321.6   80.82
      pardft.bc.dens             0.0    0.00             0.0    0.00
        dft_grid_con             0.7    0.04             0.7    0.04
          dft_xcmrhf          1315.9   80.41          1315.0   80.41
          dft_getval            16.9    1.03            16.8    1.03
          funct2 dst             0.1    0.01             0.2    0.01
      funct2 f2loop1             4.7    0.29             4.8    0.29
      funct2 f2loop2             6.0    0.37             5.9    0.36
          funct2 s+c             5.7    0.35             5.7    0.35
        funct2 cmf_2             5.2    0.32             5.2    0.32
          dft_mkdens           642.4   39.26           642.0   39.26
        dft_mgga-fun             0.5    0.03             0.5    0.03
          dft_mkfock           655.8   40.07           655.3   40.07
     pardft.red.fock           115.8    7.08           115.7    7.08
     scf_loop_energy             0.0    0.00             0.0    0.00
     scf_loop_mkfock             0.1    0.00             0.1    0.00
       scf_loop_diis            59.3    3.63            59.3    3.63
       scf_loop_diag            34.9    2.13            34.9    2.13
         diag_tritrn            11.3    0.69            11.3    0.69
          diag_rdiag            23.4    1.43            23.4    1.43
     scf_loop_modump            26.4    1.61            26.4    1.61
      scf_loop_ortho             7.4    0.45             7.4    0.45
          Scf_a_loop             2.1    0.13             2.1    0.13
         Ridft_a_scf             0.5    0.03             0.5    0.03
         a_scf_fanal             0.5    0.03             0.5    0.03
 


    ------------------------------------------------------------------------
         total  cpu-time : 27 minutes and 19 seconds
         total wall-time : 27 minutes and 18 seconds
    ------------------------------------------------------------------------


   ****  ridft : all done  ****


    2018-02-01 18:50:38.857 

